
                                 *****************
                                 * O   R   C   A *
                                 *****************

           --- An Ab Initio, DFT and Semiempirical electronic structure package ---

                  #######################################################
                  #                        -***-                        #
                  #          Department of theory and spectroscopy      #
                  #               Directorship: Frank Neese             #
                  #        Max Planck Institute fuer Kohlenforschung    #
                  #                Kaiser Wilhelm Platz 1               #
                  #                 D-45470 Muelheim/Ruhr               #
                  #                      Germany                        #
                  #                                                     #
                  #                  All rights reserved                #
                  #                        -***-                        #
                  #######################################################


                         Program Version 4.2.0 -  RELEASE  -


 With contributions from (in alphabetic order):
   Daniel Aravena         : Magnetic Suceptibility
   Michael Atanasov       : Ab Initio Ligand Field Theory (pilot matlab implementation)
   Alexander A. Auer      : GIAO ZORA, VPT2
   Ute Becker             : Parallelization
   Giovanni Bistoni       : ED, misc. LED, open-shell LED, HFLED
   Martin Brehm           : Molecular dynamics
   Dmytro Bykov           : SCF Hessian
   Vijay G. Chilkuri      : MRCI spin determinant printing, contributions to CSF-ICE
   Dipayan Datta          : RHF DLPNO-CCSD density
   Achintya Kumar Dutta   : EOM-CC, STEOM-CC
   Dmitry Ganyushin       : Spin-Orbit,Spin-Spin,Magnetic field MRCI
   Miquel Garcia          : C-PCM Hessian, Gaussian charge scheme
   Yang Guo               : DLPNO-NEVPT2, CIM, IAO-localization
   Andreas Hansen         : Spin unrestricted coupled pair/coupled cluster methods
   Benjamin Helmich-Paris : CASSCF linear response (MC-RPA)
   Lee Huntington         : MR-EOM, pCC
   Robert Izsak           : Overlap fitted RIJCOSX, COSX-SCS-MP3, EOM
   Christian Kollmar      : KDIIS, OOCD, Brueckner-CCSD(T), CCSD density
   Simone Kossmann        : Meta GGA functionals, TD-DFT gradient, OOMP2, MP2 Hessian
   Martin Krupicka        : AUTO-CI
   Lucas Lang             : DCDCAS
   Dagmar Lenk            : GEPOL surface, SMD
   Dimitrios Liakos       : Extrapolation schemes; Compound Job, initial MDCI parallelization
   Dimitrios Manganas     : Further ROCIS development; embedding schemes
   Dimitrios Pantazis     : SARC Basis sets
   Taras Petrenko         : DFT Hessian,TD-DFT gradient, ASA, ECA, R-Raman, ABS, FL, XAS/XES, NRVS
   Peter Pinski           : DLPNO-MP2, DLPNO-MP2 Gradient
   Christoph Reimann      : Effective Core Potentials
   Marius Retegan         : Local ZFS, SOC
   Christoph Riplinger    : Optimizer, TS searches, QM/MM, DLPNO-CCSD(T), (RO)-DLPNO pert. Triples
   Tobias Risthaus        : Range-separated hybrids, TD-DFT gradient, RPA, STAB
   Michael Roemelt        : Original ROCIS implementation
   Masaaki Saitow         : Open-shell DLPNO-CCSD energy and density
   Barbara Sandhoefer     : DKH picture change effects
   Avijit Sen             : IP-ROCIS
   Kantharuban Sivalingam : CASSCF convergence, NEVPT2, FIC-MRCI
   Bernardo de Souza      : ESD, SOC TD-DFT
   Georgi Stoychev        : AutoAux, RI-MP2 NMR
   Willem Van den Heuvel  : Paramagnetic NMR
   Boris Wezisla          : Elementary symmetry handling
   Frank Wennmohs         : Technical directorship


 We gratefully acknowledge several colleagues who have allowed us to
 interface, adapt or use parts of their codes:
   Stefan Grimme, W. Hujo, H. Kruse,             : VdW corrections, initial TS optimization,
                  C. Bannwarth                     DFT functionals, gCP, sTDA/sTD-DF
   Ed Valeev, F. Pavosevic, A. Kumar             : LibInt (2-el integral package), F12 methods
   Garnet Chan, S. Sharma, J. Yang, R. Olivares  : DMRG
   Ulf Ekstrom                                   : XCFun DFT Library
   Mihaly Kallay                                 : mrcc  (arbitrary order and MRCC methods)
   Andreas Klamt, Michael Diedenhofen            : otool_cosmo (COSMO solvation model)
   Jiri Pittner, Ondrej Demel                    : Mk-CCSD
   Frank Weinhold                                : gennbo (NPA and NBO analysis)
   Christopher J. Cramer and Donald G. Truhlar   : smd solvation model
   Lars Goerigk                                  : TD-DFT with DH, B97 family of functionals
   V. Asgeirsson, H. Jonsson                     : NEB implementation
   FAccTs GmbH                                   : IRC, NEB, NEB-TS, Multilevel, MM, QM/MM, CI optimization
   S Lehtola, MJT Oliveira, MAL Marques          : LibXC Library


 Your calculation uses the libint2 library for the computation of 2-el integrals
 For citations please refer to: http://libint.valeyev.net

 Your ORCA version has been built with support for libXC version: 4.2.3
 For citations please refer to: https://tddft.org/programs/libxc/

 This ORCA versions uses:
   CBLAS   interface :  Fast vector & matrix operations
   LAPACKE interface :  Fast linear algebra routines
   SCALAPACK package :  Parallel linear algebra routines


----- Orbital basis set information -----
Your calculation utilizes the basis: def2-SVP
   F. Weigend and R. Ahlrichs, Phys. Chem. Chem. Phys. 7, 3297 (2005).

================================================================================
                                        WARNINGS
                       Please study these warnings very carefully!
================================================================================


WARNING: MDCI localization with Augmented Hessian Foster-Boys
  ===> : Switching off randomization!

WARNING: Post HF methods need fully converged wavefunctions
  ===> : Setting SCFConvForced true
         You can overwrite this default with %scf ConvForced false 


INFO   : the flag for use of LIBINT has been found!

================================================================================
                                       INPUT FILE
================================================================================
NAME = 36_Kr.in
|  1> #
|  2> # 36_Kr CCSD(T)/Def2-SVP
|  3> #
|  4> ! CCSD(T) Def2-SVP tightscf
|  5> 
|  6> *xyz 0 1
|  7>  Kr 0.0 0.0 0.0
|  8> *
|  9> 
| 10> %maxcore 5000 
| 11> 
| 12> %pal
| 13> nprocs 24
| 14> end
| 15> 
| 16> 
| 17>                          ****END OF INPUT****
================================================================================

                       ****************************
                       * Single Point Calculation *
                       ****************************

---------------------------------
CARTESIAN COORDINATES (ANGSTROEM)
---------------------------------
  Kr     0.000000    0.000000    0.000000

----------------------------
CARTESIAN COORDINATES (A.U.)
----------------------------
  NO LB      ZA    FRAG     MASS         X           Y           Z
   0 Kr   36.0000    0    83.800    0.000000    0.000000    0.000000

--------------------------------
INTERNAL COORDINATES (ANGSTROEM)
--------------------------------
 Kr     0   0   0     0.000000000000     0.00000000     0.00000000

---------------------------
INTERNAL COORDINATES (A.U.)
---------------------------
 Kr     0   0   0     0.000000000000     0.00000000     0.00000000

---------------------
BASIS SET INFORMATION
---------------------
There are 1 groups of distinct atoms

 Group   1 Type Kr  : 14s10p6d contracted to 5s4p3d pattern {63311/5311/411}

Atom   0Kr   basis set group =>   1


           ************************************************************
           *        Program running with 24 parallel MPI-processes    *
           *              working on a common directory               *
           ************************************************************
------------------------------------------------------------------------------
                           ORCA GTO INTEGRAL CALCULATION
------------------------------------------------------------------------------

                         BASIS SET STATISTICS AND STARTUP INFO

 # of primitive gaussian shells          ...   30
 # of primitive gaussian functions       ...   74
 # of contracted shells                  ...   12
 # of contracted basis functions         ...   32
 Highest angular momentum                ...    2
 Maximum contraction depth               ...    6
 Integral package used                   ... LIBINT
 Integral threshhold            Thresh   ...  2.500e-11
 Primitive cut-off              TCut     ...  2.500e-12


------------------------------ INTEGRAL EVALUATION ----------------------------


 * One electron integrals 
 Pre-screening matrix                    ... done
 Shell pair data                         ... done (   0.000 sec)



           ************************************************************
           *        Program running with 24 parallel MPI-processes    *
           *              working on a common directory               *
           ************************************************************
-------------------------------------------------------------------------------
                                 ORCA SCF
-------------------------------------------------------------------------------

------------
SCF SETTINGS
------------
Hamiltonian:
 Ab initio Hamiltonian  Method          .... Hartree-Fock(GTOs)


General Settings:
 Integral files         IntName         .... 36_Kr
 Hartree-Fock type      HFTyp           .... RHF
 Total Charge           Charge          ....    0
 Multiplicity           Mult            ....    1
 Number of Electrons    NEL             ....   36
 Basis Dimension        Dim             ....   32
 Nuclear Repulsion      ENuc            ....      0.0000000000 Eh

Convergence Acceleration:
 DIIS                   CNVDIIS         .... on
   Start iteration      DIISMaxIt       ....    12
   Startup error        DIISStart       ....  0.200000
   # of expansion vecs  DIISMaxEq       ....     5
   Bias factor          DIISBfac        ....   1.050
   Max. coefficient     DIISMaxC        ....  10.000
 Newton-Raphson         CNVNR           .... off
 SOSCF                  CNVSOSCF        .... on
   Start iteration      SOSCFMaxIt      ....   150
   Startup grad/error   SOSCFStart      ....  0.003300
 Level Shifting         CNVShift        .... on
   Level shift para.    LevelShift      ....    0.2500
   Turn off err/grad.   ShiftErr        ....    0.0010
 Zerner damping         CNVZerner       .... off
 Static damping         CNVDamp         .... on
   Fraction old density DampFac         ....    0.7000
   Max. Damping (<1)    DampMax         ....    0.9800
   Min. Damping (>=0)   DampMin         ....    0.0000
   Turn off err/grad.   DampErr         ....    0.1000
 Fernandez-Rico         CNVRico         .... off

SCF Procedure:
 Maximum # iterations   MaxIter         ....   125
 SCF integral mode      SCFMode         .... Direct
   Integral package                     .... LIBINT
 Reset frequency        DirectResetFreq ....    20
 Integral Threshold     Thresh          ....  2.500e-11 Eh
 Primitive CutOff       TCut            ....  2.500e-12 Eh

Convergence Tolerance:
 Convergence Check Mode ConvCheckMode   .... Total+1el-Energy
 Convergence forced     ConvForced      .... 1
 Energy Change          TolE            ....  1.000e-08 Eh
 1-El. energy change                    ....  1.000e-05 Eh
 Orbital Gradient       TolG            ....  1.000e-05
 Orbital Rotation angle TolX            ....  1.000e-05
 DIIS Error             TolErr          ....  5.000e-07


Diagonalization of the overlap matrix:
Smallest eigenvalue                        ... 1.071e-01
Time for diagonalization                   ...    0.001 sec
Threshold for overlap eigenvalues          ... 1.000e-08
Number of eigenvalues below threshold      ... 0
Time for construction of square roots      ...    0.009 sec
Total time needed                          ...    0.010 sec

-------------------
DFT GRID GENERATION
-------------------

General Integration Accuracy     IntAcc      ...  4.340
Radial Grid Type                 RadialGrid  ... Gauss-Chebyshev
Angular Grid (max. acc.)         AngularGrid ... Lebedev-110
Angular grid pruning method      GridPruning ... 3 (G Style)
Weight generation scheme         WeightScheme... Becke
Basis function cutoff            BFCut       ...    1.0000e-11
Integration weight cutoff        WCut        ...    1.0000e-14
Grids for H and He will be reduced by one unit

# of grid points (after initial pruning)     ...   2950 (   0.1 sec)
# of grid points (after weights+screening)   ...   2950 (   0.0 sec)
Grid point division into batches done        ...    0.0 sec
Reduced shell lists constructed in    0.0 sec

Total number of grid points                  ...     2950
Total number of batches                      ...       47
Average number of points per batch           ...       62
Average number of grid points per atom       ...     2950
Average number of shells per batch           ...     3.33 (27.78%)
Average number of basis functions per batch  ...     8.67 (27.08%)
Average number of large shells per batch     ...     3.33 (100.00%)
Average number of large basis fcns per batch ...     8.67 (100.00%)
Maximum spatial batch extension              ...  14.66, 21.55, 21.55 au
Average spatial batch extension              ...   0.62,  0.92,  0.92 au

Time for grid setup =    0.149 sec

------------------------------
INITIAL GUESS: MODEL POTENTIAL
------------------------------
Loading Hartree-Fock densities                     ... done
Calculating cut-offs                               ... done
Setting up the integral package                    ... done
Initializing the effective Hamiltonian             ... done
Starting the Coulomb interaction                   ... done (   0.0 sec)
Reading the grid                                   ... done
Mapping shells                                     ... done
Starting the XC term evaluation                    ... done (   0.0 sec)
Transforming the Hamiltonian                       ... done (   0.0 sec)
Diagonalizing the Hamiltonian                      ... done (   0.0 sec)
Back transforming the eigenvectors                 ... done (   0.0 sec)
Now organizing SCF variables                       ... done
                      ------------------
                      INITIAL GUESS DONE (   0.3 sec)
                      ------------------
--------------
SCF ITERATIONS
--------------
ITER       Energy         Delta-E        Max-DP      RMS-DP      [F,P]     Damp
               ***  Starting incremental Fock matrix formation  ***
  0  -2751.6539472046   0.000000000000 0.03717577  0.00159535  0.1444937 0.7000
  1  -2751.6590303379  -0.005083133292 0.03458794  0.00139952  0.0886982 0.7000
                               ***Turning on DIIS***
  2  -2751.6623655221  -0.003335184233 0.09342141  0.00371198  0.0535221 0.0000
  3  -2751.7254408119  -0.063075289849 0.01878086  0.00084671  0.0164544 0.0000
                      *** Initiating the SOSCF procedure ***
                           *** Shutting down DIIS ***
                      *** Re-Reading the Fockian *** 
                      *** Removing any level shift *** 
ITER      Energy       Delta-E        Grad      Rot      Max-DP    RMS-DP
  4  -2751.65000764   0.0754331676  0.001259  0.001259  0.004848  0.000206
               *** Restarting incremental Fock matrix formation ***
  5  -2751.66987832  -0.0198706717  0.000410  0.000245  0.001811  0.000073
  6  -2751.66987859  -0.0000002753  0.000085  0.000064  0.000474  0.000019
                  ***Gradient check signals convergence***
              ***Rediagonalizing the Fockian in SOSCF/NRSCF***

               *****************************************************
               *                     SUCCESS                       *
               *           SCF CONVERGED AFTER   7 CYCLES          *
               *****************************************************


----------------
TOTAL SCF ENERGY
----------------

Total Energy       :        -2751.66987860 Eh          -74876.74406 eV

Components:
Nuclear Repulsion  :            0.00000000 Eh               0.00000 eV
Electronic Energy  :        -2751.66987860 Eh          -74876.74406 eV
One Electron Energy:        -3830.18651276 Eh         -104224.67369 eV
Two Electron Energy:         1078.51663416 Eh           29347.92964 eV

Virial components:
Potential Energy   :        -5503.33932465 Eh         -149753.47634 eV
Kinetic Energy     :         2751.66944605 Eh           74876.73229 eV
Virial Ratio       :            2.00000016


---------------
SCF CONVERGENCE
---------------

  Last Energy change         ...   -1.2446e-08  Tolerance :   1.0000e-08
  Last MAX-Density change    ...    3.6767e-07  Tolerance :   1.0000e-07
  Last RMS-Density change    ...    4.2722e-08  Tolerance :   5.0000e-09
  Last Orbital Gradient      ...    6.1405e-07  Tolerance :   1.0000e-05
  Last Orbital Rotation      ...    1.1760e-07  Tolerance :   1.0000e-05

             **** THE GBW FILE WAS UPDATED (36_Kr.gbw) ****
             **** DENSITY FILE WAS UPDATED (36_Kr.scfp) ****
             **** ENERGY FILE WAS UPDATED (36_Kr.en.tmp) ****
             **** THE GBW FILE WAS UPDATED (36_Kr.gbw) ****
             **** DENSITY FILE WAS UPDATED (36_Kr.scfp) ****
----------------
ORBITAL ENERGIES
----------------

  NO   OCC          E(Eh)            E(eV) 
   0   2.0000    -520.105314    -14152.7851 
   1   2.0000     -69.873039     -1901.3420 
   2   2.0000     -62.997321     -1714.2443 
   3   2.0000     -62.997321     -1714.2443 
   4   2.0000     -62.997321     -1714.2443 
   5   2.0000     -10.839030      -294.9450 
   6   2.0000      -8.324889      -226.5318 
   7   2.0000      -8.324889      -226.5318 
   8   2.0000      -8.324889      -226.5318 
   9   2.0000      -3.818618      -103.9099 
  10   2.0000      -3.818618      -103.9099 
  11   2.0000      -3.818618      -103.9099 
  12   2.0000      -3.818618      -103.9099 
  13   2.0000      -3.818618      -103.9099 
  14   2.0000      -1.144676       -31.1482 
  15   2.0000      -0.518284       -14.1032 
  16   2.0000      -0.518284       -14.1032 
  17   2.0000      -0.518284       -14.1032 
  18   0.0000       0.530554        14.4371 
  19   0.0000       0.764105        20.7923 
  20   0.0000       0.764105        20.7923 
  21   0.0000       0.764105        20.7923 
  22   0.0000       0.764105        20.7923 
  23   0.0000       0.764105        20.7923 
  24   0.0000       0.921403        25.0727 
  25   0.0000       0.921403        25.0727 
  26   0.0000       0.921403        25.0727 
  27   0.0000       4.258334       115.8752 
  28   0.0000       4.258334       115.8752 
  29   0.0000       4.258334       115.8752 
  30   0.0000       4.258334       115.8752 
  31   0.0000       4.258334       115.8752 

                    ********************************
                    * MULLIKEN POPULATION ANALYSIS *
                    ********************************

-----------------------
MULLIKEN ATOMIC CHARGES
-----------------------
   0 Kr:   -0.000000
Sum of atomic charges:   -0.0000000

--------------------------------
MULLIKEN REDUCED ORBITAL CHARGES
--------------------------------
  0 Krs       :     8.000000  s :     8.000000
      pz      :     6.000000  p :    18.000000
      px      :     6.000000
      py      :     6.000000
      dz2     :     2.000000  d :    10.000000
      dxz     :     2.000000
      dyz     :     2.000000
      dx2y2   :     2.000000
      dxy     :     2.000000


                     *******************************
                     * LOEWDIN POPULATION ANALYSIS *
                     *******************************

----------------------
LOEWDIN ATOMIC CHARGES
----------------------
   0 Kr:    0.000000

-------------------------------
LOEWDIN REDUCED ORBITAL CHARGES
-------------------------------
  0 Krs       :     8.000000  s :     8.000000
      pz      :     6.000000  p :    18.000000
      px      :     6.000000
      py      :     6.000000
      dz2     :     2.000000  d :    10.000000
      dxz     :     2.000000
      dyz     :     2.000000
      dx2y2   :     2.000000
      dxy     :     2.000000


                      *****************************
                      * MAYER POPULATION ANALYSIS *
                      *****************************

  NA   - Mulliken gross atomic population
  ZA   - Total nuclear charge
  QA   - Mulliken gross atomic charge
  VA   - Mayer's total valence
  BVA  - Mayer's bonded valence
  FA   - Mayer's free valence

  ATOM       NA         ZA         QA         VA         BVA        FA
  0 Kr    36.0000    36.0000    -0.0000    -0.0000     0.0000    -0.0000

  Mayer bond orders larger than 0.100000


--------------------------
ATOM BASIS FOR ELEMENT Kr
--------------------------
 NewGTO Kr
 S 14
    1     120165.648749999993         0.001692150412
    2      18042.500168999999         0.012973963194
    3       4105.180038800000         0.064492968263
    4       1159.444724800000         0.225883574040
    5        378.138103460000         0.463344322930
    6        130.676100450000         0.367064751288
    7        250.963733530000        -0.001771632835
    8         30.265930380000         0.010199375083
    9         12.668110757000         0.006961561126
   10         22.697940101000         0.000855901002
   11          3.867301739800        -0.002830874563
   12          1.801370667100        -0.001559661793
   13          0.403086391400         0.002087026841
   14          0.151705277500        -0.001033396262
 S 14
    1     120165.648749999993         0.000592836282
    2      18042.500168999999         0.004545361956
    3       4105.180038800000         0.022594783104
    4       1159.444724800000         0.079137160215
    5        378.138103460000         0.162330324700
    6        130.676100450000         0.128599266924
    7        250.963733530000         0.116286245359
    8         30.265930380000        -0.669465484097
    9         12.668110757000        -0.456942200059
   10         22.697940101000         0.003689507742
   11          3.867301739800        -0.012202969264
   12          1.801370667100        -0.006723189070
   13          0.403086391400         0.003684589154
   14          0.151705277500        -0.001624532247
 S 14
    1     120165.648749999993         0.000235243701
    2      18042.500168999999         0.001803647650
    3       4105.180038800000         0.008965848670
    4       1159.444724800000         0.031402461329
    5        378.138103460000         0.064414388007
    6        130.676100450000         0.051029547883
    7        250.963733530000         0.058239948660
    8         30.265930380000        -0.335290173857
    9         12.668110757000        -0.228851573889
   10         22.697940101000        -0.241658465872
   11          3.867301739800         0.799280293720
   12          1.801370667100         0.440361064454
   13          0.403086391400         0.017938615817
   14          0.151705277500        -0.003492955319
 S 14
    1     120165.648749999993         0.000083803203
    2      18042.500168999999         0.000642531341
    3       4105.180038800000         0.003193993445
    4       1159.444724800000         0.011186811125
    5        378.138103460000         0.022946978100
    6        130.676100450000         0.018178763378
    7        250.963733530000         0.015175578196
    8         30.265930380000        -0.087366530512
    9         12.668110757000        -0.059631834071
   10         22.697940101000        -0.145313614493
   11          3.867301739800         0.480621723947
   12          1.801370667100         0.264797087605
   13          0.403086391400        -0.860938574933
   14          0.151705277500        -0.348717689466
 S 14
    1     120165.648749999993         0.000073654311
    2      18042.500168999999         0.000564718308
    3       4105.180038800000         0.002807188474
    4       1159.444724800000         0.009832044991
    5        378.138103460000         0.020168010218
    6        130.676100450000         0.015977244758
    7        250.963733530000         0.011611613757
    8         30.265930380000        -0.066848616543
    9         12.668110757000        -0.045627376825
   10         22.697940101000        -0.141907643867
   11          3.867301739800         0.469356547729
   12          1.801370667100         0.258590572782
   13          0.403086391400        -2.146869848407
   14          0.151705277500         1.965860666998
 P 10
    1       1668.573662300000         0.008044457164
    2        394.138627980000         0.061270462931
    3        125.466448540000         0.246018410057
    4         45.704992729000         0.502622538590
    5         17.270133229000         0.343977528749
    6          9.269948777000         0.008294719876
    7          3.836461771900         0.013955217313
    8          1.646716331200         0.005572838487
    9          0.614796864900        -0.005627412184
   10          0.183194674100         0.001972023253
 P 10
    1       1668.573662300000         0.003640449446
    2        394.138627980000         0.027727417559
    3        125.466448540000         0.111333501603
    4         45.704992729000         0.227457478458
    5         17.270133229000         0.155664052700
    6          9.269948777000        -0.354064987840
    7          3.836461771900        -0.595686644322
    8          1.646716331200        -0.237879882698
    9          0.614796864900        -0.011324327306
   10          0.183194674100         0.000018582896
 P 10
    1       1668.573662300000         0.001005235493
    2        394.138627980000         0.007656358006
    3        125.466448540000         0.030742464367
    4         45.704992729000         0.062807720280
    5         17.270133229000         0.042983437370
    6          9.269948777000        -0.125014925352
    7          3.836461771900        -0.210327832265
    8          1.646716331200        -0.083991743888
    9          0.614796864900         0.561076456254
   10          0.183194674100         0.603241602551
 P 10
    1       1668.573662300000         0.001257218055
    2        394.138627980000         0.009575578642
    3        125.466448540000         0.038448683431
    4         45.704992729000         0.078551742802
    5         17.270133229000         0.053758103335
    6          9.269948777000        -0.165136419382
    7          3.836461771900        -0.277829107354
    8          1.646716331200        -0.110947519300
    9          0.614796864900         1.391558788469
   10          0.183194674100        -1.206303819020
 D 6
    1        115.558686030000         0.021961345332
    2         33.477985864000         0.132207606413
    3         11.834450207000         0.363595650898
    4          4.340825489400         0.493361139764
    5          1.507927315700         0.260288976085
    6          0.443000000000         0.015538240366
 D 6
    1        115.558686030000         0.006032092535
    2         33.477985864000         0.036313281528
    3         11.834450207000         0.099868317653
    4          4.340825489400         0.135510826112
    5          1.507927315700         0.024519817162
    6          0.443000000000        -1.006719910916
 D 6
    1        115.558686030000         0.018898985543
    2         33.477985864000         0.113772157602
    3         11.834450207000         0.312894717782
    4          4.340825489400         0.424565294469
    5          1.507927315700        -1.327292244689
    6          0.443000000000         0.670477478154
 end
  // -----------------------------------------------
  // The basis set
  // -----------------------------------------------
  BAS[ATNO] = new BFNGauss[NSH];
  // Basis function   1 L = s
  InitBFNGauss(BAS[ATNO][  0]);
  BAS[ATNO][  0].l  = 0;
  BAS[ATNO][  0].ng = 14;
  BAS[ATNO][  0].a[  0] =    120165.648749999993;     BAS[ATNO][  0].d[  0] =         0.001692150412;
  BAS[ATNO][  0].a[  1] =     18042.500168999999;     BAS[ATNO][  0].d[  1] =         0.012973963194;
  BAS[ATNO][  0].a[  2] =      4105.180038800000;     BAS[ATNO][  0].d[  2] =         0.064492968263;
  BAS[ATNO][  0].a[  3] =      1159.444724800000;     BAS[ATNO][  0].d[  3] =         0.225883574040;
  BAS[ATNO][  0].a[  4] =       378.138103460000;     BAS[ATNO][  0].d[  4] =         0.463344322930;
  BAS[ATNO][  0].a[  5] =       130.676100450000;     BAS[ATNO][  0].d[  5] =         0.367064751288;
  BAS[ATNO][  0].a[  6] =       250.963733530000;     BAS[ATNO][  0].d[  6] =        -0.001771632835;
  BAS[ATNO][  0].a[  7] =        30.265930380000;     BAS[ATNO][  0].d[  7] =         0.010199375083;
  BAS[ATNO][  0].a[  8] =        12.668110757000;     BAS[ATNO][  0].d[  8] =         0.006961561126;
  BAS[ATNO][  0].a[  9] =        22.697940101000;     BAS[ATNO][  0].d[  9] =         0.000855901002;
  BAS[ATNO][  0].a[ 10] =         3.867301739800;     BAS[ATNO][  0].d[ 10] =        -0.002830874563;
  BAS[ATNO][  0].a[ 11] =         1.801370667100;     BAS[ATNO][  0].d[ 11] =        -0.001559661793;
  BAS[ATNO][  0].a[ 12] =         0.403086391400;     BAS[ATNO][  0].d[ 12] =         0.002087026841;
  BAS[ATNO][  0].a[ 13] =         0.151705277500;     BAS[ATNO][  0].d[ 13] =        -0.001033396262;

  // Basis function   2 L = s
  InitBFNGauss(BAS[ATNO][  1]);
  BAS[ATNO][  1].l  = 0;
  BAS[ATNO][  1].ng = 14;
  BAS[ATNO][  1].a[  0] =    120165.648749999993;     BAS[ATNO][  1].d[  0] =        -0.000592836282;
  BAS[ATNO][  1].a[  1] =     18042.500168999999;     BAS[ATNO][  1].d[  1] =        -0.004545361956;
  BAS[ATNO][  1].a[  2] =      4105.180038800000;     BAS[ATNO][  1].d[  2] =        -0.022594783104;
  BAS[ATNO][  1].a[  3] =      1159.444724800000;     BAS[ATNO][  1].d[  3] =        -0.079137160215;
  BAS[ATNO][  1].a[  4] =       378.138103460000;     BAS[ATNO][  1].d[  4] =        -0.162330324700;
  BAS[ATNO][  1].a[  5] =       130.676100450000;     BAS[ATNO][  1].d[  5] =        -0.128599266924;
  BAS[ATNO][  1].a[  6] =       250.963733530000;     BAS[ATNO][  1].d[  6] =        -0.116286245359;
  BAS[ATNO][  1].a[  7] =        30.265930380000;     BAS[ATNO][  1].d[  7] =         0.669465484097;
  BAS[ATNO][  1].a[  8] =        12.668110757000;     BAS[ATNO][  1].d[  8] =         0.456942200059;
  BAS[ATNO][  1].a[  9] =        22.697940101000;     BAS[ATNO][  1].d[  9] =        -0.003689507742;
  BAS[ATNO][  1].a[ 10] =         3.867301739800;     BAS[ATNO][  1].d[ 10] =         0.012202969264;
  BAS[ATNO][  1].a[ 11] =         1.801370667100;     BAS[ATNO][  1].d[ 11] =         0.006723189070;
  BAS[ATNO][  1].a[ 12] =         0.403086391400;     BAS[ATNO][  1].d[ 12] =        -0.003684589154;
  BAS[ATNO][  1].a[ 13] =         0.151705277500;     BAS[ATNO][  1].d[ 13] =         0.001624532247;

  // Basis function   3 L = s
  InitBFNGauss(BAS[ATNO][  2]);
  BAS[ATNO][  2].l  = 0;
  BAS[ATNO][  2].ng = 14;
  BAS[ATNO][  2].a[  0] =    120165.648749999993;     BAS[ATNO][  2].d[  0] =         0.000235243701;
  BAS[ATNO][  2].a[  1] =     18042.500168999999;     BAS[ATNO][  2].d[  1] =         0.001803647650;
  BAS[ATNO][  2].a[  2] =      4105.180038800000;     BAS[ATNO][  2].d[  2] =         0.008965848670;
  BAS[ATNO][  2].a[  3] =      1159.444724800000;     BAS[ATNO][  2].d[  3] =         0.031402461329;
  BAS[ATNO][  2].a[  4] =       378.138103460000;     BAS[ATNO][  2].d[  4] =         0.064414388007;
  BAS[ATNO][  2].a[  5] =       130.676100450000;     BAS[ATNO][  2].d[  5] =         0.051029547883;
  BAS[ATNO][  2].a[  6] =       250.963733530000;     BAS[ATNO][  2].d[  6] =         0.058239948660;
  BAS[ATNO][  2].a[  7] =        30.265930380000;     BAS[ATNO][  2].d[  7] =        -0.335290173857;
  BAS[ATNO][  2].a[  8] =        12.668110757000;     BAS[ATNO][  2].d[  8] =        -0.228851573889;
  BAS[ATNO][  2].a[  9] =        22.697940101000;     BAS[ATNO][  2].d[  9] =        -0.241658465872;
  BAS[ATNO][  2].a[ 10] =         3.867301739800;     BAS[ATNO][  2].d[ 10] =         0.799280293720;
  BAS[ATNO][  2].a[ 11] =         1.801370667100;     BAS[ATNO][  2].d[ 11] =         0.440361064454;
  BAS[ATNO][  2].a[ 12] =         0.403086391400;     BAS[ATNO][  2].d[ 12] =         0.017938615817;
  BAS[ATNO][  2].a[ 13] =         0.151705277500;     BAS[ATNO][  2].d[ 13] =        -0.003492955319;

  // Basis function   4 L = s
  InitBFNGauss(BAS[ATNO][  3]);
  BAS[ATNO][  3].l  = 0;
  BAS[ATNO][  3].ng = 14;
  BAS[ATNO][  3].a[  0] =    120165.648749999993;     BAS[ATNO][  3].d[  0] =        -0.000083803203;
  BAS[ATNO][  3].a[  1] =     18042.500168999999;     BAS[ATNO][  3].d[  1] =        -0.000642531341;
  BAS[ATNO][  3].a[  2] =      4105.180038800000;     BAS[ATNO][  3].d[  2] =        -0.003193993445;
  BAS[ATNO][  3].a[  3] =      1159.444724800000;     BAS[ATNO][  3].d[  3] =        -0.011186811125;
  BAS[ATNO][  3].a[  4] =       378.138103460000;     BAS[ATNO][  3].d[  4] =        -0.022946978100;
  BAS[ATNO][  3].a[  5] =       130.676100450000;     BAS[ATNO][  3].d[  5] =        -0.018178763378;
  BAS[ATNO][  3].a[  6] =       250.963733530000;     BAS[ATNO][  3].d[  6] =        -0.015175578196;
  BAS[ATNO][  3].a[  7] =        30.265930380000;     BAS[ATNO][  3].d[  7] =         0.087366530512;
  BAS[ATNO][  3].a[  8] =        12.668110757000;     BAS[ATNO][  3].d[  8] =         0.059631834071;
  BAS[ATNO][  3].a[  9] =        22.697940101000;     BAS[ATNO][  3].d[  9] =         0.145313614493;
  BAS[ATNO][  3].a[ 10] =         3.867301739800;     BAS[ATNO][  3].d[ 10] =        -0.480621723947;
  BAS[ATNO][  3].a[ 11] =         1.801370667100;     BAS[ATNO][  3].d[ 11] =        -0.264797087605;
  BAS[ATNO][  3].a[ 12] =         0.403086391400;     BAS[ATNO][  3].d[ 12] =         0.860938574933;
  BAS[ATNO][  3].a[ 13] =         0.151705277500;     BAS[ATNO][  3].d[ 13] =         0.348717689466;

  // Basis function   5 L = s
  InitBFNGauss(BAS[ATNO][  4]);
  BAS[ATNO][  4].l  = 0;
  BAS[ATNO][  4].ng = 14;
  BAS[ATNO][  4].a[  0] =    120165.648749999993;     BAS[ATNO][  4].d[  0] =        -0.000073654311;
  BAS[ATNO][  4].a[  1] =     18042.500168999999;     BAS[ATNO][  4].d[  1] =        -0.000564718308;
  BAS[ATNO][  4].a[  2] =      4105.180038800000;     BAS[ATNO][  4].d[  2] =        -0.002807188474;
  BAS[ATNO][  4].a[  3] =      1159.444724800000;     BAS[ATNO][  4].d[  3] =        -0.009832044991;
  BAS[ATNO][  4].a[  4] =       378.138103460000;     BAS[ATNO][  4].d[  4] =        -0.020168010218;
  BAS[ATNO][  4].a[  5] =       130.676100450000;     BAS[ATNO][  4].d[  5] =        -0.015977244758;
  BAS[ATNO][  4].a[  6] =       250.963733530000;     BAS[ATNO][  4].d[  6] =        -0.011611613757;
  BAS[ATNO][  4].a[  7] =        30.265930380000;     BAS[ATNO][  4].d[  7] =         0.066848616543;
  BAS[ATNO][  4].a[  8] =        12.668110757000;     BAS[ATNO][  4].d[  8] =         0.045627376825;
  BAS[ATNO][  4].a[  9] =        22.697940101000;     BAS[ATNO][  4].d[  9] =         0.141907643867;
  BAS[ATNO][  4].a[ 10] =         3.867301739800;     BAS[ATNO][  4].d[ 10] =        -0.469356547729;
  BAS[ATNO][  4].a[ 11] =         1.801370667100;     BAS[ATNO][  4].d[ 11] =        -0.258590572782;
  BAS[ATNO][  4].a[ 12] =         0.403086391400;     BAS[ATNO][  4].d[ 12] =         2.146869848407;
  BAS[ATNO][  4].a[ 13] =         0.151705277500;     BAS[ATNO][  4].d[ 13] =        -1.965860666998;

  // Basis function   6 L = p
  InitBFNGauss(BAS[ATNO][  5]);
  BAS[ATNO][  5].l  = 1;
  BAS[ATNO][  5].ng = 10;
  BAS[ATNO][  5].a[  0] =      1668.573662300000;     BAS[ATNO][  5].d[  0] =         0.008044457164;
  BAS[ATNO][  5].a[  1] =       394.138627980000;     BAS[ATNO][  5].d[  1] =         0.061270462931;
  BAS[ATNO][  5].a[  2] =       125.466448540000;     BAS[ATNO][  5].d[  2] =         0.246018410057;
  BAS[ATNO][  5].a[  3] =        45.704992729000;     BAS[ATNO][  5].d[  3] =         0.502622538590;
  BAS[ATNO][  5].a[  4] =        17.270133229000;     BAS[ATNO][  5].d[  4] =         0.343977528749;
  BAS[ATNO][  5].a[  5] =         9.269948777000;     BAS[ATNO][  5].d[  5] =         0.008294719876;
  BAS[ATNO][  5].a[  6] =         3.836461771900;     BAS[ATNO][  5].d[  6] =         0.013955217313;
  BAS[ATNO][  5].a[  7] =         1.646716331200;     BAS[ATNO][  5].d[  7] =         0.005572838487;
  BAS[ATNO][  5].a[  8] =         0.614796864900;     BAS[ATNO][  5].d[  8] =        -0.005627412184;
  BAS[ATNO][  5].a[  9] =         0.183194674100;     BAS[ATNO][  5].d[  9] =         0.001972023253;

  // Basis function   7 L = p
  InitBFNGauss(BAS[ATNO][  6]);
  BAS[ATNO][  6].l  = 1;
  BAS[ATNO][  6].ng = 10;
  BAS[ATNO][  6].a[  0] =      1668.573662300000;     BAS[ATNO][  6].d[  0] =        -0.003640449446;
  BAS[ATNO][  6].a[  1] =       394.138627980000;     BAS[ATNO][  6].d[  1] =        -0.027727417559;
  BAS[ATNO][  6].a[  2] =       125.466448540000;     BAS[ATNO][  6].d[  2] =        -0.111333501603;
  BAS[ATNO][  6].a[  3] =        45.704992729000;     BAS[ATNO][  6].d[  3] =        -0.227457478458;
  BAS[ATNO][  6].a[  4] =        17.270133229000;     BAS[ATNO][  6].d[  4] =        -0.155664052700;
  BAS[ATNO][  6].a[  5] =         9.269948777000;     BAS[ATNO][  6].d[  5] =         0.354064987840;
  BAS[ATNO][  6].a[  6] =         3.836461771900;     BAS[ATNO][  6].d[  6] =         0.595686644322;
  BAS[ATNO][  6].a[  7] =         1.646716331200;     BAS[ATNO][  6].d[  7] =         0.237879882698;
  BAS[ATNO][  6].a[  8] =         0.614796864900;     BAS[ATNO][  6].d[  8] =         0.011324327306;
  BAS[ATNO][  6].a[  9] =         0.183194674100;     BAS[ATNO][  6].d[  9] =        -0.000018582896;

  // Basis function   8 L = p
  InitBFNGauss(BAS[ATNO][  7]);
  BAS[ATNO][  7].l  = 1;
  BAS[ATNO][  7].ng = 10;
  BAS[ATNO][  7].a[  0] =      1668.573662300000;     BAS[ATNO][  7].d[  0] =         0.001005235493;
  BAS[ATNO][  7].a[  1] =       394.138627980000;     BAS[ATNO][  7].d[  1] =         0.007656358006;
  BAS[ATNO][  7].a[  2] =       125.466448540000;     BAS[ATNO][  7].d[  2] =         0.030742464367;
  BAS[ATNO][  7].a[  3] =        45.704992729000;     BAS[ATNO][  7].d[  3] =         0.062807720280;
  BAS[ATNO][  7].a[  4] =        17.270133229000;     BAS[ATNO][  7].d[  4] =         0.042983437370;
  BAS[ATNO][  7].a[  5] =         9.269948777000;     BAS[ATNO][  7].d[  5] =        -0.125014925352;
  BAS[ATNO][  7].a[  6] =         3.836461771900;     BAS[ATNO][  7].d[  6] =        -0.210327832265;
  BAS[ATNO][  7].a[  7] =         1.646716331200;     BAS[ATNO][  7].d[  7] =        -0.083991743888;
  BAS[ATNO][  7].a[  8] =         0.614796864900;     BAS[ATNO][  7].d[  8] =         0.561076456254;
  BAS[ATNO][  7].a[  9] =         0.183194674100;     BAS[ATNO][  7].d[  9] =         0.603241602551;

  // Basis function   9 L = p
  InitBFNGauss(BAS[ATNO][  8]);
  BAS[ATNO][  8].l  = 1;
  BAS[ATNO][  8].ng = 10;
  BAS[ATNO][  8].a[  0] =      1668.573662300000;     BAS[ATNO][  8].d[  0] =         0.001257218055;
  BAS[ATNO][  8].a[  1] =       394.138627980000;     BAS[ATNO][  8].d[  1] =         0.009575578642;
  BAS[ATNO][  8].a[  2] =       125.466448540000;     BAS[ATNO][  8].d[  2] =         0.038448683431;
  BAS[ATNO][  8].a[  3] =        45.704992729000;     BAS[ATNO][  8].d[  3] =         0.078551742802;
  BAS[ATNO][  8].a[  4] =        17.270133229000;     BAS[ATNO][  8].d[  4] =         0.053758103335;
  BAS[ATNO][  8].a[  5] =         9.269948777000;     BAS[ATNO][  8].d[  5] =        -0.165136419382;
  BAS[ATNO][  8].a[  6] =         3.836461771900;     BAS[ATNO][  8].d[  6] =        -0.277829107354;
  BAS[ATNO][  8].a[  7] =         1.646716331200;     BAS[ATNO][  8].d[  7] =        -0.110947519300;
  BAS[ATNO][  8].a[  8] =         0.614796864900;     BAS[ATNO][  8].d[  8] =         1.391558788469;
  BAS[ATNO][  8].a[  9] =         0.183194674100;     BAS[ATNO][  8].d[  9] =        -1.206303819020;

  // Basis function  10 L = d
  InitBFNGauss(BAS[ATNO][  9]);
  BAS[ATNO][  9].l  = 2;
  BAS[ATNO][  9].ng = 6;
  BAS[ATNO][  9].a[  0] =       115.558686030000;     BAS[ATNO][  9].d[  0] =         0.021961345332;
  BAS[ATNO][  9].a[  1] =        33.477985864000;     BAS[ATNO][  9].d[  1] =         0.132207606413;
  BAS[ATNO][  9].a[  2] =        11.834450207000;     BAS[ATNO][  9].d[  2] =         0.363595650898;
  BAS[ATNO][  9].a[  3] =         4.340825489400;     BAS[ATNO][  9].d[  3] =         0.493361139764;
  BAS[ATNO][  9].a[  4] =         1.507927315700;     BAS[ATNO][  9].d[  4] =         0.260288976085;
  BAS[ATNO][  9].a[  5] =         0.443000000000;     BAS[ATNO][  9].d[  5] =         0.015538240366;

  // Basis function  11 L = d
  InitBFNGauss(BAS[ATNO][ 10]);
  BAS[ATNO][ 10].l  = 2;
  BAS[ATNO][ 10].ng = 6;
  BAS[ATNO][ 10].a[  0] =       115.558686030000;     BAS[ATNO][ 10].d[  0] =        -0.006032092535;
  BAS[ATNO][ 10].a[  1] =        33.477985864000;     BAS[ATNO][ 10].d[  1] =        -0.036313281528;
  BAS[ATNO][ 10].a[  2] =        11.834450207000;     BAS[ATNO][ 10].d[  2] =        -0.099868317653;
  BAS[ATNO][ 10].a[  3] =         4.340825489400;     BAS[ATNO][ 10].d[  3] =        -0.135510826112;
  BAS[ATNO][ 10].a[  4] =         1.507927315700;     BAS[ATNO][ 10].d[  4] =        -0.024519817162;
  BAS[ATNO][ 10].a[  5] =         0.443000000000;     BAS[ATNO][ 10].d[  5] =         1.006719910916;

  // Basis function  12 L = d
  InitBFNGauss(BAS[ATNO][ 11]);
  BAS[ATNO][ 11].l  = 2;
  BAS[ATNO][ 11].ng = 6;
  BAS[ATNO][ 11].a[  0] =       115.558686030000;     BAS[ATNO][ 11].d[  0] =        -0.018898985543;
  BAS[ATNO][ 11].a[  1] =        33.477985864000;     BAS[ATNO][ 11].d[  1] =        -0.113772157602;
  BAS[ATNO][ 11].a[  2] =        11.834450207000;     BAS[ATNO][ 11].d[  2] =        -0.312894717782;
  BAS[ATNO][ 11].a[  3] =         4.340825489400;     BAS[ATNO][ 11].d[  3] =        -0.424565294469;
  BAS[ATNO][ 11].a[  4] =         1.507927315700;     BAS[ATNO][ 11].d[  4] =         1.327292244689;
  BAS[ATNO][ 11].a[  5] =         0.443000000000;     BAS[ATNO][ 11].d[  5] =        -0.670477478154;

-------------------------------------------
RADIAL EXPECTATION VALUES <R**-3> TO <R**3>
-------------------------------------------
   0 :     0.000000  2520.670489    35.484635     0.042435     0.002414     0.000179
   1 :     0.000000   259.175882     7.930164     0.187262     0.041292     0.010386
   2 :     0.000000    42.081627     2.625615     0.538669     0.332463     0.228106
   3 :     0.000000     5.109028     0.811794     1.631287     3.049844     6.406591
   4 :     0.000000     3.725112     0.565871     2.665279     8.234935    27.535516
   5 :  1365.436233    83.948547     7.861496     0.161875     0.032009     0.007567
   6 :  1365.436233    83.948547     7.861496     0.161875     0.032009     0.007567
   7 :  1365.436233    83.948547     7.861496     0.161875     0.032009     0.007567
   8 :   209.266725    13.898414     2.528053     0.542638     0.343562     0.245589
   9 :   209.266725    13.898414     2.528053     0.542638     0.343562     0.245589
  10 :   209.266725    13.898414     2.528053     0.542638     0.343562     0.245589
  11 :    15.427246     1.256151     0.670590     1.937652     4.348264    11.049087
  12 :    15.427246     1.256151     0.670590     1.937652     4.348264    11.049087
  13 :    15.427246     1.256151     0.670590     1.937652     4.348264    11.049087
  14 :    23.767256     1.705063     0.668450     2.361531     6.825115    22.002687
  15 :    23.767256     1.705063     0.668450     2.361531     6.825115    22.002687
  16 :    23.767256     1.705063     0.668450     2.361531     6.825115    22.002687
  17 :    26.512161     6.700870     2.276408     0.551396     0.372592     1.511134
  18 :    26.512161     6.700870     2.276408     0.551396     0.372592     1.511134
  19 :    26.512161     6.700870     2.276408     0.551396     0.372592     1.511134
  20 :    26.512161     6.700870     2.276408     0.551396     0.372592     1.511134
  21 :    26.512161     6.700870     2.276408     0.551396     0.372592     1.511134
  22 :     1.915114     0.692159     0.633692     1.902081     3.941240    43.438527
  23 :     1.915114     0.692159     0.633692     1.902081     3.941240    43.438527
  24 :     1.915114     0.692159     0.633692     1.902081     3.941240    43.438527
  25 :     1.915114     0.692159     0.633692     1.902081     3.941240    43.438527
  26 :     1.915114     0.692159     0.633692     1.902081     3.941240    43.438527
  27 :    14.692221     3.467565     1.372646     1.164489     1.829989    17.676059
  28 :    14.692221     3.467565     1.372646     1.164489     1.829989    17.676059
  29 :    14.692221     3.467565     1.372646     1.164489     1.829989    17.676059
  30 :    14.692221     3.467565     1.372646     1.164489     1.829989    17.676059
  31 :    14.692221     3.467565     1.372646     1.164489     1.829989    17.676059
-------
TIMINGS
-------

Total SCF time: 0 days 0 hours 0 min 1 sec 

Total time                  ....       1.754 sec
Sum of individual times     ....       1.404 sec  ( 80.1%)

Fock matrix formation       ....       0.918 sec  ( 52.4%)
Diagonalization             ....       0.020 sec  (  1.1%)
Density matrix formation    ....       0.001 sec  (  0.1%)
Population analysis         ....       0.122 sec  (  7.0%)
Initial guess               ....       0.145 sec  (  8.3%)
Orbital Transformation      ....       0.000 sec  (  0.0%)
Orbital Orthonormalization  ....       0.000 sec  (  0.0%)
DIIS solution               ....       0.032 sec  (  1.8%)
SOSCF solution              ....       0.017 sec  (  1.0%)


           ************************************************************
           *        Program running with 24 parallel MPI-processes    *
           *              working on a common directory               *
           ************************************************************


------------------------------------------------------------------------------- 
                              ORCA-MATRIX DRIVEN CI                            
------------------------------------------------------------------------------- 

--------------------------------
AUTOMATIC CHOICE OF INCORE LEVEL
--------------------------------

Memory available                           ...   2500.00 MB
Memory needed for S+T                      ...      0.20 MB
Memory needed for J+K                      ...      0.41 MB
Memory needed for DIIS                     ...      2.83 MB
Memory needed for 3-ext                    ...      0.19 MB
Memory needed for 4-ext                    ...      0.16 MB
Memory needed for triples                  ...      0.10 MB
 -> Final InCoreLevel    ... 5
 -> check shows that triples correction can be computed


Wavefunction type
-----------------
Correlation treatment                      ...      CCSD     
Single excitations                         ... ON
Orbital optimization                       ... OFF
Calculation of Z vector                    ... OFF
Calculation of Brueckner orbitals          ... OFF
Perturbative triple excitations            ... ON
Calculation of F12 correction              ... OFF
Frozen core treatment                      ... chemical core (18 el)
Reference Wavefunction                     ... RHF
  Internal Orbitals:     9 ...   17 (  9 MO's/ 18 electrons)
  Virtual  Orbitals:    18 ...   31 ( 14 MO's              )
Number of AO's                             ...     32
Number of electrons                        ...     36
Number of correlated electrons             ...     18

Algorithmic settings
--------------------
Integral transformation                    ... AO direct full transformation
K(C) Formation                             ... FULL-MO TRAFO
Maximum number of iterations               ...        50
Convergence tolerance (max. residuum)      ... 1.000e-05
Level shift for amplitude update           ... 2.000e-01
Maximum number of DIIS vectors             ...         7
DIIS turned on at iteration                ...         0
Damping before turning on DIIS             ...     0.500
Damping after turning on DIIS              ...     0.000
Pair specific amplitude update             ... OFF
Natural orbital iterations                 ... OFF
Perturbative natural orbital generation    ... OFF
Printlevel                                 ... 2

Memory handling:
----------------
Maximum memory for working arrays          ...   2500 MB
Data storage in matrix containers          ... UNCOMPRESSED
Data type for integral storage             ... DOUBLE
In-Core Storage of quantities:
   Amplitudes+Sigma Vector      ... YES
   J+K operators                ... YES
   DIIS vectors                 ... YES
   3-external integrals         ... YES
   4-external integrals         ... YES


Initializing the integral package          ... done
Warning: reference  - re-canonicalizations have been set to INT 1 VIRT 1

--------------------------
CLOSED-SHELL FOCK OPERATOR
--------------------------

<ss|ss>:          120 b            0 skpd (  0.0%)    0.000 s ( 0.002 ms/b)
<ss|sp>:          300 b            0 skpd (  0.0%)    0.000 s ( 0.001 ms/b)
<ss|sd>:          225 b            0 skpd (  0.0%)    0.000 s ( 0.001 ms/b)
<ss|pp>:          150 b            0 skpd (  0.0%)    0.000 s ( 0.003 ms/b)
<ss|pd>:          180 b            0 skpd (  0.0%)    0.000 s ( 0.002 ms/b)
<ss|dd>:           90 b            0 skpd (  0.0%)    0.001 s ( 0.009 ms/b)
<sp|sp>:          210 b            0 skpd (  0.0%)    0.000 s ( 0.002 ms/b)
<sp|sd>:          300 b            0 skpd (  0.0%)    0.000 s ( 0.002 ms/b)
<sp|pp>:          200 b            0 skpd (  0.0%)    0.001 s ( 0.005 ms/b)
<sp|pd>:          240 b            0 skpd (  0.0%)    0.001 s ( 0.003 ms/b)
<sp|dd>:          120 b            0 skpd (  0.0%)    0.002 s ( 0.016 ms/b)
<sd|sd>:          120 b            0 skpd (  0.0%)    0.001 s ( 0.004 ms/b)
<sd|pp>:          150 b            0 skpd (  0.0%)    0.001 s ( 0.008 ms/b)
<sd|pd>:          180 b            0 skpd (  0.0%)    0.001 s ( 0.006 ms/b)
<sd|dd>:           90 b            0 skpd (  0.0%)    0.003 s ( 0.028 ms/b)
<pp|pp>:           55 b            0 skpd (  0.0%)    0.001 s ( 0.019 ms/b)
<pp|pd>:          120 b            0 skpd (  0.0%)    0.001 s ( 0.008 ms/b)
<pp|dd>:           60 b            0 skpd (  0.0%)    0.002 s ( 0.036 ms/b)
<pd|pd>:           78 b            0 skpd (  0.0%)    0.002 s ( 0.024 ms/b)
<pd|dd>:           72 b            0 skpd (  0.0%)    0.004 s ( 0.059 ms/b)
<dd|dd>:           21 b            0 skpd (  0.0%)    0.004 s ( 0.182 ms/b)
Recanonicalizing the internal orbitals
Recanonicalizing the virtual orbitals
Time needed for Fock operator              ...            0.145 sec
Reference energy                           ...  -2751.669878604
<ss|**>: 
------------------------------
PARTIAL COULOMB TRANSFORMATION
------------------------------

Transformation type                        ... one-operator
Dimension of the basis                     ...   32
Number of internal MOs                     ...   23 (9-31)
Pair cutoff                                ... 0.000e+00 Eh
Number of AO pairs included in the trafo   ...  528
Total Number of distinct AO pairs          ...  528
Memory devoted for trafo                   ... 2500.0 MB 
Max. Number of MO pairs treated together   ... 620606      
Max. Number of MOs treated per batch       ... 19393      
Number Format for Storage                  ... Double (8 Byte)
AO-integral source                         ... DIRECT
Integral package used                      ... LIBINT

Starting integral evaluation:
<sp|**>:         1170 b        0 skpd     0.001 s (  0.001 ms/b)
<sd|**>:         1560 b        0 skpd     0.010 s (  0.006 ms/b)
<pp|**>:         1170 b        0 skpd     0.009 s (  0.008 ms/b)
<pd|**>:          780 b        0 skpd     0.008 s (  0.010 ms/b)
<dd|**>:          936 b        0 skpd     0.015 s (  0.016 ms/b)
         468 b        0 skpd     0.016 s (  0.034 ms/b)
Closing buffer AOJ ( 0.00 GB; CompressionRatio= 0.99)
Collecting buffer AOJ 
    ... done with AO integral generation
Number of MO pairs included in the trafo   ...  276
    ... Now sorting integrals
IBATCH = 1 of  1
Closing buffer JAO ( 0.00 GB; CompressionRatio= 1.00)
Collecting buffer JAO 
TOTAL TIME for half transformation         ...     0.161 sec
AO-integral generation                     ...     0.032 sec
Half transformation                        ...     0.027 sec
J-integral sorting                         ...     0.066 sec

-------------------------- SECOND HALF TRANSFORMATION -------------------------
Formation of (pq|rs)                       ... ok (     0.073 sec)
Integral sorting                           ... ok (     0.061 sec)

------------------
CLOSED SHELL GUESS
------------------

Initial guess performed in     0.002 sec
E(0)                                       ...  -2751.669878604
E(MP2)                                     ...     -0.230572894
Initial E(tot)                             ...  -2751.900451498
<T|T>                                      ...      0.052859253
Number of pairs included                   ... 45
Total number of pairs                      ... 45

------------------------------------------------
                  RHF COUPLED CLUSTER ITERATIONS
------------------------------------------------

Number of amplitudes to be optimized       ... 8946

Iter       E(tot)           E(Corr)          Delta-E          Residual     Time
  0  -2751.900451498     -0.230572894      0.000000000      0.017555848    0.01
                           *** Turning on DIIS ***
  1  -2751.899838170     -0.229959566      0.000613328      0.002250796    0.02
  2  -2751.902386726     -0.232508122     -0.002548556      0.000816289    0.02
  3  -2751.902882319     -0.233003715     -0.000495593      0.000129179    0.02
  4  -2751.902927354     -0.233048750     -0.000045035      0.000032846    0.02
  5  -2751.902927659     -0.233049055     -0.000000305      0.000008718    0.02
               --- The Coupled-Cluster iterations have converged ---

----------------------
COUPLED CLUSTER ENERGY
----------------------

E(0)                                       ...  -2751.669878604
E(CORR)                                    ...     -0.233049055
E(TOT)                                     ...  -2751.902927659
Singles Norm <S|S>**1/2                    ...      0.008332128  
T1 diagnostic                              ...      0.001963901  

------------------
LARGEST AMPLITUDES
------------------
  17-> 22  17-> 22       0.035975
  15-> 21  15-> 21       0.035557
  15-> 19  15-> 19       0.033352
  16-> 21  16-> 21       0.030958
  17-> 23  17-> 23       0.030485
  15-> 23  15-> 23       0.030237
  17-> 20  17-> 20       0.030003
  16-> 22  16-> 22       0.029824
  16-> 20  16-> 20       0.029278
  16-> 19  16-> 19       0.022528
  17-> 25  17-> 25       0.021982
  17-> 19  17-> 19       0.021920
  15-> 20  15-> 20       0.018518
  17-> 22  15-> 21       0.017300
  16-> 23  16-> 23       0.017077
  17-> 20  15-> 23       0.016554


        !!!!!!!!!!!!!!!!!!!!!!!!!!!!!!!!!!!!!!!!!!!!!!!!!!!!!!!!!!!!!!!!!!!!!!!!!! 
        !  Warning: Densities are linearized densities !                         !
        !!!!!!!!!!!!!!!!!!!!!!!!!!!!!!!!!!!!!!!!!!!!!!!!!!!!!!!!!!!!!!!!!!!!!!!!!! 

Trace of internal density part =     -0.117613362
Trace of external density part =      0.117613362
----------------------
RHF TRIPLES CORRECTION (Algorithm 1)
----------------------

Multiplier for the singles contribution    ...      1.000000000

10% done
20% done
30% done
40% done
50% done
60% done
70% done
80% done

Triples Correction (T)                     ...     -0.002914198
Scaling of triples based on CCSD energies (Peterson et al. Molecular Physics 113, 1551 (2015))
E(T*) = f*E(T) where f = E(F12-CCSD)/E(CCSD) 
f = CCSD (with F12)/ CCSD (without F12)    ...      1.000000000
Scaled triples correction (T)              ...     -0.002914198

Final correlation energy                   ...     -0.235963253
E(CCSD)                                    ...  -2751.902927659
E(CCSD(T))                                 ...  -2751.905841857

NORM  =      1.058876105 sqrt=     1.029017058
W(HF) =      0.944397550
------------------------------------------------------------------------------
                           ORCA POPULATION ANALYSIS
------------------------------------------------------------------------------
Input electron density              ... 36_Kr.mdcip
BaseName (.gbw .S,...)              ... 36_Kr

                    ********************************
                    * MULLIKEN POPULATION ANALYSIS *
                    ********************************

-----------------------
MULLIKEN ATOMIC CHARGES
-----------------------
   0 Kr:    0.000000
Sum of atomic charges:    0.0000000

--------------------------------
MULLIKEN REDUCED ORBITAL CHARGES
--------------------------------
  0 Krs       :     7.995750  s :     7.995750
      pz      :     5.975628  p :    17.926885
      px      :     5.975628
      py      :     5.975628
      dz2     :     2.015473  d :    10.077365
      dxz     :     2.015473
      dyz     :     2.015473
      dx2y2   :     2.015473
      dxy     :     2.015473


                     *******************************
                     * LOEWDIN POPULATION ANALYSIS *
                     *******************************

----------------------
LOEWDIN ATOMIC CHARGES
----------------------
   0 Kr:    0.000000

-------------------------------
LOEWDIN REDUCED ORBITAL CHARGES
-------------------------------
  0 Krs       :     7.995750  s :     7.995750
      pz      :     5.975628  p :    17.926885
      px      :     5.975628
      py      :     5.975628
      dz2     :     2.015473  d :    10.077365
      dxz     :     2.015473
      dyz     :     2.015473
      dx2y2   :     2.015473
      dxy     :     2.015473


                      *****************************
                      * MAYER POPULATION ANALYSIS *
                      *****************************

  NA   - Mulliken gross atomic population
  ZA   - Total nuclear charge
  QA   - Mulliken gross atomic charge
  VA   - Mayer's total valence
  BVA  - Mayer's bonded valence
  FA   - Mayer's free valence

  ATOM       NA         ZA         QA         VA         BVA        FA
  0 Kr    36.0000    36.0000     0.0000     0.4653     0.0000     0.4653





------------------------------------------------------------------------------- 
                                     TIMINGS                                   
------------------------------------------------------------------------------- 


Total execution time                   ...        0.780 sec

Fock Matrix Formation                  ...        0.145 sec ( 18.6%)
Initial Guess                          ...        0.002 sec (  0.3%)
DIIS Solver                            ...        0.004 sec (  0.5%)
State Vector Update                    ...        0.000 sec (  0.1%)
Sigma-vector construction              ...        0.125 sec ( 16.0%)
  <D|H|D>(4-ext)                       ...        0.006 sec (  5.1% of sigma)
  <D|H|D>(4-ext-corr)                  ...        0.003 sec (  2.7% of sigma)
  <S|H|D>(3-ext)                       ...        0.006 sec (  4.6% of sigma)
  Fock-dressing                        ...        0.080 sec ( 64.2% of sigma)
  (ij|ab),(ia|jb)-dressing             ...        0.016 sec ( 12.8% of sigma)
Total Time for computing (T)           ...        0.001 sec (  0.1% of ALL)


-------------------------   --------------------
FINAL SINGLE POINT ENERGY     -2751.905841856787
-------------------------   --------------------


                            ***************************************
                            *     ORCA property calculations      *
                            ***************************************

                                    ---------------------
                                    Active property flags
                                    ---------------------
   (+) Dipole Moment


------------------------------------------------------------------------------
                       ORCA ELECTRIC PROPERTIES CALCULATION
------------------------------------------------------------------------------

Dipole Moment Calculation                       ... on
Quadrupole Moment Calculation                   ... off
Polarizability Calculation                      ... off
GBWName                                         ... 36_Kr.gbw
Electron density file                           ... 36_Kr.scfp
The origin for moment calculation is the CENTER OF MASS  = ( 0.000000,  0.000000  0.000000)

-------------
DIPOLE MOMENT
-------------
                                X             Y             Z
Electronic contribution:      0.00000      -0.00000       0.00000
Nuclear contribution   :      0.00000       0.00000       0.00000
                        -----------------------------------------
Total Dipole Moment    :      0.00000      -0.00000       0.00000
                        -----------------------------------------
Magnitude (a.u.)       :      0.00000
Magnitude (Debye)      :      0.00000



--------------------
Rotational spectrum 
--------------------
 
Rotational constants in cm-1:     0.000000     0.000000     0.000000 
Rotational constants in MHz :     0.000000     0.000000     0.000000 

 Dipole components along the rotational axes: 
x,y,z [a.u.] :     0.000000    -0.000000     0.000000 
x,y,z [Debye]:     0.000000    -0.000000     0.000000 

 

                           *** MDCI DENSITY ***

------------------------------------------------------------------------------
                       ORCA ELECTRIC PROPERTIES CALCULATION
------------------------------------------------------------------------------

Dipole Moment Calculation                       ... on
Quadrupole Moment Calculation                   ... off
Polarizability Calculation                      ... off
GBWName                                         ... 36_Kr.gbw
Electron density file                           ... 36_Kr.mdcip
The origin for moment calculation is the CENTER OF MASS  = ( 0.000000,  0.000000  0.000000)

-------------
DIPOLE MOMENT
-------------
                                X             Y             Z
Electronic contribution:     -0.00000      -0.00000       0.00000
Nuclear contribution   :      0.00000       0.00000       0.00000
                        -----------------------------------------
Total Dipole Moment    :     -0.00000      -0.00000       0.00000
                        -----------------------------------------
Magnitude (a.u.)       :      0.00000
Magnitude (Debye)      :      0.00000



--------------------
Rotational spectrum 
--------------------
 
Rotational constants in cm-1:     0.000000     0.000000     0.000000 
Rotational constants in MHz :     0.000000     0.000000     0.000000 

 Dipole components along the rotational axes: 
x,y,z [a.u.] :    -0.000000    -0.000000     0.000000 
x,y,z [Debye]:    -0.000000    -0.000000     0.000000 

 

Timings for individual modules:

Sum of individual times         ...        4.436 sec (=   0.074 min)
GTO integral calculation        ...        1.036 sec (=   0.017 min)  23.3 %
SCF iterations                  ...        2.182 sec (=   0.036 min)  49.2 %
MDCI module                     ...        1.219 sec (=   0.020 min)  27.5 %
                             ****ORCA TERMINATED NORMALLY****
TOTAL RUN TIME: 0 days 0 hours 0 minutes 5 seconds 246 msec
