
                                 *****************
                                 * O   R   C   A *
                                 *****************

           --- An Ab Initio, DFT and Semiempirical electronic structure package ---

                  #######################################################
                  #                        -***-                        #
                  #          Department of theory and spectroscopy      #
                  #               Directorship: Frank Neese             #
                  #        Max Planck Institute fuer Kohlenforschung    #
                  #                Kaiser Wilhelm Platz 1               #
                  #                 D-45470 Muelheim/Ruhr               #
                  #                      Germany                        #
                  #                                                     #
                  #                  All rights reserved                #
                  #                        -***-                        #
                  #######################################################


                         Program Version 4.2.0 -  RELEASE  -


 With contributions from (in alphabetic order):
   Daniel Aravena         : Magnetic Suceptibility
   Michael Atanasov       : Ab Initio Ligand Field Theory (pilot matlab implementation)
   Alexander A. Auer      : GIAO ZORA, VPT2
   Ute Becker             : Parallelization
   Giovanni Bistoni       : ED, misc. LED, open-shell LED, HFLED
   Martin Brehm           : Molecular dynamics
   Dmytro Bykov           : SCF Hessian
   Vijay G. Chilkuri      : MRCI spin determinant printing, contributions to CSF-ICE
   Dipayan Datta          : RHF DLPNO-CCSD density
   Achintya Kumar Dutta   : EOM-CC, STEOM-CC
   Dmitry Ganyushin       : Spin-Orbit,Spin-Spin,Magnetic field MRCI
   Miquel Garcia          : C-PCM Hessian, Gaussian charge scheme
   Yang Guo               : DLPNO-NEVPT2, CIM, IAO-localization
   Andreas Hansen         : Spin unrestricted coupled pair/coupled cluster methods
   Benjamin Helmich-Paris : CASSCF linear response (MC-RPA)
   Lee Huntington         : MR-EOM, pCC
   Robert Izsak           : Overlap fitted RIJCOSX, COSX-SCS-MP3, EOM
   Christian Kollmar      : KDIIS, OOCD, Brueckner-CCSD(T), CCSD density
   Simone Kossmann        : Meta GGA functionals, TD-DFT gradient, OOMP2, MP2 Hessian
   Martin Krupicka        : AUTO-CI
   Lucas Lang             : DCDCAS
   Dagmar Lenk            : GEPOL surface, SMD
   Dimitrios Liakos       : Extrapolation schemes; Compound Job, initial MDCI parallelization
   Dimitrios Manganas     : Further ROCIS development; embedding schemes
   Dimitrios Pantazis     : SARC Basis sets
   Taras Petrenko         : DFT Hessian,TD-DFT gradient, ASA, ECA, R-Raman, ABS, FL, XAS/XES, NRVS
   Peter Pinski           : DLPNO-MP2, DLPNO-MP2 Gradient
   Christoph Reimann      : Effective Core Potentials
   Marius Retegan         : Local ZFS, SOC
   Christoph Riplinger    : Optimizer, TS searches, QM/MM, DLPNO-CCSD(T), (RO)-DLPNO pert. Triples
   Tobias Risthaus        : Range-separated hybrids, TD-DFT gradient, RPA, STAB
   Michael Roemelt        : Original ROCIS implementation
   Masaaki Saitow         : Open-shell DLPNO-CCSD energy and density
   Barbara Sandhoefer     : DKH picture change effects
   Avijit Sen             : IP-ROCIS
   Kantharuban Sivalingam : CASSCF convergence, NEVPT2, FIC-MRCI
   Bernardo de Souza      : ESD, SOC TD-DFT
   Georgi Stoychev        : AutoAux, RI-MP2 NMR
   Willem Van den Heuvel  : Paramagnetic NMR
   Boris Wezisla          : Elementary symmetry handling
   Frank Wennmohs         : Technical directorship


 We gratefully acknowledge several colleagues who have allowed us to
 interface, adapt or use parts of their codes:
   Stefan Grimme, W. Hujo, H. Kruse,             : VdW corrections, initial TS optimization,
                  C. Bannwarth                     DFT functionals, gCP, sTDA/sTD-DF
   Ed Valeev, F. Pavosevic, A. Kumar             : LibInt (2-el integral package), F12 methods
   Garnet Chan, S. Sharma, J. Yang, R. Olivares  : DMRG
   Ulf Ekstrom                                   : XCFun DFT Library
   Mihaly Kallay                                 : mrcc  (arbitrary order and MRCC methods)
   Andreas Klamt, Michael Diedenhofen            : otool_cosmo (COSMO solvation model)
   Jiri Pittner, Ondrej Demel                    : Mk-CCSD
   Frank Weinhold                                : gennbo (NPA and NBO analysis)
   Christopher J. Cramer and Donald G. Truhlar   : smd solvation model
   Lars Goerigk                                  : TD-DFT with DH, B97 family of functionals
   V. Asgeirsson, H. Jonsson                     : NEB implementation
   FAccTs GmbH                                   : IRC, NEB, NEB-TS, Multilevel, MM, QM/MM, CI optimization
   S Lehtola, MJT Oliveira, MAL Marques          : LibXC Library


 Your calculation uses the libint2 library for the computation of 2-el integrals
 For citations please refer to: http://libint.valeyev.net

 Your ORCA version has been built with support for libXC version: 4.2.3
 For citations please refer to: https://tddft.org/programs/libxc/

 This ORCA versions uses:
   CBLAS   interface :  Fast vector & matrix operations
   LAPACKE interface :  Fast linear algebra routines
   SCALAPACK package :  Parallel linear algebra routines


----- Orbital basis set information -----
Your calculation utilizes the basis: def2-SVP
   F. Weigend and R. Ahlrichs, Phys. Chem. Chem. Phys. 7, 3297 (2005).

cite the ECPs for Zr [Def2-ECP] as follows:
Ce-Yb(ecp-28): M. Dolg, H. Stoll, H.Preuss, J. Chem. Phys., 1989, 90, 1730-1734.
Y-Cd(ecp-28), Hf-Hg(ecp-46): D. Andrae,U. Haeussermann, M. Dolg, H. Stoll, H. Preuss, Theor. Chim. Acta, 1990, 77, 123-141.
In-Sb(ecp-28), Tl-Bi(ecp-46): B. Metz, H. Stoll, M. Dolg, J. Chem. Phys., 2000, 113, 2563-2569.
Te-Xe(ecp-28), Po-Rn(ecp-46): K. A. Peterson, D. Figgen, E. Goll, H. Stoll, M. Dolg, J. Chem. Phys., 2003, 119, 11113-11123.
Rb(ecp-28), Cs(ecp-46): T. Leininger, A. Nicklass, W. Kuechle, H. Stoll, M. Dolg, A. Bergner, Chem. Phys. Lett., 1996, 255, 274-280.
Sr(ecp-28), Ba(ecp-46): M. Kaupp, P. V. Schleyer, H. Stoll and H. Preuss, J. Chem. Phys., 1991, 94, 1360-1366.
La(ecp-46): M. Dolg, H. Stoll, A. Savin, H. Preuss, Theor. Chim. Acta, 1989, 75, 173-194.
Lu(ecp-28): X. Cao, M. Dolg, J. Chem. Phys., 2001, 115, 7348-7355.

ECP parameters for Zr [Def2-ECP] have been obtained from:
TURBOMOLE (7.0.2)

================================================================================
                                        WARNINGS
                       Please study these warnings very carefully!
================================================================================


WARNING: your system is open-shell and RHF/RKS was chosen
  ===> : WILL SWITCH to UHF/UKS


WARNING: MDCI localization with Augmented Hessian Foster-Boys
  ===> : Switching off randomization!

WARNING: Post HF methods need fully converged wavefunctions
  ===> : Setting SCFConvForced true
         You can overwrite this default with %scf ConvForced false 


INFO   : the flag for use of LIBINT has been found!

================================================================================
                                       INPUT FILE
================================================================================
NAME = 40_Zr.in
|  1> #
|  2> # 40_Zr CCSD(T)/Def2-SVP
|  3> #
|  4> ! CCSD(T) Def2-SVP tightscf
|  5> 
|  6> *xyz 0 3
|  7>  Zr 0.0 0.0 0.0
|  8> *
|  9> 
| 10> %maxcore 5000 
| 11> 
| 12> %pal
| 13> nprocs 24
| 14> end
| 15> 
| 16> 
| 17>                          ****END OF INPUT****
================================================================================

                       ****************************
                       * Single Point Calculation *
                       ****************************

---------------------------------
CARTESIAN COORDINATES (ANGSTROEM)
---------------------------------
  Zr     0.000000    0.000000    0.000000

----------------------------
CARTESIAN COORDINATES (A.U.)
----------------------------
  NO LB      ZA    FRAG     MASS         X           Y           Z
   0 Zr   12.0000*   0    91.220    0.000000    0.000000    0.000000
* core charge reduced due to ECP

--------------------------------
INTERNAL COORDINATES (ANGSTROEM)
--------------------------------
 Zr     0   0   0     0.000000000000     0.00000000     0.00000000

---------------------------
INTERNAL COORDINATES (A.U.)
---------------------------
 Zr     0   0   0     0.000000000000     0.00000000     0.00000000

---------------------
BASIS SET INFORMATION
---------------------
There are 1 groups of distinct atoms

 Group   1 Type Zr  : 7s6p5d1f contracted to 5s3p2d1f pattern {31111/411/41/1}

Atom   0Zr   basis set group =>   1
-------------------------
ECP PARAMETER INFORMATION
-------------------------

 Group 1, Type Zr ECP Def2-ECP (replacing 28 core electrons, lmax=3)

Atom   0Zr   ECP group =>   1



           ************************************************************
           *        Program running with 24 parallel MPI-processes    *
           *              working on a common directory               *
           ************************************************************
------------------------------------------------------------------------------
                           ORCA GTO INTEGRAL CALCULATION
------------------------------------------------------------------------------

                         BASIS SET STATISTICS AND STARTUP INFO

 # of primitive gaussian shells          ...   19
 # of primitive gaussian functions       ...   57
 # of contracted shells                  ...   11
 # of contracted basis functions         ...   31
 Highest angular momentum                ...    3
 Maximum contraction depth               ...    4
 Integral package used                   ... LIBINT
 Integral threshhold            Thresh   ...  2.500e-11
 Primitive cut-off              TCut     ...  2.500e-12


------------------------------ INTEGRAL EVALUATION ----------------------------


 * One electron integrals 

   ECP integrals                         ... done
 Pre-screening matrix                    ... done
 Shell pair data                         ... done (   0.000 sec)



           ************************************************************
           *        Program running with 24 parallel MPI-processes    *
           *              working on a common directory               *
           ************************************************************
-------------------------------------------------------------------------------
                                 ORCA SCF
-------------------------------------------------------------------------------

------------
SCF SETTINGS
------------
Hamiltonian:
 Ab initio Hamiltonian  Method          .... Hartree-Fock(GTOs)


General Settings:
 Integral files         IntName         .... 40_Zr
 Hartree-Fock type      HFTyp           .... UHF
 Total Charge           Charge          ....    0
 Multiplicity           Mult            ....    3
 Number of Electrons    NEL             ....   12
 Basis Dimension        Dim             ....   31
 Nuclear Repulsion      ENuc            ....      0.0000000000 Eh

Convergence Acceleration:
 DIIS                   CNVDIIS         .... on
   Start iteration      DIISMaxIt       ....    12
   Startup error        DIISStart       ....  0.200000
   # of expansion vecs  DIISMaxEq       ....     5
   Bias factor          DIISBfac        ....   1.050
   Max. coefficient     DIISMaxC        ....  10.000
 Newton-Raphson         CNVNR           .... off
 SOSCF                  CNVSOSCF        .... off
 Level Shifting         CNVShift        .... on
   Level shift para.    LevelShift      ....    0.2500
   Turn off err/grad.   ShiftErr        ....    0.0010
 Zerner damping         CNVZerner       .... off
 Static damping         CNVDamp         .... on
   Fraction old density DampFac         ....    0.7000
   Max. Damping (<1)    DampMax         ....    0.9800
   Min. Damping (>=0)   DampMin         ....    0.0000
   Turn off err/grad.   DampErr         ....    0.1000
 Fernandez-Rico         CNVRico         .... off

SCF Procedure:
 Maximum # iterations   MaxIter         ....   125
 SCF integral mode      SCFMode         .... Direct
   Integral package                     .... LIBINT
 Reset frequency        DirectResetFreq ....    20
 Integral Threshold     Thresh          ....  2.500e-11 Eh
 Primitive CutOff       TCut            ....  2.500e-12 Eh

Convergence Tolerance:
 Convergence Check Mode ConvCheckMode   .... Total+1el-Energy
 Convergence forced     ConvForced      .... 1
 Energy Change          TolE            ....  1.000e-08 Eh
 1-El. energy change                    ....  1.000e-05 Eh
 DIIS Error             TolErr          ....  5.000e-07


Diagonalization of the overlap matrix:
Smallest eigenvalue                        ... 2.348e-02
Time for diagonalization                   ...    0.001 sec
Threshold for overlap eigenvalues          ... 1.000e-08
Number of eigenvalues below threshold      ... 0
Time for construction of square roots      ...    0.011 sec
Total time needed                          ...    0.011 sec

-------------------
DFT GRID GENERATION
-------------------

General Integration Accuracy     IntAcc      ...  4.340
Radial Grid Type                 RadialGrid  ... Gauss-Chebyshev
Angular Grid (max. acc.)         AngularGrid ... Lebedev-110
Angular grid pruning method      GridPruning ... 3 (G Style)
Weight generation scheme         WeightScheme... Becke
Basis function cutoff            BFCut       ...    1.0000e-11
Integration weight cutoff        WCut        ...    1.0000e-14
Grids for H and He will be reduced by one unit

# of grid points (after initial pruning)     ...   3280 (   0.0 sec)
# of grid points (after weights+screening)   ...   3280 (   0.0 sec)
Grid point division into batches done        ...    0.0 sec
Reduced shell lists constructed in    0.0 sec

Total number of grid points                  ...     3280
Total number of batches                      ...       52
Average number of points per batch           ...       63
Average number of grid points per atom       ...     3280
Average number of shells per batch           ...     4.00 (36.36%)
Average number of basis functions per batch  ...    11.00 (35.48%)
Average number of large shells per batch     ...     3.25 (81.25%)
Average number of large basis fcns per batch ...     8.25 (75.00%)
Maximum spatial batch extension              ...  23.83, 37.49, 37.49 au
Average spatial batch extension              ...   1.37,  1.91,  2.16 au

Time for grid setup =    0.062 sec

------------------------------
INITIAL GUESS: MODEL POTENTIAL
------------------------------
Loading Hartree-Fock densities                     ... done
  calling /sw/apps/orca/orca_4_2_0_linux_x86-64_openmpi314/orca 40_Zr_atom40.inp > 40_Zr_atom40.out in order to generate an atomic fitting density for atom 0 (Zr with ECP) on-the-fly... 
    atom 0 (Zr), assumed electronic state with S=3: 1s2 2s2 2p6 3s2 3p6 4s2 3d10 4p6 4d2 5s2           ... done
Calculating cut-offs                               ... done
Setting up the integral package                    ... done
Initializing the effective Hamiltonian             ... done
Starting the Coulomb interaction                   ... done (   0.0 sec)
Reading the grid                                   ... done
Mapping shells                                     ... done
Starting the XC term evaluation                    ... done (   0.0 sec)
Transforming the Hamiltonian                       ... done (   0.0 sec)
Diagonalizing the Hamiltonian                      ... done (   0.0 sec)
Back transforming the eigenvectors                 ... done (   0.0 sec)
Now organizing SCF variables                       ... done
                      ------------------
                      INITIAL GUESS DONE (   1.5 sec)
                      ------------------
--------------
SCF ITERATIONS
--------------
ITER       Energy         Delta-E        Max-DP      RMS-DP      [F,P]     Damp
               ***  Starting incremental Fock matrix formation  ***
  0    -46.3948467277   0.000000000000 0.06694655  0.00278063  0.3576153 0.7000
  1    -46.4008185695  -0.005971841849 0.05489425  0.00243435  0.2565461 0.7000
                               ***Turning on DIIS***
  2    -46.4059469732  -0.005128403633 0.04165574  0.00198816  0.1833211 0.7000
  3    -46.4070164900  -0.001069516821 0.03537504  0.00186934  0.1311902 0.7000
  4    -46.4075830020  -0.000566512043 0.12183653  0.00561418  0.0929795 0.0000
  5    -46.4246965584  -0.017113556328 0.03696910  0.00137202  0.0119010 0.0000
  6    -46.4249951451  -0.000298586742 0.03594646  0.00139406  0.0114783 0.0000
  7    -46.4270965074  -0.002101362281 0.02563460  0.00109752  0.0107915 0.0000
  8    -46.4288647421  -0.001768234735 0.02653463  0.00089444  0.0099679 0.0000
  9    -46.4310493992  -0.002184657093 0.03678221  0.00109985  0.0090211 0.0000
 10    -46.4317700830  -0.000720683815 0.04041230  0.00125324  0.0075873 0.0000
 11    -46.4313573763   0.000412706679 0.02862516  0.00097888  0.0058141 0.0000
 12    -46.4313544400   0.000002936371 0.03518146  0.00134586  0.0044099 0.0000
 13    -46.4302973739   0.001057066086 0.01892960  0.00073080  0.0033057 0.0000
 14    -46.4330650769  -0.002767703002 0.02018197  0.00077638  0.0023618 0.0000
 15    -46.4318959024   0.001169174503 0.01437227  0.00054749  0.0016445 0.0000
 16    -46.4320136057  -0.000117703365 0.01161870  0.00052482  0.0009451 0.0000
 17    -46.4316860603   0.000327545423 0.00280340  0.00016102  0.0002729 0.0000
 18    -46.4317359651  -0.000049904801 0.00214058  0.00013382  0.0001164 0.0000
 19    -46.4317075902   0.000028374879 0.00128690  0.00008355  0.0001181 0.0000
               *** Restarting incremental Fock matrix formation ***
                                   *** Resetting DIIS ***
 20    -46.4316508807   0.000056709505 0.00109780  0.00005947  0.0001186 0.0000
 21    -46.4314310776   0.000219803156 0.00086075  0.00004619  0.0001494 0.0000
 22    -46.4314778540  -0.000046776406 0.00038556  0.00002067  0.0001280 0.0000
 23    -46.4314632312   0.000014622746 0.00050718  0.00002734  0.0001206 0.0000
 24    -46.4314589534   0.000004277891 0.00051726  0.00002815  0.0001121 0.0000
 25    -46.4314668740  -0.000007920693 0.00043139  0.00002512  0.0001052 0.0000
 26    -46.4316341849  -0.000167310847 0.00115862  0.00006192  0.0001070 0.0000
 27    -46.4316078156   0.000026369285 0.00104524  0.00006204  0.0001340 0.0000
 28    -46.4314551901   0.000152625549 0.00043046  0.00002427  0.0001293 0.0000
 29    -46.4315341380  -0.000078947963 0.00034850  0.00001952  0.0001279 0.0000
 30    -46.4316041974  -0.000070059343 0.00085796  0.00004747  0.0001315 0.0000
 31    -46.4315579134   0.000046283947 0.00018805  0.00000716  0.0001419 0.0000
 32    -46.4314317942   0.000126119204 0.00130086  0.00006976  0.0001524 0.0000
 33    -46.4315206890  -0.000088894778 0.00031059  0.00001772  0.0001255 0.0000
 34    -46.4315311277  -0.000010438682 0.00010112  0.00000586  0.0001256 0.0000
 35    -46.4315104048   0.000020722917 0.00018486  0.00001129  0.0001263 0.0000
 36    -46.4314927880   0.000017616755 0.00029413  0.00001812  0.0001283 0.0000
 37    -46.4318594240  -0.000366636023 0.00311381  0.00017601  0.0001308 0.0000
 38    -46.4315210734   0.000338350666 0.00055953  0.00002939  0.0001474 0.0000
 39    -46.4315925609  -0.000071487583 0.00065453  0.00003962  0.0001599 0.0000
               *** Restarting incremental Fock matrix formation ***
                                   *** Resetting DIIS ***
 40    -46.4316633699  -0.000070808974 0.00091581  0.00004925  0.0001498 0.0000
 41    -46.4315600702   0.000103299735 0.00044875  0.00002417  0.0001717 0.0000
 42    -46.4315812107  -0.000021140513 0.00017331  0.00000942  0.0001625 0.0000
 43    -46.4315687685   0.000012442212 0.00028671  0.00001565  0.0001596 0.0000
 44    -46.4315471742   0.000021594276 0.00048287  0.00002652  0.0001553 0.0000
 45    -46.4315390479   0.000008126326 0.00036836  0.00002236  0.0001489 0.0000
 46    -46.4316519700  -0.000112922078 0.00089919  0.00004836  0.0001516 0.0000
 47    -46.4316224611   0.000029508898 0.00060676  0.00003710  0.0001692 0.0000
 48    -46.4314917009   0.000130760113 0.00078970  0.00004542  0.0001654 0.0000
 49    -46.4315868622  -0.000095161206 0.00027518  0.00001537  0.0001620 0.0000
 50    -46.4316516994  -0.000064837202 0.00088224  0.00004912  0.0001652 0.0000
 51    -46.4315290659   0.000122633423 0.00064988  0.00003893  0.0001753 0.0000
 52    -46.4316110154  -0.000081949508 0.00025581  0.00001543  0.0001761 0.0000
 53    -46.4316090535   0.000001961975 0.00022205  0.00001193  0.0001755 0.0000
 54    -46.4316676852  -0.000058631770 0.00081623  0.00004709  0.0001804 0.0000
 55    -46.4315724318   0.000095253402 0.00040235  0.00002355  0.0001844 0.0000
 56    -46.4316408399  -0.000068408042 0.00049768  0.00003003  0.0001911 0.0000
 57    -46.4315499970   0.000090842832 0.00060372  0.00003529  0.0001904 0.0000
 58    -46.4316757515  -0.000125754436 0.00089349  0.00005030  0.0001885 0.0000
 59    -46.4315887705   0.000086981011 0.00026227  0.00001459  0.0001969 0.0000
               *** Restarting incremental Fock matrix formation ***
                                   *** Resetting DIIS ***
 60    -46.4316707874  -0.000082016926 0.00077211  0.00004184  0.0001939 0.0000
 61    -46.4316221790   0.000048608396 0.00006473  0.00000355  0.0002066 0.0000
 62    -46.4316146773   0.000007501679 0.00003860  0.00000212  0.0002075 0.0000
 63    -46.4316172415  -0.000002564153 0.00000102  0.00000006  0.0002069 0.0000
                 **** Energy Check signals convergence ****

               *****************************************************
               *                     SUCCESS                       *
               *           SCF CONVERGED AFTER  64 CYCLES          *
               *****************************************************


----------------
TOTAL SCF ENERGY
----------------

Total Energy       :          -46.43161723 Eh           -1263.46854 eV

Components:
Nuclear Repulsion  :            0.00000000 Eh               0.00000 eV
Electronic Energy  :          -46.43161723 Eh           -1263.46854 eV
One Electron Energy:          -77.69346958 Eh           -2114.14679 eV
Two Electron Energy:           31.26185235 Eh             850.67825 eV

Virial components:
Potential Energy   :          -61.59753051 Eh           -1676.15402 eV
Kinetic Energy     :           15.16591327 Eh             412.68548 eV
Virial Ratio       :            4.06157739


---------------
SCF CONVERGENCE
---------------

  Last Energy change         ...    8.0413e-09  Tolerance :   1.0000e-08
  Last MAX-Density change    ...    1.0676e-06  Tolerance :   1.0000e-07
  Last RMS-Density change    ...    5.9529e-08  Tolerance :   5.0000e-09
  Last DIIS Error            ...    2.0693e-04  Tolerance :   5.0000e-07

             **** THE GBW FILE WAS UPDATED (40_Zr.gbw) ****
             **** DENSITY FILE WAS UPDATED (40_Zr.scfp) ****
             **** ENERGY FILE WAS UPDATED (40_Zr.en.tmp) ****
----------------------
UHF SPIN CONTAMINATION
----------------------

Expectation value of <S**2>     :     2.016597
Ideal value S*(S+1) for S=1.0   :     2.000000
Deviation                       :     0.016597

             **** THE GBW FILE WAS UPDATED (40_Zr.gbw) ****
             **** DENSITY FILE WAS UPDATED (40_Zr.scfp) ****
----------------
ORBITAL ENERGIES
----------------
                 SPIN UP ORBITALS
  NO   OCC          E(Eh)            E(eV) 
   0   1.0000      -2.569692       -69.9249 
   1   1.0000      -1.560210       -42.4555 
   2   1.0000      -1.559690       -42.4413 
   3   1.0000      -1.559196       -42.4279 
   4   1.0000      -0.322354        -8.7717 
   5   1.0000      -0.322286        -8.7698 
   6   1.0000      -0.231720        -6.3054 
   7   0.0000       0.023719         0.6454 
   8   0.0000       0.024352         0.6626 
   9   0.0000       0.025073         0.6823 
  10   0.0000       0.077422         2.1068 
  11   0.0000       0.077477         2.1083 
  12   0.0000       0.077544         2.1101 
  13   0.0000       0.131950         3.5905 
  14   0.0000       0.290539         7.9060 
  15   0.0000       0.290579         7.9071 
  16   0.0000       0.348591         9.4857 
  17   0.0000       0.348799         9.4913 
  18   0.0000       0.349006         9.4969 
  19   0.0000       0.353716         9.6251 
  20   0.0000       0.354398         9.6437 
  21   0.0000       0.355217         9.6660 
  22   0.0000       1.042622        28.3712 
  23   0.0000       1.043216        28.3873 
  24   0.0000       1.043858        28.4048 
  25   0.0000       1.066760        29.0280 
  26   0.0000       1.067711        29.0539 
  27   0.0000       1.068647        29.0794 
  28   0.0000       1.100819        29.9548 
  29   0.0000       1.439240        39.1637 
  30   0.0000      33.471702       910.8113 

                 SPIN DOWN ORBITALS
  NO   OCC          E(Eh)            E(eV) 
   0   1.0000      -2.492027       -67.8115 
   1   1.0000      -1.452708       -39.5302 
   2   1.0000      -1.451877       -39.5076 
   3   1.0000      -1.450929       -39.4818 
   4   1.0000      -0.197076        -5.3627 
   5   0.0000       0.029202         0.7946 
   6   0.0000       0.030105         0.8192 
   7   0.0000       0.030958         0.8424 
   8   0.0000       0.100781         2.7424 
   9   0.0000       0.101371         2.7584 
  10   0.0000       0.102329         2.7845 
  11   0.0000       0.118468         3.2237 
  12   0.0000       0.118544         3.2258 
  13   0.0000       0.148585         4.0432 
  14   0.0000       0.361885         9.8474 
  15   0.0000       0.362177         9.8553 
  16   0.0000       0.362534         9.8650 
  17   0.0000       0.378115        10.2890 
  18   0.0000       0.378124        10.2893 
  19   0.0000       0.389067        10.5871 
  20   0.0000       0.390489        10.6258 
  21   0.0000       0.391896        10.6640 
  22   0.0000       1.109996        30.2045 
  23   0.0000       1.124024        30.5863 
  24   0.0000       1.125146        30.6168 
  25   0.0000       1.126251        30.6469 
  26   0.0000       1.136921        30.9372 
  27   0.0000       1.137389        30.9499 
  28   0.0000       1.137831        30.9619 
  29   0.0000       1.473929        40.1076 
  30   0.0000      33.475666       910.9192 

                    ********************************
                    * MULLIKEN POPULATION ANALYSIS *
                    ********************************

--------------------------------------------
MULLIKEN ATOMIC CHARGES AND SPIN POPULATIONS
--------------------------------------------
   0 Zr:   -0.000000    2.000000
Sum of atomic charges         :   -0.0000000
Sum of atomic spin populations:    2.0000000

-----------------------------------------------------
MULLIKEN REDUCED ORBITAL CHARGES AND SPIN POPULATIONS
-----------------------------------------------------
CHARGE
  0 Zrs       :     3.999029  s :     3.999029
      pz      :     1.999320  p :     5.997963
      px      :     1.999321
      py      :     1.999321
      dz2     :     0.233912  d :     2.000971
      dxz     :     0.499818
      dyz     :     0.500182
      dx2y2   :     0.000000
      dxy     :     0.767059
      f0      :     0.000050  f :     0.002037
      f+1     :     0.000404
      f-1     :     0.000404
      f+2     :     0.000000
      f-2     :     0.000629
      f+3     :     0.000274
      f-3     :     0.000275

SPIN
  0 Zrs       :     0.000086  s :     0.000086
      pz      :    -0.000622  p :    -0.001880
      px      :    -0.000629
      py      :    -0.000629
      dz2     :     0.233091  d :     1.999914
      dxz     :     0.499818
      dyz     :     0.500182
      dx2y2   :     0.000000
      dxy     :     0.766823
      f0      :     0.000044  f :     0.001880
      f+1     :     0.000375
      f-1     :     0.000375
      f+2     :     0.000000
      f-2     :     0.000578
      f+3     :     0.000254
      f-3     :     0.000254


                     *******************************
                     * LOEWDIN POPULATION ANALYSIS *
                     *******************************

-------------------------------------------
LOEWDIN ATOMIC CHARGES AND SPIN POPULATIONS
-------------------------------------------
   0 Zr:   -0.000000    2.000000

----------------------------------------------------
LOEWDIN REDUCED ORBITAL CHARGES AND SPIN POPULATIONS
----------------------------------------------------
CHARGE
  0 Zrs       :     3.999029  s :     3.999029
      pz      :     1.999320  p :     5.997963
      px      :     1.999321
      py      :     1.999321
      dz2     :     0.233912  d :     2.000971
      dxz     :     0.499818
      dyz     :     0.500182
      dx2y2   :     0.000000
      dxy     :     0.767059
      f0      :     0.000050  f :     0.002037
      f+1     :     0.000404
      f-1     :     0.000404
      f+2     :     0.000000
      f-2     :     0.000629
      f+3     :     0.000274
      f-3     :     0.000275

SPIN
  0 Zrs       :     0.000086  s :     0.000086
      pz      :    -0.000622  p :    -0.001880
      px      :    -0.000629
      py      :    -0.000629
      dz2     :     0.233091  d :     1.999914
      dxz     :     0.499818
      dyz     :     0.500182
      dx2y2   :     0.000000
      dxy     :     0.766823
      f0      :     0.000044  f :     0.001880
      f+1     :     0.000375
      f-1     :     0.000375
      f+2     :     0.000000
      f-2     :     0.000578
      f+3     :     0.000254
      f-3     :     0.000254


                      *****************************
                      * MAYER POPULATION ANALYSIS *
                      *****************************

  NA   - Mulliken gross atomic population
  ZA   - Total nuclear charge
  QA   - Mulliken gross atomic charge
  VA   - Mayer's total valence
  BVA  - Mayer's bonded valence
  FA   - Mayer's free valence

  ATOM       NA         ZA         QA         VA         BVA        FA
  0 Zr    12.0000    12.0000    -0.0000     2.0332     0.0000     2.0332

  Mayer bond orders larger than 0.100000


-------
TIMINGS
-------

Total SCF time: 0 days 0 hours 0 min 22 sec 

Total time                  ....      22.415 sec
Sum of individual times     ....      21.405 sec  ( 95.5%)

Fock matrix formation       ....       8.546 sec  ( 38.1%)
Diagonalization             ....       0.200 sec  (  0.9%)
Density matrix formation    ....       0.006 sec  (  0.0%)
Population analysis         ....       0.151 sec  (  0.7%)
Initial guess               ....       1.444 sec  (  6.4%)
Orbital Transformation      ....       0.000 sec  (  0.0%)
Orbital Orthonormalization  ....       0.000 sec  (  0.0%)
DIIS solution               ....      10.996 sec  ( 49.1%)


           ************************************************************
           *        Program running with 24 parallel MPI-processes    *
           *              working on a common directory               *
           ************************************************************


------------------------------------------------------------------------------- 
                              ORCA-MATRIX DRIVEN CI                            
------------------------------------------------------------------------------- 

--------------------------------
AUTOMATIC CHOICE OF INCORE LEVEL
--------------------------------

Memory available                           ...   2500.00 MB
Memory needed for S+T                      ...      0.37 MB
Memory needed for J+K                      ...      0.75 MB
Memory needed for DIIS                     ...      5.17 MB
Memory needed for 3-ext                    ...      0.74 MB
Memory needed for 4-ext                    ...      1.32 MB
Memory needed for triples                  ...      0.53 MB
 -> Final InCoreLevel    ... 5
 -> check shows that triples correction can be computed


Wavefunction type
-----------------
Correlation treatment                      ...      CCSD     
Single excitations                         ... ON
Orbital optimization                       ... OFF
Calculation of Z vector                    ... OFF
Calculation of Brueckner orbitals          ... OFF
Perturbative triple excitations            ... ON
Calculation of F12 correction              ... OFF
Frozen core treatment                      ... chemical core (0 el)
Reference Wavefunction                     ... UHF
  Alpha-MOs occ    :     0 ...    6 (  7 MO's/  7 electrons)
  Beta-MOs occ     :     0 ...    4 (  5 MO's/  5 electrons)
  Alpha-MOs virt   :     7 ...   30 ( 24 MO's              )
  Beta-MOs virt    :     5 ...   30 ( 26 MO's              )
Number of AO's                             ...     31
Number of electrons                        ...     12
Number of correlated electrons             ...     12

Algorithmic settings
--------------------
Integral transformation                    ... AO direct full transformation
K(C) Formation                             ... FULL-MO TRAFO
Maximum number of iterations               ...        50
Convergence tolerance (max. residuum)      ... 1.000e-05
Level shift for amplitude update           ... 2.000e-01
Maximum number of DIIS vectors             ...         7
DIIS turned on at iteration                ...         0
Damping before turning on DIIS             ...     0.500
Damping after turning on DIIS              ...     0.000
Pair specific amplitude update             ... OFF
Natural orbital iterations                 ... OFF
Perturbative natural orbital generation    ... OFF
Printlevel                                 ... 2

Memory handling:
----------------
Maximum memory for working arrays          ...   2500 MB
Data storage in matrix containers          ... UNCOMPRESSED
Data type for integral storage             ... DOUBLE
In-Core Storage of quantities:
   Amplitudes+Sigma Vector      ... YES
   J+K operators                ... YES
   DIIS vectors                 ... YES
   3-external integrals         ... YES
   4-external integrals         ... YES


Initializing the integral package          ... done
Warning: reference  - re-canonicalizations have been set to INT 1 VIRT 1

--------------------------
UNRESTRICTED FOCK OPERATOR
--------------------------

<ss|ss>:          120 b            0 skpd (  0.0%)    0.000 s ( 0.000 ms/b)
<ss|sp>:          225 b            0 skpd (  0.0%)    0.000 s ( 0.000 ms/b)
<ss|sd>:          150 b            0 skpd (  0.0%)    0.000 s ( 0.000 ms/b)
<ss|sf>:           75 b            0 skpd (  0.0%)    0.000 s ( 0.000 ms/b)
<ss|pp>:           90 b            0 skpd (  0.0%)    0.000 s ( 0.001 ms/b)
<ss|pd>:           90 b            0 skpd (  0.0%)    0.000 s ( 0.001 ms/b)
<ss|pf>:           45 b            0 skpd (  0.0%)    0.000 s ( 0.001 ms/b)
<ss|dd>:           45 b            0 skpd (  0.0%)    0.000 s ( 0.003 ms/b)
<ss|df>:           30 b            0 skpd (  0.0%)    0.000 s ( 0.003 ms/b)
<ss|ff>:           15 b            0 skpd (  0.0%)    0.000 s ( 0.005 ms/b)
<sp|sp>:          120 b            0 skpd (  0.0%)    0.000 s ( 0.001 ms/b)
<sp|sd>:          150 b            0 skpd (  0.0%)    0.000 s ( 0.000 ms/b)
<sp|sf>:           75 b            0 skpd (  0.0%)    0.000 s ( 0.001 ms/b)
<sp|pp>:           90 b            0 skpd (  0.0%)    0.000 s ( 0.002 ms/b)
<sp|pd>:           90 b            0 skpd (  0.0%)    0.000 s ( 0.003 ms/b)
<sp|pf>:           45 b            0 skpd (  0.0%)    0.000 s ( 0.003 ms/b)
<sp|dd>:           45 b            0 skpd (  0.0%)    0.000 s ( 0.010 ms/b)
<sp|df>:           30 b            0 skpd (  0.0%)    0.000 s ( 0.008 ms/b)
<sp|ff>:           15 b            0 skpd (  0.0%)    0.000 s ( 0.014 ms/b)
<sd|sd>:           55 b            0 skpd (  0.0%)    0.000 s ( 0.001 ms/b)
<sd|sf>:           50 b            0 skpd (  0.0%)    0.000 s ( 0.001 ms/b)
<sd|pp>:           60 b            0 skpd (  0.0%)    0.000 s ( 0.004 ms/b)
<sd|pd>:           60 b            0 skpd (  0.0%)    0.000 s ( 0.008 ms/b)
<sd|pf>:           30 b            0 skpd (  0.0%)    0.000 s ( 0.006 ms/b)
<sd|dd>:           30 b            0 skpd (  0.0%)    0.001 s ( 0.027 ms/b)
<sd|df>:           20 b            0 skpd (  0.0%)    0.000 s ( 0.023 ms/b)
<sd|ff>:           10 b            0 skpd (  0.0%)    0.000 s ( 0.031 ms/b)
<sf|sf>:           15 b            0 skpd (  0.0%)    0.000 s ( 0.002 ms/b)
<sf|pp>:           30 b            0 skpd (  0.0%)    0.000 s ( 0.004 ms/b)
<sf|pd>:           30 b            0 skpd (  0.0%)    0.000 s ( 0.007 ms/b)
<sf|pf>:           15 b            0 skpd (  0.0%)    0.000 s ( 0.007 ms/b)
<sf|dd>:           15 b            0 skpd (  0.0%)    0.000 s ( 0.026 ms/b)
<sf|df>:           10 b            0 skpd (  0.0%)    0.000 s ( 0.028 ms/b)
<sf|ff>:            5 b            0 skpd (  0.0%)    0.000 s ( 0.040 ms/b)
<pp|pp>:           21 b            0 skpd (  0.0%)    0.000 s ( 0.010 ms/b)
<pp|pd>:           36 b            0 skpd (  0.0%)    0.000 s ( 0.010 ms/b)
<pp|pf>:           18 b            0 skpd (  0.0%)    0.000 s ( 0.009 ms/b)
<pp|dd>:           18 b            0 skpd (  0.0%)    0.001 s ( 0.036 ms/b)
<pp|df>:           12 b            0 skpd (  0.0%)    0.000 s ( 0.032 ms/b)
<pp|ff>:            6 b            0 skpd (  0.0%)    0.000 s ( 0.043 ms/b)
<pd|pd>:           21 b            0 skpd (  0.0%)    0.001 s ( 0.041 ms/b)
<pd|pf>:           18 b            0 skpd (  0.0%)    0.000 s ( 0.020 ms/b)
<pd|dd>:           18 b            0 skpd (  0.0%)    0.002 s ( 0.088 ms/b)
<pd|df>:           12 b            0 skpd (  0.0%)    0.001 s ( 0.076 ms/b)
<pd|ff>:            6 b            0 skpd (  0.0%)    0.001 s ( 0.096 ms/b)
<pf|pf>:            6 b            0 skpd (  0.0%)    0.000 s ( 0.025 ms/b)
<pf|dd>:            9 b            0 skpd (  0.0%)    0.001 s ( 0.073 ms/b)
<pf|df>:            6 b            0 skpd (  0.0%)    0.000 s ( 0.080 ms/b)
<pf|ff>:            3 b            0 skpd (  0.0%)    0.000 s ( 0.115 ms/b)
<dd|dd>:            6 b            0 skpd (  0.0%)    0.002 s ( 0.352 ms/b)
<dd|df>:            6 b            0 skpd (  0.0%)    0.001 s ( 0.196 ms/b)
<dd|ff>:            3 b            0 skpd (  0.0%)    0.001 s ( 0.230 ms/b)
<df|df>:            3 b            0 skpd (  0.0%)    0.001 s ( 0.222 ms/b)
<df|ff>:            2 b            0 skpd (  0.0%)    0.000 s ( 0.243 ms/b)
<ff|ff>:            1 b            0 skpd (  0.0%)    0.000 s ( 0.330 ms/b)
Recanonicalizing the internal orbitals
Recanonicalizing the virtual orbitals
Time needed for Fock operator              ...            0.156 sec
Reference energy                           ...    -46.431673635
Warning: for UHF the TrafoType has to be JK
Warning: for UHF the K(C)-option cannot be MO but must be AOX

-------------------------------
PARTIAL EXCHANGE TRANSFORMATION
-------------------------------

Transformation type                        ... two-operators
Generation of integrals (i,mue|j,nue)      ... ON
Generation of integrals (mue,kappa|nue,tau)... ON
Generation of integrals (i,mue|a,nue)      ... ON
Dimension of the basis                     ...   31
Number of internal alpha-MOs               ...    7 (   0-   6)
Number of internal beta-MOs                ...    5 (   0-   4)
Number of external alpha-MOs               ...   24 (   7-  30)
Number of external beta-MOs                ...   26 (   5-  30)
Pair cutoff                                ... 0.000e+00 Eh
Number of AO pairs in the trafo            ...  496
Total Number of distinct AO pairs          ...  496
Memory devoted for trafo                   ... 2500.0 MB 
Max. Number of MO pairs treated together   ... 340978      
Number Format for Storage                  ... Double (8 Byte)
Integral package used                      ... LIBINT

Starting integral evaluation:
    ... done with AO integral generation
Closing buffer AOK[aa] ( 0.00 GB; CompressionRatio= 0.00)
Closing buffer AOK[bb] ( 0.00 GB; CompressionRatio= 0.00)
Closing buffer AOK[ab] ( 0.00 GB; CompressionRatio= 0.00)
Closing buffer AOK[ba] ( 0.00 GB; CompressionRatio= 0.00)
Collecting buffer AOK 
Closing buffer IAAO1[aa] ( 0.00 GB; CompressionRatio= 0.00)
Closing buffer IAAO1[bb] ( 0.00 GB; CompressionRatio= 0.00)
Closing buffer IAAO1[ab] ( 0.00 GB; CompressionRatio= 0.00)
Closing buffer IAAO1[ba] ( 0.00 GB; CompressionRatio= 0.00)
Closing buffer IAAO2[aa] ( 0.00 GB; CompressionRatio= 0.00)
Closing buffer IAAO2[bb] ( 0.00 GB; CompressionRatio= 0.00)
Closing buffer IAAO2[ab] ( 0.00 GB; CompressionRatio= 0.00)
Closing buffer IAAO2[ba] ( 0.00 GB; CompressionRatio= 0.00)
Collecting buffer IAAO 
Closing buffer PRQS    ( 0.00 GB; CompressionRatio= 0.00)
Collecting buffer PRQS 
Number of alpha/alpha MO pairs in trafo    ...   28
Number of beta /beta  MO pairs in trafo    ...   15
Number of alpha/ beta MO pairs in trafo    ...   35
------------------------
SORTING OF (i,mue|j,nue)
------------------------

SORTING OF ALPHA/ALPHA PAIRS
IBATCH = 1 of  1
Closing buffer KAO[aa] ( 0.00 GB; CompressionRatio= 1.00)
Collecting buffer KAO 
SORTING OF BETA /BETA  PAIRS
IBATCH = 1 of  1
Closing buffer KAO[bb] ( 0.00 GB; CompressionRatio= 1.00)
Collecting buffer KAO 
SORTING OF ALPHA/BETA  PAIRS
IBATCH = 1 of  1
Closing buffer KAO[ab] ( 0.00 GB; CompressionRatio= 0.998441558442)
Collecting buffer KAO[ab] 
------------------------
SORTING OF (i,mue|a,nue)
------------------------

Number of alpha/alpha (i,a) pairs in trafo  ...  168
Number of beta /beta  (i,a) pairs in trafo  ...  130
Number of alpha/ beta (i,a) pairs in trafo  ...  182
Number of beta /alpha (i,a) pairs in trafo  ...  120
Setting up the alpha/alpha list             ... done
Setting up the beta /beta  list             ... done
Setting up the alpha/beta  list             ... done
Setting up the beta /alpha list             ... done
    ... Now sorting (i,mue|a,nue)integrals
    ... Integrals (i,b|a,c) will be made on the fly
SORTING OF ALPHA/ALPHA PAIRS
IBATCH = 1 of  1
Closing buffer IPAQ[aa]  0.00 GB; CompressionRatio= 1.00)
SORTING OF BETA /BETA  PAIRS
IBATCH = 1 of  1
Closing buffer IPAQ[bb]( 0.00 GB; CompressionRatio= 1.00)
SORTING OF ALPHA/BETA  PAIRS (NMatSort_ab=8)
IBATCH = 1 of  1
Closing buffer IPAQ[ab]( 0.00 GB; CompressionRatio= 1.00)
SORTING OF BETA/ALPHA  PAIRS
IBATCH = 1 of  1
Closing buffer IPAQ[ba]( 0.00 GB; CompressionRatio= 1.00)
N(AO-Batches) Done                         ...         0 
N(AO-Batches) Skipped                      ...         0 
N(IJ)-pairs Skipped                        ...         0 
TOTAL TIME for half transformation         ...     1.685 sec
AO-integral generation                     ...     0.000 sec
Half transformation                        ...     0.000 sec
K-integral sorting                         ...     0.703 sec
<ss|**>: 
------------------------------
PARTIAL COULOMB TRANSFORMATION
------------------------------

Transformation type                        ... two-operators
Dimension of the basis                     ...   31
Number of internal alpha-MOs               ...    7 (0-6)
Number of internal beta-MOs                ...    5 (0-4)
Pair cutoff                                ... 0.000e+00 Eh
Number of AO pairs included in the trafo   ...  496
Total Number of distinct AO pairs          ...  496
Memory devoted for trafo                   ... 2500.0 MB 
Max. Number of MO pairs treated together   ... 660645      
Max. Number of MOs treated per batch       ... 21311      
Number Format for Storage                  ... Double (8 Byte)
AO-integral source                         ... DIRECT
Integral package used                      ... LIBINT

Starting integral evaluation:
<sp|**>:          990 b        0 skpd     0.001 s (  0.001 ms/b)
<sd|**>:          990 b        0 skpd     0.007 s (  0.007 ms/b)
<sf|**>:          660 b        0 skpd     0.008 s (  0.012 ms/b)
<pp|**>:          330 b        0 skpd     0.007 s (  0.020 ms/b)
<pd|**>:          396 b        0 skpd     0.008 s (  0.020 ms/b)
         396 b        0 skpd     0.017 s (  0.042 ms/b)
<pf|**>:          198 b        0 skpd     0.017 s (  0.087 ms/b)
<dd|**>:          198 b        0 skpd     0.017 s (  0.087 ms/b)
<df|**>:          132 b        0 skpd     0.027 s (  0.204 ms/b)
<ff|**>:           66 b        0 skpd     0.017 s (  0.263 ms/b)
Closing buffer AOJ[aa] ( 0.00 GB; CompressionRatio= 0.95)
Closing buffer AOJ[bb] ( 0.00 GB; CompressionRatio= 0.00)
Collecting buffer AOJ 
    ... done with AO integral generation
Number of Alpha-MO pairs included          ...   28
Number of Beta-MO pairs included           ...   15
    ... Now sorting integrals
SORTING ALPHA/ALPHA PAIRS
IBATCH = 1 of  1
Closing buffer JAO[aa] ( 0.00 GB; CompressionRatio= 1.00)
SORTING BETA/BETA PAIRS
IBATCH = 1 of  1
Closing buffer JAO[bb] ( 0.00 GB; CompressionRatio= 1.00)
Collecting buffer JAO 
TOTAL TIME for half transformation         ...     0.334 sec
AO-integral generation                     ...     0.099 sec
Half transformation                        ...     0.027 sec
J-integral sorting                         ...     0.064 sec

-------------------------- SECOND HALF TRANSFORMATION -------------------------
Formation of (ij|kl),(ij|ka), (ij|ab)      ... ok (     0.112 sec)
Formation of (ik|jl),(ik|ja), (ia|jb)      ... ok (     0.182 sec)


-----------------------
SPIN UNRESTRICTED GUESS
-----------------------

Entering MDCI_UHF_Guess, Tailored=0
Spin-components of the MP2 energy:
EMP2(aa)=     -0.028713993
EMP2(bb)=     -0.020437632
EMP2(ab)=     -0.114937752

Initial guess performed in     0.002 sec
E(0)                                       ...    -46.431673635
E(MP2)                                     ...     -0.164089377
Initial E(tot)                             ...    -46.595763011
<T|T>                                      ...      0.077817109
Number of pairs included                   ... 66

------------------------------------------------
                  UHF COUPLED CLUSTER ITERATIONS
------------------------------------------------

Number of amplitudes to be optimized       ...        31417

Iter       E(tot)           E(Corr)          Delta-E          Residual     Time      <S|S>**1/2
  0    -46.595764293     -0.164090659     -0.000001282      0.017409107    0.07      0.001402545
                           *** Turning on DIIS ***
  1    -46.601264044     -0.169590409     -0.005499751      0.009623247    0.04      0.030190547
  2    -46.606149130     -0.174475495     -0.004885086      0.005420170    0.04      0.049988091
  3    -46.608086220     -0.176412585     -0.001937090      0.002379269    0.04      0.063510674
  4    -46.608961184     -0.177287549     -0.000874964      0.001114402    0.05      0.072336884
  5    -46.609080183     -0.177406549     -0.000118999      0.000613321    0.05      0.073896055
  6    -46.609095783     -0.177422148     -0.000015600      0.000226126    0.05      0.074100384
  7    -46.609098862     -0.177425227     -0.000003079      0.000174667    0.05      0.074133756
  8    -46.609105036     -0.177431401     -0.000006174      0.000135192    0.04      0.074244162
  9    -46.609108969     -0.177435334     -0.000003933      0.000116105    0.05      0.074446036
 10    -46.609111878     -0.177438243     -0.000002910      0.000098557    0.05      0.074841395
 11    -46.609113317     -0.177439682     -0.000001439      0.000081861    0.05      0.075189982
 12    -46.609113483     -0.177439848     -0.000000166      0.000072995    0.05      0.075306347
 13    -46.609112874     -0.177439239      0.000000609      0.000062984    0.05      0.075363510
 14    -46.609111673     -0.177438038      0.000001201      0.000048458    0.04      0.075416724
 15    -46.609111393     -0.177437759      0.000000279      0.000033518    0.04      0.075483352
 16    -46.609112398     -0.177438763     -0.000001005      0.000016062    0.05      0.075588597
 17    -46.609113226     -0.177439591     -0.000000828      0.000010929    0.06      0.075664116
 18    -46.609113208     -0.177439573      0.000000018      0.000007215    0.06      0.075694156
               --- The Coupled-Cluster iterations have converged ---

----------------------
COUPLED CLUSTER ENERGY
----------------------

E(0)                                       ...    -46.431673635
E(CORR)                                    ...     -0.177439573
E(TOT)                                     ...    -46.609113208
Singles norm <S|S>**1/2                    ...      0.075694156 ( 0.039559389, 0.036134767)  
T1 diagnostic                              ...      0.021851021                              

------------------
LARGEST AMPLITUDES
------------------
   4b-> 13b  -1b-> -1b       0.083543
   6a->  9a   4b->  5b       0.080386
   6a->  8a   4b->  6b       0.080185
   6a->  7a   4b->  7b       0.080005
   6a-> 12a   4b->  8b       0.050162
   6a-> 11a   4b->  9b       0.049776
   6a-> 10a   4b-> 10b       0.049704
   4a-> 11a   4b->  9b       0.047937
   4a->  8a   4b->  6b       0.042204
   5a-> 10a   4b->  8b       0.041893
   5a-> 12a   4b-> 10b       0.041487
   6a-> 21a   4b->  5b       0.038366
   6a-> 20a   4b->  6b       0.038109
   6a->  7a   4b-> 21b       0.038042
   6a->  8a   4b-> 20b       0.037937
   6a-> 19a   4b->  7b       0.037884

----------------------
UHF TRIPLES CORRECTION (Algorithm 1)
----------------------

Multiplier for the singles contribution    ...      1.000000000

SPIN-CASE Alpha-Alpha-Alpha:
10% done
20% done
30% done
40% done
50% done
60% done
70% done
80% done
90% done


SPIN-CASE Beta-Beta-Beta:
10% done
20% done
30% done
40% done
50% done
60% done
70% done
80% done
90% done


SPIN-CASE Alpha-Alpha-Beta:
10% done
20% done
30% done
40% done
50% done
60% done
70% done
80% done
90% done


SPIN-CASE Beta-Beta-Alpha:
10% done
20% done
30% done
40% done
50% done
60% done
70% done
80% done
90% done


Triples Correction (T)                     ...     -0.005511567
    alpha-alpha-alpha ... -0.000150418 (  2.7%)
    alpha-alpha-beta  ... -0.003233008 ( 58.7%)
    alpha-beta -beta  ... -0.002041228 ( 37.0%)
    beta -beta -beta  ... -0.000086912 (  1.6%)
Scaling of triples based on CCSD energies (Peterson et al. Molecular Physics 113, 1551 (2015))
E(T*) = f*E(T) where f = E(F12-CCSD)/E(CCSD) 
f = CCSD (with F12)/ CCSD (without F12)    ...      1.000000000
Scaled triples correction (T)              ...     -0.005511567

Final correlation energy                   ...     -0.182951140
E(CCSD)                                    ...    -46.609113208
E(CCSD(T))                                 ...    -46.614624775



        !!!!!!!!!!!!!!!!!!!!!!!!!!!!!!!!!!!!!!!!!!!!!!!!!!!!!!!!!!!!!!!!!!!!!!!!!! 
        !  Warning: Densities are linearized densities                           !
        !!!!!!!!!!!!!!!!!!!!!!!!!!!!!!!!!!!!!!!!!!!!!!!!!!!!!!!!!!!!!!!!!!!!!!!!!! 

NORM  =      1.125450360 sqrt=     1.060872452
W(HF) =      0.888533191
------------------------------------------------------------------------------
                           ORCA POPULATION ANALYSIS
------------------------------------------------------------------------------
Input electron density              ... 40_Zr.mdcip
Input spin density                  ... 40_Zr.mdcir
BaseName (.gbw .S,...)              ... 40_Zr

                    ********************************
                    * MULLIKEN POPULATION ANALYSIS *
                    ********************************

------------------------------------------
MULLIKEN ATOMIC CHARGES AND SPIN DENSITIES
------------------------------------------
   0 Zr:   -0.000000    2.000000
Sum of atomic charges       :   -0.0000000
Sum of atomic spin densities:    2.0000000

---------------------------------------------------
MULLIKEN REDUCED ORBITAL CHARGES AND SPIN DENSITIES
---------------------------------------------------
CHARGE
  0 Zrs       :     3.886927  s :     3.886927
      pz      :     2.013550  p :     6.040549
      px      :     2.013500
      py      :     2.013500
      dz2     :     0.260491  d :     2.051623
      dxz     :     0.506791
      dyz     :     0.507045
      dx2y2   :     0.024191
      dxy     :     0.753106
      f0      :     0.002593  f :     0.020901
      f+1     :     0.002966
      f-1     :     0.002967
      f+2     :     0.002503
      f-2     :     0.004175
      f+3     :     0.002848
      f-3     :     0.002848

SPIN
  0 Zrs       :     0.021215  s :     0.021215
      pz      :     0.003883  p :     0.012109
      px      :     0.004113
      py      :     0.004114
      dz2     :     0.238834  d :     1.951108
      dxz     :     0.487665
      dyz     :     0.487922
      dx2y2   :    -0.000124
      dxy     :     0.736812
      f0      :     0.001777  f :     0.015568
      f+1     :     0.002252
      f-1     :     0.002253
      f+2     :     0.001681
      f-2     :     0.003421
      f+3     :     0.002093
      f-3     :     0.002093


                     *******************************
                     * LOEWDIN POPULATION ANALYSIS *
                     *******************************

-----------------------------------------
LOEWDIN ATOMIC CHARGES AND SPIN DENSITIES
-----------------------------------------
   0 Zr:   -0.000000    2.000000

--------------------------------------------------
LOEWDIN REDUCED ORBITAL CHARGES AND SPIN DENSITIES
--------------------------------------------------
CHARGE
  0 Zrs       :     3.886927  s :     3.886927
      pz      :     2.013550  p :     6.040549
      px      :     2.013500
      py      :     2.013500
      dz2     :     0.260491  d :     2.051623
      dxz     :     0.506791
      dyz     :     0.507045
      dx2y2   :     0.024191
      dxy     :     0.753106
      f0      :     0.002593  f :     0.020901
      f+1     :     0.002966
      f-1     :     0.002967
      f+2     :     0.002503
      f-2     :     0.004175
      f+3     :     0.002848
      f-3     :     0.002848

SPIN
  0 Zrs       :     0.021215  s :     0.021215
      pz      :     0.003883  p :     0.012109
      px      :     0.004113
      py      :     0.004114
      dz2     :     0.238834  d :     1.951108
      dxz     :     0.487665
      dyz     :     0.487922
      dx2y2   :    -0.000124
      dxy     :     0.736812
      f0      :     0.001777  f :     0.015568
      f+1     :     0.002252
      f-1     :     0.002253
      f+2     :     0.001681
      f-2     :     0.003421
      f+3     :     0.002093
      f-3     :     0.002093


                      *****************************
                      * MAYER POPULATION ANALYSIS *
                      *****************************

  NA   - Mulliken gross atomic population
  ZA   - Total nuclear charge
  QA   - Mulliken gross atomic charge
  VA   - Mayer's total valence
  BVA  - Mayer's bonded valence
  FA   - Mayer's free valence

  ATOM       NA         ZA         QA         VA         BVA        FA
  0 Zr    12.0000    12.0000    -0.0000     2.7802     0.0000     2.7802





------------------------------------------------------------------------------- 
                                     TIMINGS                                   
------------------------------------------------------------------------------- 


Total execution time                   ...        3.892 sec

Fock Matrix Formation                  ...        0.156 sec (  4.0%)
Initial Guess                          ...        0.002 sec (  0.1%)
DIIS Solver                            ...        0.079 sec (  2.0%)
State Vector Update                    ...        0.007 sec (  0.2%)
Sigma-vector construction              ...        0.823 sec ( 21.1%)
  <D|H|D>(0-ext Fock)                  ...        0.001 sec (  0.1% of sigma)
  <D|H|D>(0-ext)                       ...        0.002 sec (  0.2% of sigma)
  <D|H|D>(2-ext)                       ...        0.006 sec (  0.8% of sigma)
  <D|H|D>(4-ext)                       ...        0.262 sec ( 31.8% of sigma)
  <S|H|0>                              ...        0.016 sec (  1.9% of sigma)
  <S|H|S>                              ...        0.001 sec (  0.2% of sigma)
  <D|H|S>(1-ext)                       ...        0.008 sec (  1.0% of sigma)
  Fock-dressing                        ...        0.291 sec ( 35.4% of sigma)
  (ik|jl)-dressing                     ...        0.003 sec (  0.3% of sigma)
  (ij|ab),(ia|jb)-dressing             ...        0.169 sec ( 20.6% of sigma)
  Pair energies                        ...        0.002 sec (  0.2% of sigma)
Total Time for computing (T)           ...        0.015 sec (  0.4% of ALL)
  I/O of integral and amplitudes       ...        0.004 sec ( 28.4% of (T))
  External N**7 contributions          ...        0.002 sec ( 13.1% of (T))
  N**6 triples energy contributions    ...        0.007 sec ( 45.9% of (T))


-------------------------   --------------------
FINAL SINGLE POINT ENERGY       -46.614624775098
-------------------------   --------------------


                            ***************************************
                            *     ORCA property calculations      *
                            ***************************************

                                    ---------------------
                                    Active property flags
                                    ---------------------
   (+) Dipole Moment


------------------------------------------------------------------------------
                       ORCA ELECTRIC PROPERTIES CALCULATION
------------------------------------------------------------------------------

Dipole Moment Calculation                       ... on
Quadrupole Moment Calculation                   ... off
Polarizability Calculation                      ... off
GBWName                                         ... 40_Zr.gbw
Electron density file                           ... 40_Zr.scfp
The origin for moment calculation is the CENTER OF MASS  = ( 0.000000,  0.000000  0.000000)

-------------
DIPOLE MOMENT
-------------
                                X             Y             Z
Electronic contribution:      0.00000       0.00000       0.00000
Nuclear contribution   :      0.00000       0.00000       0.00000
                        -----------------------------------------
Total Dipole Moment    :      0.00000       0.00000       0.00000
                        -----------------------------------------
Magnitude (a.u.)       :      0.00000
Magnitude (Debye)      :      0.00000



--------------------
Rotational spectrum 
--------------------
 
Rotational constants in cm-1:     0.000000     0.000000     0.000000 
Rotational constants in MHz :     0.000000     0.000000     0.000000 

 Dipole components along the rotational axes: 
x,y,z [a.u.] :     0.000000     0.000000     0.000000 
x,y,z [Debye]:     0.000000     0.000000     0.000000 

 

                           *** MDCI DENSITY ***

------------------------------------------------------------------------------
                       ORCA ELECTRIC PROPERTIES CALCULATION
------------------------------------------------------------------------------

Dipole Moment Calculation                       ... on
Quadrupole Moment Calculation                   ... off
Polarizability Calculation                      ... off
GBWName                                         ... 40_Zr.gbw
Electron density file                           ... 40_Zr.mdcip
The origin for moment calculation is the CENTER OF MASS  = ( 0.000000,  0.000000  0.000000)

-------------
DIPOLE MOMENT
-------------
                                X             Y             Z
Electronic contribution:     -0.00000      -0.00000      -0.00000
Nuclear contribution   :      0.00000       0.00000       0.00000
                        -----------------------------------------
Total Dipole Moment    :     -0.00000      -0.00000      -0.00000
                        -----------------------------------------
Magnitude (a.u.)       :      0.00000
Magnitude (Debye)      :      0.00000



--------------------
Rotational spectrum 
--------------------
 
Rotational constants in cm-1:     0.000000     0.000000     0.000000 
Rotational constants in MHz :     0.000000     0.000000     0.000000 

 Dipole components along the rotational axes: 
x,y,z [a.u.] :    -0.000000    -0.000000    -0.000000 
x,y,z [Debye]:    -0.000000    -0.000000    -0.000000 

 

Timings for individual modules:

Sum of individual times         ...       28.101 sec (=   0.468 min)
GTO integral calculation        ...        0.884 sec (=   0.015 min)   3.1 %
SCF iterations                  ...       22.868 sec (=   0.381 min)  81.4 %
MDCI module                     ...        4.349 sec (=   0.072 min)  15.5 %
                             ****ORCA TERMINATED NORMALLY****
TOTAL RUN TIME: 0 days 0 hours 0 minutes 28 seconds 999 msec
