
                                 *****************
                                 * O   R   C   A *
                                 *****************

           --- An Ab Initio, DFT and Semiempirical electronic structure package ---

                  #######################################################
                  #                        -***-                        #
                  #          Department of theory and spectroscopy      #
                  #               Directorship: Frank Neese             #
                  #        Max Planck Institute fuer Kohlenforschung    #
                  #                Kaiser Wilhelm Platz 1               #
                  #                 D-45470 Muelheim/Ruhr               #
                  #                      Germany                        #
                  #                                                     #
                  #                  All rights reserved                #
                  #                        -***-                        #
                  #######################################################


                         Program Version 4.2.0 -  RELEASE  -


 With contributions from (in alphabetic order):
   Daniel Aravena         : Magnetic Suceptibility
   Michael Atanasov       : Ab Initio Ligand Field Theory (pilot matlab implementation)
   Alexander A. Auer      : GIAO ZORA, VPT2
   Ute Becker             : Parallelization
   Giovanni Bistoni       : ED, misc. LED, open-shell LED, HFLED
   Martin Brehm           : Molecular dynamics
   Dmytro Bykov           : SCF Hessian
   Vijay G. Chilkuri      : MRCI spin determinant printing, contributions to CSF-ICE
   Dipayan Datta          : RHF DLPNO-CCSD density
   Achintya Kumar Dutta   : EOM-CC, STEOM-CC
   Dmitry Ganyushin       : Spin-Orbit,Spin-Spin,Magnetic field MRCI
   Miquel Garcia          : C-PCM Hessian, Gaussian charge scheme
   Yang Guo               : DLPNO-NEVPT2, CIM, IAO-localization
   Andreas Hansen         : Spin unrestricted coupled pair/coupled cluster methods
   Benjamin Helmich-Paris : CASSCF linear response (MC-RPA)
   Lee Huntington         : MR-EOM, pCC
   Robert Izsak           : Overlap fitted RIJCOSX, COSX-SCS-MP3, EOM
   Christian Kollmar      : KDIIS, OOCD, Brueckner-CCSD(T), CCSD density
   Simone Kossmann        : Meta GGA functionals, TD-DFT gradient, OOMP2, MP2 Hessian
   Martin Krupicka        : AUTO-CI
   Lucas Lang             : DCDCAS
   Dagmar Lenk            : GEPOL surface, SMD
   Dimitrios Liakos       : Extrapolation schemes; Compound Job, initial MDCI parallelization
   Dimitrios Manganas     : Further ROCIS development; embedding schemes
   Dimitrios Pantazis     : SARC Basis sets
   Taras Petrenko         : DFT Hessian,TD-DFT gradient, ASA, ECA, R-Raman, ABS, FL, XAS/XES, NRVS
   Peter Pinski           : DLPNO-MP2, DLPNO-MP2 Gradient
   Christoph Reimann      : Effective Core Potentials
   Marius Retegan         : Local ZFS, SOC
   Christoph Riplinger    : Optimizer, TS searches, QM/MM, DLPNO-CCSD(T), (RO)-DLPNO pert. Triples
   Tobias Risthaus        : Range-separated hybrids, TD-DFT gradient, RPA, STAB
   Michael Roemelt        : Original ROCIS implementation
   Masaaki Saitow         : Open-shell DLPNO-CCSD energy and density
   Barbara Sandhoefer     : DKH picture change effects
   Avijit Sen             : IP-ROCIS
   Kantharuban Sivalingam : CASSCF convergence, NEVPT2, FIC-MRCI
   Bernardo de Souza      : ESD, SOC TD-DFT
   Georgi Stoychev        : AutoAux, RI-MP2 NMR
   Willem Van den Heuvel  : Paramagnetic NMR
   Boris Wezisla          : Elementary symmetry handling
   Frank Wennmohs         : Technical directorship


 We gratefully acknowledge several colleagues who have allowed us to
 interface, adapt or use parts of their codes:
   Stefan Grimme, W. Hujo, H. Kruse,             : VdW corrections, initial TS optimization,
                  C. Bannwarth                     DFT functionals, gCP, sTDA/sTD-DF
   Ed Valeev, F. Pavosevic, A. Kumar             : LibInt (2-el integral package), F12 methods
   Garnet Chan, S. Sharma, J. Yang, R. Olivares  : DMRG
   Ulf Ekstrom                                   : XCFun DFT Library
   Mihaly Kallay                                 : mrcc  (arbitrary order and MRCC methods)
   Andreas Klamt, Michael Diedenhofen            : otool_cosmo (COSMO solvation model)
   Jiri Pittner, Ondrej Demel                    : Mk-CCSD
   Frank Weinhold                                : gennbo (NPA and NBO analysis)
   Christopher J. Cramer and Donald G. Truhlar   : smd solvation model
   Lars Goerigk                                  : TD-DFT with DH, B97 family of functionals
   V. Asgeirsson, H. Jonsson                     : NEB implementation
   FAccTs GmbH                                   : IRC, NEB, NEB-TS, Multilevel, MM, QM/MM, CI optimization
   S Lehtola, MJT Oliveira, MAL Marques          : LibXC Library


 Your calculation uses the libint2 library for the computation of 2-el integrals
 For citations please refer to: http://libint.valeyev.net

 Your ORCA version has been built with support for libXC version: 4.2.3
 For citations please refer to: https://tddft.org/programs/libxc/

 This ORCA versions uses:
   CBLAS   interface :  Fast vector & matrix operations
   LAPACKE interface :  Fast linear algebra routines
   SCALAPACK package :  Parallel linear algebra routines


----- Orbital basis set information -----
Your calculation utilizes the basis: def2-SVP
   F. Weigend and R. Ahlrichs, Phys. Chem. Chem. Phys. 7, 3297 (2005).

----- AuxJ basis set information -----
Your calculation utilizes the auxiliary basis: def2/J
   F. Weigend, Phys. Chem. Chem. Phys. 8, 1057 (2006).

================================================================================
                                        WARNINGS
                       Please study these warnings very carefully!
================================================================================


INFO   : the flag for use of LIBINT has been found!

================================================================================
                                       INPUT FILE
================================================================================
NAME = 41_Nb_atom41.inp
|  1> # input to generate an atomic fitting density for Nb
|  2> # this file is use internally by ORCA
|  3> #
|  4> # atomic ground state (S=4): 1s2 2s2 2p6 3s2 3p6 4s2 3d10 4p6 5s2 4d3 
|  5> #
|  6> ! RHF AllowRHF def2-SVP def2/J  NoMulliken NoLoewdin NoMayer NoPrintMOs 
|  7> 
|  8> %output print[p_atomdensfit] 2 end
|  9> 
| 10> %scf
| 11>   guess hcore
| 12>   maxiter 1000
| 13>   maxdisk 500000
| 14>   SCFMode Conventional
| 15>   lshift 0.500000
| 16>   hftyp rohf
| 17>   rohf_case sahf
| 18>   rohf_numop   2
| 19>   rohf_norb[1] 5
| 20>   rohf_nel[1]  3
| 21> end
| 22> 
| 23> %basis
| 24>   NewECP 41
| 25>     N_core 28
| 26>     lmax f
| 27>     s 4
| 28>       1       8.9000000000    165.1791435000  2
| 29>       2       4.4300000000     21.9929744000  2
| 30>       3       8.4900000000     22.9295500000  2
| 31>       4       4.2500000000      3.6663099000  2
| 32>     p 4
| 33>       1       7.7700000000    111.7944145000  2
| 34>       2       3.9600000000     16.6334833000  2
| 35>       3       8.4900000000     22.9295500000  2
| 36>       4       4.2500000000      3.6663099000  2
| 37>     d 4
| 38>       1       6.0500000000     38.1122488000  2
| 39>       2       2.8400000000      8.0391673000  2
| 40>       3       8.4900000000     22.9295500000  2
| 41>       4       4.2500000000      3.6663099000  2
| 42>     f 2
| 43>       1       8.4900000000    -22.9295500000  2
| 44>       2       4.2500000000     -3.6663099000  2
| 45>   end
| 46>   NewGTO 41
| 47>     s 3 
| 48>      1       6.5663010000     -0.9142704602
| 49>      2       4.5864380000      1.5157625364
| 50>      3       3.7537700000      0.3504243489
| 51>     s 1 
| 52>      1       0.8418771744      1.0000000000
| 53>     s 1 
| 54>      1       0.3816066618      1.0000000000
| 55>     s 1 
| 56>      1       0.0858199114      1.0000000000
| 57>     s 1 
| 58>      1       0.0327023304      1.0000000000
| 59>     p 4 
| 60>      1       3.0700630000     -0.5185293329
| 61>      2       2.2379640000      0.5443971263
| 62>      3       0.8080196967      0.6412596931
| 63>      4       0.3578334343      0.3069596128
| 64>     p 1 
| 65>      1       0.1382008528      1.0000000000
| 66>     p 1 
| 67>      1       0.0360000000      1.0000000000
| 68>     d 4 
| 69>      1       4.6170975867     -0.0149085206
| 70>      2       1.5663438480      0.2237661362
| 71>      3       0.6695242583      0.4722306528
| 72>      4       0.2714094687      0.4590766219
| 73>     d 1 
| 74>      1       0.1005442659      1.0000000000
| 75>   end
| 76>   NewAuxGTO 41
| 77>     S 1
| 78>      1 1310.72 1.0
| 79>     S 1
| 80>      1  655.36 1.0
| 81>     S 1
| 82>      1  327.68 1.0
| 83>     S 1
| 84>      1  163.84 1.0
| 85>     S 1
| 86>      1   81.82 1.0
| 87>     S 1
| 88>      1   40.96 1.0
| 89>     S 1
| 90>      1   20.48 1.0
| 91>     S 1
| 92>      1   10.24 1.0
| 93>     S 1
| 94>      1    5.12 1.0
| 95>     S 1
| 96>      1    2.56 1.0
| 97>     S 1
| 98>      1    1.28 1.0
| 99>     S 1
|100>      1    0.64 1.0
|101>     S 1
|102>      1    0.32 1.0
|103>     S 1
|104>      1    0.16 1.0
|105>     S 1
|106>      1    0.08 1.0
|107>     S 1
|108>      1    0.04 1.0
|109>     S 1
|110>      1    0.02 1.0
|111>     S 1
|112>      1    0.01 1.0
|113>   end
|114> end
|115> 
|116> * xyz 0 4
|117> 41  0.0 0.0 0.0
|118> *
|119> 
|120> 
|121>                          ****END OF INPUT****
================================================================================

                       ****************************
                       * Single Point Calculation *
                       ****************************

---------------------------------
CARTESIAN COORDINATES (ANGSTROEM)
---------------------------------
  Nb     0.000000    0.000000    0.000000

----------------------------
CARTESIAN COORDINATES (A.U.)
----------------------------
  NO LB      ZA    FRAG     MASS         X           Y           Z
   0 Nb   13.0000*   0    92.910    0.000000    0.000000    0.000000
* core charge reduced due to ECP

--------------------------------
INTERNAL COORDINATES (ANGSTROEM)
--------------------------------
 Nb     0   0   0     0.000000000000     0.00000000     0.00000000

---------------------------
INTERNAL COORDINATES (A.U.)
---------------------------
 Nb     0   0   0     0.000000000000     0.00000000     0.00000000

---------------------
BASIS SET INFORMATION
---------------------
There are 1 groups of distinct atoms

 Group   1 Type Nb  : 7s6p5d contracted to 5s3p2d pattern {31111/411/41}

Atom   0Nb   basis set group =>   1
---------------------------------
AUXILIARY/J BASIS SET INFORMATION
---------------------------------
There are 1 groups of distinct atoms

 Group   1 Type Nb  : 18s contracted to 18s pattern {111111111111111111}

Atom   0Nb   basis set group =>   1
-------------------------
ECP PARAMETER INFORMATION
-------------------------

 Group 1, Type Nb ECP (replacing 28 core electrons, lmax=3)

Atom   0Nb   ECP group =>   1

------------------------------------------------------------------------------
                           ORCA GTO INTEGRAL CALCULATION
------------------------------------------------------------------------------

                         BASIS SET STATISTICS AND STARTUP INFO

 # of primitive gaussian shells          ...   18
 # of primitive gaussian functions       ...   50
 # of contracted shells                  ...   10
 # of contracted basis functions         ...   24
 Highest angular momentum                ...    2
 Maximum contraction depth               ...    4
 Integral package used                   ... LIBINT
 Integral threshhold            Thresh   ...  1.000e-10
 Primitive cut-off              TCut     ...  1.000e-11
 Storage cut-off                TCutStore... -1.000e+00
 Buffer length                           ... 1048576 integrals/buffer
 Generate file with integrals 4 distinct ...false


------------------------------ INTEGRAL EVALUATION ----------------------------


 * One electron integrals 

   ECP integrals                         ... done
 Pre-screening matrix                    ... done
 Shell pair data                         ... done (   0.000 sec)
 Statistics run                          ... done
 Maximum amount of storage needed        ...     0 MB
 Maximum amount of storage dedicated     ... 500000 MB
 Beginning two electron integral evaluation:
 Starting repulsion integrals
  <ss|ss>  ...          120 b.         0 skpd (  0.0%)     0.000 s. (  0.000 ms/b)
  <ss|sp>  ...          225 b.         0 skpd (  0.0%)     0.000 s. (  0.000 ms/b)
  <ss|sd>  ...          150 b.         0 skpd (  0.0%)     0.000 s. (  0.001 ms/b)
  <ss|pp>  ...           90 b.         0 skpd (  0.0%)     0.000 s. (  0.001 ms/b)
  <ss|pd>  ...           90 b.         0 skpd (  0.0%)     0.000 s. (  0.002 ms/b)
  <ss|dd>  ...           45 b.         0 skpd (  0.0%)     0.000 s. (  0.003 ms/b)
  <sp|sp>  ...          120 b.         0 skpd (  0.0%)     0.000 s. (  0.001 ms/b)
  <sp|sd>  ...          150 b.         0 skpd (  0.0%)     0.000 s. (  0.002 ms/b)
  <sp|pp>  ...           90 b.         0 skpd (  0.0%)     0.000 s. (  0.002 ms/b)
  <sp|pd>  ...           90 b.         0 skpd (  0.0%)     0.000 s. (  0.004 ms/b)
  <sp|dd>  ...           45 b.         0 skpd (  0.0%)     0.000 s. (  0.010 ms/b)
  <sd|sd>  ...           55 b.         0 skpd (  0.0%)     0.000 s. (  0.004 ms/b)
  <sd|pp>  ...           60 b.         0 skpd (  0.0%)     0.000 s. (  0.006 ms/b)
  <sd|pd>  ...           60 b.         0 skpd (  0.0%)     0.001 s. (  0.012 ms/b)
  <sd|dd>  ...           30 b.         0 skpd (  0.0%)     0.001 s. (  0.029 ms/b)
  <pp|pp>  ...           21 b.         0 skpd (  0.0%)     0.000 s. (  0.010 ms/b)
  <pp|pd>  ...           36 b.         0 skpd (  0.0%)     0.001 s. (  0.016 ms/b)
  <pp|dd>  ...           18 b.         0 skpd (  0.0%)     0.001 s. (  0.041 ms/b)
  <pd|pd>  ...           21 b.         0 skpd (  0.0%)     0.001 s. (  0.045 ms/b)
  <pd|dd>  ...           18 b.         0 skpd (  0.0%)     0.002 s. (  0.099 ms/b)
  <dd|dd>  ...            6 b.         0 skpd (  0.0%)     0.002 s. (  0.332 ms/b)


                                      INTEGRAL STATISTICS

Integral type statistics:
 Number of integrals retained            ...      45150 
 One   Center Integrals retained         ...      45150 (100.0%)
 Two   Center Integrals retained         ...          0 (  0.0%)
 Three Center Integrals retained         ...          0 (  0.0%)
 Four  Center Integrals retained         ...          0 (  0.0%)

Storage statistics:
 Number of char integrals                ...          0 (  0.0%)
 Number of short int integrals           ...          0 (  0.0%)
 Number of double/float integrals        ...      45150 (100.0%)
 Amount of memory used                   ...          0 MB
 Amount of memory estimated              ...          0 MB ( 92.6%)

Prescreening statistics:
 Total number of shell quadruples        ...       1540 
 Number of skipped shell quadruples      ...          0 (  0.0%)
 # of negligible batches done            ...          0 (  0.0%)

Timings:
 Total evaluation time               ...     0.223 sec (   0.004 min)
 One electron matrix time            ...     0.022 sec (   0.000 min) =  9.7%
 Schwartz matrix evaluation time     ...     0.082 sec (   0.001 min) = 36.6%
 Statistics run                      ...     0.000 sec (   0.000 min) =  0.2%
 Repulsion integral time             ...     0.010 sec (   0.000 min) =  4.7%

-------------------------------------------------------------------------------
                                 ORCA SCF
-------------------------------------------------------------------------------

------------
SCF SETTINGS
------------
Hamiltonian:
 Ab initio Hamiltonian  Method          .... Hartree-Fock(GTOs)


General Settings:
 Integral files         IntName         .... 41_Nb_atom41
 Hartree-Fock type      HFTyp           .... ROHF
 Total Charge           Charge          ....    0
 Multiplicity           Mult            ....    4
 Number of Electrons    NEL             ....   13
 Basis Dimension        Dim             ....   24
 Nuclear Repulsion      ENuc            ....      0.0000000000 Eh

Convergence Acceleration:
 DIIS                   CNVDIIS         .... on
   Start iteration      DIISMaxIt       ....    12
   Startup error        DIISStart       ....  0.200000
   # of expansion vecs  DIISMaxEq       ....     5
   Bias factor          DIISBfac        ....   1.050
   Max. coefficient     DIISMaxC        ....  10.000
 Newton-Raphson         CNVNR           .... off
 SOSCF                  CNVSOSCF        .... off
 Level Shifting         CNVShift        .... on
   Level shift para.    LevelShift      ....    0.5000
   Turn off err/grad.   ShiftErr        ....    0.0010
 Zerner damping         CNVZerner       .... off
 Static damping         CNVDamp         .... on
   Fraction old density DampFac         ....    0.7000
   Max. Damping (<1)    DampMax         ....    0.9800
   Min. Damping (>=0)   DampMin         ....    0.0000
   Turn off err/grad.   DampErr         ....    0.1000
 Fernandez-Rico         CNVRico         .... off

SCF Procedure:
 Maximum # iterations   MaxIter         ....  1000
 SCF integral mode      SCFMode         .... Conventional
 Integral Threshold     Thresh          ....  1.000e-10 Eh
 Primitive CutOff       TCut            ....  1.000e-11 Eh
 Integral Buffer length BufferLength    .... 1048576
 Integral index format  IndFormat       ....     0
 Integral value format  ValFormat       ....     0
 Integral Storage       Thresh          ....  1.000e-10 Eh

Convergence Tolerance:
 Convergence Check Mode ConvCheckMode   .... Total+1el-Energy
 Convergence forced     ConvForced      .... 0
 Energy Change          TolE            ....  1.000e-06 Eh
 1-El. energy change                    ....  1.000e-03 Eh
 DIIS Error             TolErr          ....  1.000e-06


Diagonalization of the overlap matrix:
Smallest eigenvalue                        ... 2.427e-02
Time for diagonalization                   ...    0.001 sec
Threshold for overlap eigenvalues          ... 1.000e-08
Number of eigenvalues below threshold      ... 0
Time for construction of square roots      ...    0.002 sec
Total time needed                          ...    0.002 sec

--------------------
INITIAL GUESS: HCORE
--------------------
AVERAGE-CONFIGURATION (SAHF) CASE FOUND

-------------------
FINAL ROHF SETTINGS
-------------------
Number of operators             ... 2
  operator   0:   5 orbitals  10 electrons n(mue)= 2.000
  operator   1:   5 orbitals   3 electrons n(mue)= 0.600
Vector coupling coefficients a and b (Zerner convention):
   1.000    1.000           1.000    1.000 
   1.000    0.833           1.000    1.667 

                      -----------------
                      INTIAL GUESS DONE 
                      -----------------

 InCore treatment chosen:
   Memory dedicated               ...    1024 MB
   Memory needed                  ...      0 MB
   Number of tiny    integrals    ...       0
   Number of small   integrals    ...       0
   Number of regular integrals    ...   45150

--------------
SCF ITERATIONS
--------------
ITER       Energy         Delta-E        Max-DP      RMS-DP      [F,P]     Damp
  0    -54.3413885409   0.000000000000 2.22882514  0.11615671  0.5038265 0.7000
                            ****Activating DIIS****
  1    -55.4494677966  -1.108079255779 1.55916162  0.08060221  0.1730247 0.7000
  2    -55.6075721313  -0.158104334679 3.63302248  0.18489792  0.0572182 0.0000
  3    -55.8143217653  -0.206749633982 0.14627736  0.00760028  0.0778163 0.0000
  4    -55.8456893687  -0.031367603386 0.17098086  0.00819704  0.0436839 0.0000
  5    -55.8613136032  -0.015624234499 0.27978544  0.01325165  0.0435960 0.0000
  6    -55.8824851237  -0.021171520533 0.37565966  0.01770637  0.0430387 0.0000
  7    -55.9102906527  -0.027805528997 0.51086995  0.02269781  0.0411546 0.0000
  8    -55.9464895689  -0.036198916169 0.30703734  0.01231482  0.0361864 0.0000
  9    -55.9654969972  -0.019007428332 0.47918226  0.01848361  0.0320046 0.0000
 10    -55.9922687381  -0.026771740884 0.47243902  0.02259825  0.0229024 0.0000
 11    -56.0126253135  -0.020356575404 0.19161435  0.00775873  0.0085083 0.0000
 12    -56.0148173913  -0.002192077818 0.06583096  0.00244100  0.0049814 0.0000
 13    -56.0151312934  -0.000313902068 0.02861625  0.00103773  0.0049711 0.0000
 14    -56.0152283296  -0.000097036237 0.01234007  0.00050816  0.0048968 0.0000
 15    -56.0152606253  -0.000032295639 0.01295832  0.00051291  0.0048189 0.0000
 16    -56.0152785816  -0.000017956335 0.01769709  0.00064511  0.0047551 0.0000
 17    -56.0152926776  -0.000014096036 0.01495606  0.00053861  0.0047126 0.0000
 18    -56.0152975428  -0.000004865217 0.00984249  0.00035445  0.0046905 0.0000
 19    -56.0153000680  -0.000002525153 0.00532468  0.00020159  0.0046866 0.0000
 20    -56.0153040496  -0.000003981570 0.00145421  0.00009096  0.0046942 0.0000
 21    -56.0153090006  -0.000004951043 0.00110481  0.00007064  0.0047067 0.0000
 22    -56.0153130763  -0.000004075696 0.00125172  0.00005792  0.0047181 0.0000
 23    -56.0153154813  -0.000002404991 0.00037296  0.00003312  0.0047255 0.0000
 24    -56.0153171661  -0.000001684780 0.00042446  0.00003372  0.0047306 0.0000
 25    -56.0153188326  -0.000001666557 0.00045110  0.00003590  0.0047356 0.0000
 26    -56.0153204845  -0.000001651834 0.00042706  0.00003455  0.0047408 0.0000
 27    -56.0153219530  -0.000001468519 0.00038127  0.00003130  0.0047456 0.0000
 28    -56.0153231733  -0.000001220349 0.00034527  0.00002837  0.0047497 0.0000
 29    -56.0153241987  -0.000001025368 0.00032433  0.00002657  0.0047531 0.0000
 30    -56.0153250955  -0.000000896825 0.00030848  0.00002531  0.0047561 0.0000
 31    -56.0153258946  -0.000000799104 0.00029105  0.00002401  0.0047587 0.0000
 32    -56.0153266055  -0.000000710889 0.00027190  0.00002260  0.0047610 0.0000
 33    -56.0153272361  -0.000000630593 0.00025316  0.00002125  0.0047630 0.0000
 34    -56.0153277981  -0.000000561993 0.00023588  0.00002003  0.0047646 0.0000
                 **** Energy Check signals convergence ****

               *****************************************************
               *                     SUCCESS                       *
               *           SCF CONVERGED AFTER  35 CYCLES          *
               *****************************************************


----------------
TOTAL SCF ENERGY
----------------

Total Energy       :          -56.01532830 Eh           -1524.25457 eV

Components:
Nuclear Repulsion  :            0.00000000 Eh               0.00000 eV
Electronic Energy  :          -56.01532830 Eh           -1524.25457 eV
One Electron Energy:          -93.40590489 Eh           -2541.70389 eV
Two Electron Energy:           37.39057659 Eh            1017.44932 eV

Virial components:
Potential Energy   :          -74.61464824 Eh           -2030.36780 eV
Kinetic Energy     :           18.59931994 Eh             506.11323 eV
Virial Ratio       :            4.01168691


---------------
SCF CONVERGENCE
---------------

  Last Energy change         ...   -5.0571e-07  Tolerance :   1.0000e-06
  Last MAX-Density change    ...    2.1989e-04  Tolerance :   1.0000e-05
  Last RMS-Density change    ...    1.8953e-05  Tolerance :   1.0000e-06
  Last DIIS Error            ...    4.7659e-03  Tolerance :   1.0000e-06

             **** THE GBW FILE WAS UPDATED (41_Nb_atom41.gbw) ****
             **** DENSITY FILE WAS UPDATED (41_Nb_atom41.scfp) ****
             **** ENERGY FILE WAS UPDATED (41_Nb_atom41.en.tmp) ****
             **** THE GBW FILE WAS UPDATED (41_Nb_atom41.gbw) ****
             **** DENSITY FILE WAS UPDATED (41_Nb_atom41.scfp) ****
----------------
ORBITAL ENERGIES
----------------

  NO   OCC          E(Eh)            E(eV) 
   0   2.0000      -2.950656       -80.2914 
   1   2.0000      -1.851848       -50.3913 
   2   2.0000      -1.839963       -50.0679 
   3   2.0000      -1.836452       -49.9724 
   4   2.0000      -0.432198       -11.7607 
   5   0.6000      -0.425251       -11.5717 
   6   0.6000      -0.356812        -9.7094 
   7   0.6000      -0.196124        -5.3368 
   8   0.6000      -0.182232        -4.9588 
   9   0.6000      -0.177876        -4.8403 
  10   0.0000      -0.193381        -5.2622 
  11   0.0000      -0.184690        -5.0257 
  12   0.0000      -0.160443        -4.3659 
  13   0.0000       0.022624         0.6156 
  14   0.0000       0.146474         3.9858 
  15   0.0000       0.163013         4.4358 
  16   0.0000       0.168682         4.5901 
  17   0.0000       0.175596         4.7782 
  18   0.0000       0.168262         4.5786 
  19   0.0000       0.192232         5.2309 
  20   0.0000       0.196218         5.3394 
  21   0.0000       0.209058         5.6888 
  22   0.0000       1.194781        32.5116 
  23   0.0000      36.355732       989.2898 
CleanUpVectors: The p-vectors have cracked symmetry
CleanUpVectors: The p-vectors have cracked symmetry
CleanUpVectors: The p-vectors have cracked symmetry
CleanUpVectors: The d-vectors have cracked symmetry at i=4
CleanUpVectors: The d-vectors have cracked symmetry at i=5
CleanUpVectors: The p-vectors have cracked symmetry
CleanUpVectors: The p-vectors have cracked symmetry
CleanUpVectors: The p-vectors have cracked symmetry
CleanUpVectors: The d-vectors have cracked symmetry at i=10
CleanUpVectors: The d-vectors have cracked symmetry at i=11
CleanUpVectors: The d-vectors have cracked symmetry at i=12
CleanUpVectors: The p-vectors have cracked symmetry
CleanUpVectors: The p-vectors have cracked symmetry
CleanUpVectors: The p-vectors have cracked symmetry
CleanUpVectors: The d-vectors have cracked symmetry at i=17
CleanUpVectors: The d-vectors have cracked symmetry at i=18
CleanUpVectors: The d-vectors have cracked symmetry at i=19
--------------------------
ATOM BASIS FOR ELEMENT Nb
--------------------------
 NewGTO Nb
 S 7
    1          6.566301000000        -0.441108258502
    2          4.586438000000         0.731310265222
    3          3.753770000000         0.169069308272
    4          0.841877174400        -0.885529511381
    5          0.381606661800        -0.384173008838
    6          0.085819911400        -0.005893959241
    7          0.032702330400         0.000421038135
 P 18
    1          3.070063000000         0.488518651868
    2          2.237964000000        -0.512889307021
    3          0.808019696700        -0.604145804093
    4          0.357833434300        -0.289193854057
    5          3.070063000000        -0.072271707289
    6          2.237964000000         0.075877114880
    7          0.808019696700         0.089377649239
    8          0.357833434300         0.042783491460
    9          3.070063000000         0.150740287011
   10          2.237964000000        -0.158260244618
   11          0.808019696700        -0.186418904493
   12          0.357833434300        -0.089235414852
   13          0.138200852800        -0.006716276892
   14          0.138200852800         0.000993609549
   15          0.138200852800        -0.002072415255
   16          0.036000000000        -0.002831549516
   17          0.036000000000         0.000418900930
   18          0.036000000000        -0.000873720144
 D 18
    1          6.566301000000         0.000299171948
    2          4.586438000000        -0.000710105065
    3          3.753770000000        -0.000200582752
    4          0.841877174400         0.007399134439
    5          0.381606661800         0.000645165483
    6          0.085819911400        -0.088425871447
    7          0.032702330400        -0.001317538084
    8          4.617097586700         0.001239243487
    9          1.566343848000        -0.018600150499
   10          0.669524258300        -0.039253308661
   11          0.271409468700        -0.038159903919
   12          4.617097586700        -0.004769384820
   13          1.566343848000         0.071585024555
   14          0.669524258300         0.151071307974
   15          0.271409468700         0.146863201954
   16          4.617097586700         0.000179691179
   17          1.566343848000        -0.002697034924
   18          0.669524258300        -0.005691757406
 P 18
    1          3.070063000000        -0.035133303086
    2          2.237964000000         0.036885992795
    3          0.808019696700         0.043448981041
    4          0.357833434300         0.020798254655
    5          3.070063000000         0.087697796312
    6          2.237964000000        -0.092072762842
    7          0.808019696700        -0.108454928931
    8          0.357833434300        -0.051915446034
    9          3.070063000000         0.155906186661
   10          2.237964000000        -0.163683854713
   11          0.808019696700        -0.192807517468
   12          0.357833434300        -0.092293530287
   13          0.138200852800        -0.083117385501
   14          0.138200852800         0.207472992953
   15          0.138200852800         0.368838494546
   16          0.036000000000        -0.143104867807
   17          0.036000000000         0.357210408522
   18          0.036000000000         0.635036625441
 D 18
    1          4.617097586700        -0.004977026405
    2          1.566343848000         0.074701574915
    3          0.669524258300         0.157648400631
    4          0.271409468700         0.153257089053
    5          4.617097586700        -0.009133835304
    6          1.566343848000         0.137092276923
    7          0.669524258300         0.289316232227
    8          0.271409468700         0.281257300355
    9          4.617097586700         0.003842740458
   10          1.566343848000        -0.057676761342
   11          0.669524258300        -0.121719644993
   12          0.271409468700        -0.118329132408
   13          4.617097586700        -0.000045178106
   14          1.566343848000         0.000678090769
   15          0.669524258300         0.001431026393
   16          0.271409468700         0.001391165013
   17          4.617097586700        -0.003649234969
   18          1.566343848000         0.054772383594
 D 18
    1          6.566301000000         0.000171913832
    2          4.586438000000        -0.000408049229
    3          3.753770000000        -0.000115261306
    4          0.841877174400         0.004945105793
    5          0.381606661800        -0.003951058743
    6          0.085819911400        -0.030420958982
    7          0.032702330400         0.006722253908
    8          4.617097586700         0.001681501280
    9          1.566343848000        -0.025238120834
   10          0.669524258300        -0.053261921037
   11          0.271409468700        -0.051778305031
   12          4.617097586700        -0.003371053369
   13          1.566343848000         0.050597078507
   14          0.669524258300         0.106778853222
   15          0.271409468700         0.103804517849
   16          4.617097586700         0.000610247485
   17          1.566343848000        -0.009159374393
   18          0.669524258300        -0.019329722640
 S 18
    1          6.566301000000        -0.664612723356
    2          4.586438000000         1.101856738385
    3          3.753770000000         0.254734775967
    4          0.841877174400        -3.675072398073
    5          0.381606661800         4.092948611888
    6          0.085819911400        -1.995894492917
    7          0.032702330400         0.837148988208
    8          4.617097586700         0.002286669879
    9          1.566343848000        -0.011643440711
   10          0.669524258300        -0.010503169122
   11          0.271409468700        -0.004139139272
   12          4.617097586700        -0.000835128729
   13          1.566343848000         0.004252372383
   14          0.669524258300         0.003835926803
   15          0.271409468700         0.001511680436
   16          4.617097586700         0.001272975748
   17          1.566343848000        -0.006481835347
   18          0.669524258300        -0.005847052822
 S 18
    1          6.566301000000        -1.385779756868
    2          4.586438000000         2.297474468006
    3          3.753770000000         0.531145859085
    4          0.841877174400        -1.428420757230
    5          0.381606661800         0.959470819714
    6          0.085819911400        -0.314148682753
    7          0.032702330400         0.128688899615
    8          4.617097586700        -0.000013969983
    9          1.566343848000         0.000071133427
   10          0.669524258300         0.000064167151
   11          0.271409468700         0.000025287299
   12          4.617097586700         0.000005356740
   13          1.566343848000        -0.000027275860
   14          0.669524258300        -0.000024604666
   15          0.271409468700        -0.000009696325
   16          4.617097586700        -0.000007746908
   17          1.566343848000         0.000039446300
   18          0.669524258300         0.000035583224
 end
  // -----------------------------------------------
  // The basis set
  // -----------------------------------------------
  BAS[ATNO] = new BFNGauss[NSH];
  // Basis function   1 L = s
  InitBFNGauss(BAS[ATNO][  0]);
  BAS[ATNO][  0].l  = 0;
  BAS[ATNO][  0].ng = 7;
  BAS[ATNO][  0].a[  0] =         6.566301000000;     BAS[ATNO][  0].d[  0] =         0.441108258502;
  BAS[ATNO][  0].a[  1] =         4.586438000000;     BAS[ATNO][  0].d[  1] =        -0.731310265222;
  BAS[ATNO][  0].a[  2] =         3.753770000000;     BAS[ATNO][  0].d[  2] =        -0.169069308272;
  BAS[ATNO][  0].a[  3] =         0.841877174400;     BAS[ATNO][  0].d[  3] =         0.885529511381;
  BAS[ATNO][  0].a[  4] =         0.381606661800;     BAS[ATNO][  0].d[  4] =         0.384173008838;
  BAS[ATNO][  0].a[  5] =         0.085819911400;     BAS[ATNO][  0].d[  5] =         0.005893959241;
  BAS[ATNO][  0].a[  6] =         0.032702330400;     BAS[ATNO][  0].d[  6] =        -0.000421038135;

  // Basis function   2 L = p
  InitBFNGauss(BAS[ATNO][  1]);
  BAS[ATNO][  1].l  = 1;
  BAS[ATNO][  1].ng = 18;
  BAS[ATNO][  1].a[  0] =         3.070063000000;     BAS[ATNO][  1].d[  0] =        -0.488518651868;
  BAS[ATNO][  1].a[  1] =         2.237964000000;     BAS[ATNO][  1].d[  1] =         0.512889307021;
  BAS[ATNO][  1].a[  2] =         0.808019696700;     BAS[ATNO][  1].d[  2] =         0.604145804093;
  BAS[ATNO][  1].a[  3] =         0.357833434300;     BAS[ATNO][  1].d[  3] =         0.289193854057;
  BAS[ATNO][  1].a[  4] =         3.070063000000;     BAS[ATNO][  1].d[  4] =         0.072271707289;
  BAS[ATNO][  1].a[  5] =         2.237964000000;     BAS[ATNO][  1].d[  5] =        -0.075877114880;
  BAS[ATNO][  1].a[  6] =         0.808019696700;     BAS[ATNO][  1].d[  6] =        -0.089377649239;
  BAS[ATNO][  1].a[  7] =         0.357833434300;     BAS[ATNO][  1].d[  7] =        -0.042783491460;
  BAS[ATNO][  1].a[  8] =         3.070063000000;     BAS[ATNO][  1].d[  8] =        -0.150740287011;
  BAS[ATNO][  1].a[  9] =         2.237964000000;     BAS[ATNO][  1].d[  9] =         0.158260244618;
  BAS[ATNO][  1].a[ 10] =         0.808019696700;     BAS[ATNO][  1].d[ 10] =         0.186418904493;
  BAS[ATNO][  1].a[ 11] =         0.357833434300;     BAS[ATNO][  1].d[ 11] =         0.089235414852;
  BAS[ATNO][  1].a[ 12] =         0.138200852800;     BAS[ATNO][  1].d[ 12] =         0.006716276892;
  BAS[ATNO][  1].a[ 13] =         0.138200852800;     BAS[ATNO][  1].d[ 13] =        -0.000993609549;
  BAS[ATNO][  1].a[ 14] =         0.138200852800;     BAS[ATNO][  1].d[ 14] =         0.002072415255;
  BAS[ATNO][  1].a[ 15] =         0.036000000000;     BAS[ATNO][  1].d[ 15] =         0.002831549516;
  BAS[ATNO][  1].a[ 16] =         0.036000000000;     BAS[ATNO][  1].d[ 16] =        -0.000418900930;
  BAS[ATNO][  1].a[ 17] =         0.036000000000;     BAS[ATNO][  1].d[ 17] =         0.000873720144;

  // Basis function   3 L = d
  InitBFNGauss(BAS[ATNO][  2]);
  BAS[ATNO][  2].l  = 2;
  BAS[ATNO][  2].ng = 18;
  BAS[ATNO][  2].a[  0] =         6.566301000000;     BAS[ATNO][  2].d[  0] =         0.000299171948;
  BAS[ATNO][  2].a[  1] =         4.586438000000;     BAS[ATNO][  2].d[  1] =        -0.000710105065;
  BAS[ATNO][  2].a[  2] =         3.753770000000;     BAS[ATNO][  2].d[  2] =        -0.000200582752;
  BAS[ATNO][  2].a[  3] =         0.841877174400;     BAS[ATNO][  2].d[  3] =         0.007399134439;
  BAS[ATNO][  2].a[  4] =         0.381606661800;     BAS[ATNO][  2].d[  4] =         0.000645165483;
  BAS[ATNO][  2].a[  5] =         0.085819911400;     BAS[ATNO][  2].d[  5] =        -0.088425871447;
  BAS[ATNO][  2].a[  6] =         0.032702330400;     BAS[ATNO][  2].d[  6] =        -0.001317538084;
  BAS[ATNO][  2].a[  7] =         4.617097586700;     BAS[ATNO][  2].d[  7] =         0.001239243487;
  BAS[ATNO][  2].a[  8] =         1.566343848000;     BAS[ATNO][  2].d[  8] =        -0.018600150499;
  BAS[ATNO][  2].a[  9] =         0.669524258300;     BAS[ATNO][  2].d[  9] =        -0.039253308661;
  BAS[ATNO][  2].a[ 10] =         0.271409468700;     BAS[ATNO][  2].d[ 10] =        -0.038159903919;
  BAS[ATNO][  2].a[ 11] =         4.617097586700;     BAS[ATNO][  2].d[ 11] =        -0.004769384820;
  BAS[ATNO][  2].a[ 12] =         1.566343848000;     BAS[ATNO][  2].d[ 12] =         0.071585024555;
  BAS[ATNO][  2].a[ 13] =         0.669524258300;     BAS[ATNO][  2].d[ 13] =         0.151071307974;
  BAS[ATNO][  2].a[ 14] =         0.271409468700;     BAS[ATNO][  2].d[ 14] =         0.146863201954;
  BAS[ATNO][  2].a[ 15] =         4.617097586700;     BAS[ATNO][  2].d[ 15] =         0.000179691179;
  BAS[ATNO][  2].a[ 16] =         1.566343848000;     BAS[ATNO][  2].d[ 16] =        -0.002697034924;
  BAS[ATNO][  2].a[ 17] =         0.669524258300;     BAS[ATNO][  2].d[ 17] =        -0.005691757406;

  // Basis function   4 L = p
  InitBFNGauss(BAS[ATNO][  3]);
  BAS[ATNO][  3].l  = 1;
  BAS[ATNO][  3].ng = 18;
  BAS[ATNO][  3].a[  0] =         3.070063000000;     BAS[ATNO][  3].d[  0] =        -0.035133303086;
  BAS[ATNO][  3].a[  1] =         2.237964000000;     BAS[ATNO][  3].d[  1] =         0.036885992795;
  BAS[ATNO][  3].a[  2] =         0.808019696700;     BAS[ATNO][  3].d[  2] =         0.043448981041;
  BAS[ATNO][  3].a[  3] =         0.357833434300;     BAS[ATNO][  3].d[  3] =         0.020798254655;
  BAS[ATNO][  3].a[  4] =         3.070063000000;     BAS[ATNO][  3].d[  4] =         0.087697796312;
  BAS[ATNO][  3].a[  5] =         2.237964000000;     BAS[ATNO][  3].d[  5] =        -0.092072762842;
  BAS[ATNO][  3].a[  6] =         0.808019696700;     BAS[ATNO][  3].d[  6] =        -0.108454928931;
  BAS[ATNO][  3].a[  7] =         0.357833434300;     BAS[ATNO][  3].d[  7] =        -0.051915446034;
  BAS[ATNO][  3].a[  8] =         3.070063000000;     BAS[ATNO][  3].d[  8] =         0.155906186661;
  BAS[ATNO][  3].a[  9] =         2.237964000000;     BAS[ATNO][  3].d[  9] =        -0.163683854713;
  BAS[ATNO][  3].a[ 10] =         0.808019696700;     BAS[ATNO][  3].d[ 10] =        -0.192807517468;
  BAS[ATNO][  3].a[ 11] =         0.357833434300;     BAS[ATNO][  3].d[ 11] =        -0.092293530287;
  BAS[ATNO][  3].a[ 12] =         0.138200852800;     BAS[ATNO][  3].d[ 12] =        -0.083117385501;
  BAS[ATNO][  3].a[ 13] =         0.138200852800;     BAS[ATNO][  3].d[ 13] =         0.207472992953;
  BAS[ATNO][  3].a[ 14] =         0.138200852800;     BAS[ATNO][  3].d[ 14] =         0.368838494546;
  BAS[ATNO][  3].a[ 15] =         0.036000000000;     BAS[ATNO][  3].d[ 15] =        -0.143104867807;
  BAS[ATNO][  3].a[ 16] =         0.036000000000;     BAS[ATNO][  3].d[ 16] =         0.357210408522;
  BAS[ATNO][  3].a[ 17] =         0.036000000000;     BAS[ATNO][  3].d[ 17] =         0.635036625441;

  // Basis function   5 L = d
  InitBFNGauss(BAS[ATNO][  4]);
  BAS[ATNO][  4].l  = 2;
  BAS[ATNO][  4].ng = 18;
  BAS[ATNO][  4].a[  0] =         4.617097586700;     BAS[ATNO][  4].d[  0] =        -0.004977026405;
  BAS[ATNO][  4].a[  1] =         1.566343848000;     BAS[ATNO][  4].d[  1] =         0.074701574915;
  BAS[ATNO][  4].a[  2] =         0.669524258300;     BAS[ATNO][  4].d[  2] =         0.157648400631;
  BAS[ATNO][  4].a[  3] =         0.271409468700;     BAS[ATNO][  4].d[  3] =         0.153257089053;
  BAS[ATNO][  4].a[  4] =         4.617097586700;     BAS[ATNO][  4].d[  4] =        -0.009133835304;
  BAS[ATNO][  4].a[  5] =         1.566343848000;     BAS[ATNO][  4].d[  5] =         0.137092276923;
  BAS[ATNO][  4].a[  6] =         0.669524258300;     BAS[ATNO][  4].d[  6] =         0.289316232227;
  BAS[ATNO][  4].a[  7] =         0.271409468700;     BAS[ATNO][  4].d[  7] =         0.281257300355;
  BAS[ATNO][  4].a[  8] =         4.617097586700;     BAS[ATNO][  4].d[  8] =         0.003842740458;
  BAS[ATNO][  4].a[  9] =         1.566343848000;     BAS[ATNO][  4].d[  9] =        -0.057676761342;
  BAS[ATNO][  4].a[ 10] =         0.669524258300;     BAS[ATNO][  4].d[ 10] =        -0.121719644993;
  BAS[ATNO][  4].a[ 11] =         0.271409468700;     BAS[ATNO][  4].d[ 11] =        -0.118329132408;
  BAS[ATNO][  4].a[ 12] =         4.617097586700;     BAS[ATNO][  4].d[ 12] =        -0.000045178106;
  BAS[ATNO][  4].a[ 13] =         1.566343848000;     BAS[ATNO][  4].d[ 13] =         0.000678090769;
  BAS[ATNO][  4].a[ 14] =         0.669524258300;     BAS[ATNO][  4].d[ 14] =         0.001431026393;
  BAS[ATNO][  4].a[ 15] =         0.271409468700;     BAS[ATNO][  4].d[ 15] =         0.001391165013;
  BAS[ATNO][  4].a[ 16] =         4.617097586700;     BAS[ATNO][  4].d[ 16] =        -0.003649234969;
  BAS[ATNO][  4].a[ 17] =         1.566343848000;     BAS[ATNO][  4].d[ 17] =         0.054772383594;

  // Basis function   6 L = d
  InitBFNGauss(BAS[ATNO][  5]);
  BAS[ATNO][  5].l  = 2;
  BAS[ATNO][  5].ng = 18;
  BAS[ATNO][  5].a[  0] =         6.566301000000;     BAS[ATNO][  5].d[  0] =         0.000171913832;
  BAS[ATNO][  5].a[  1] =         4.586438000000;     BAS[ATNO][  5].d[  1] =        -0.000408049229;
  BAS[ATNO][  5].a[  2] =         3.753770000000;     BAS[ATNO][  5].d[  2] =        -0.000115261306;
  BAS[ATNO][  5].a[  3] =         0.841877174400;     BAS[ATNO][  5].d[  3] =         0.004945105793;
  BAS[ATNO][  5].a[  4] =         0.381606661800;     BAS[ATNO][  5].d[  4] =        -0.003951058743;
  BAS[ATNO][  5].a[  5] =         0.085819911400;     BAS[ATNO][  5].d[  5] =        -0.030420958982;
  BAS[ATNO][  5].a[  6] =         0.032702330400;     BAS[ATNO][  5].d[  6] =         0.006722253908;
  BAS[ATNO][  5].a[  7] =         4.617097586700;     BAS[ATNO][  5].d[  7] =         0.001681501280;
  BAS[ATNO][  5].a[  8] =         1.566343848000;     BAS[ATNO][  5].d[  8] =        -0.025238120834;
  BAS[ATNO][  5].a[  9] =         0.669524258300;     BAS[ATNO][  5].d[  9] =        -0.053261921037;
  BAS[ATNO][  5].a[ 10] =         0.271409468700;     BAS[ATNO][  5].d[ 10] =        -0.051778305031;
  BAS[ATNO][  5].a[ 11] =         4.617097586700;     BAS[ATNO][  5].d[ 11] =        -0.003371053369;
  BAS[ATNO][  5].a[ 12] =         1.566343848000;     BAS[ATNO][  5].d[ 12] =         0.050597078507;
  BAS[ATNO][  5].a[ 13] =         0.669524258300;     BAS[ATNO][  5].d[ 13] =         0.106778853222;
  BAS[ATNO][  5].a[ 14] =         0.271409468700;     BAS[ATNO][  5].d[ 14] =         0.103804517849;
  BAS[ATNO][  5].a[ 15] =         4.617097586700;     BAS[ATNO][  5].d[ 15] =         0.000610247485;
  BAS[ATNO][  5].a[ 16] =         1.566343848000;     BAS[ATNO][  5].d[ 16] =        -0.009159374393;
  BAS[ATNO][  5].a[ 17] =         0.669524258300;     BAS[ATNO][  5].d[ 17] =        -0.019329722640;

  // Basis function   7 L = s
  InitBFNGauss(BAS[ATNO][  6]);
  BAS[ATNO][  6].l  = 0;
  BAS[ATNO][  6].ng = 18;
  BAS[ATNO][  6].a[  0] =         6.566301000000;     BAS[ATNO][  6].d[  0] =        -0.664612723356;
  BAS[ATNO][  6].a[  1] =         4.586438000000;     BAS[ATNO][  6].d[  1] =         1.101856738385;
  BAS[ATNO][  6].a[  2] =         3.753770000000;     BAS[ATNO][  6].d[  2] =         0.254734775967;
  BAS[ATNO][  6].a[  3] =         0.841877174400;     BAS[ATNO][  6].d[  3] =        -3.675072398073;
  BAS[ATNO][  6].a[  4] =         0.381606661800;     BAS[ATNO][  6].d[  4] =         4.092948611888;
  BAS[ATNO][  6].a[  5] =         0.085819911400;     BAS[ATNO][  6].d[  5] =        -1.995894492917;
  BAS[ATNO][  6].a[  6] =         0.032702330400;     BAS[ATNO][  6].d[  6] =         0.837148988208;
  BAS[ATNO][  6].a[  7] =         4.617097586700;     BAS[ATNO][  6].d[  7] =         0.002286669879;
  BAS[ATNO][  6].a[  8] =         1.566343848000;     BAS[ATNO][  6].d[  8] =        -0.011643440711;
  BAS[ATNO][  6].a[  9] =         0.669524258300;     BAS[ATNO][  6].d[  9] =        -0.010503169122;
  BAS[ATNO][  6].a[ 10] =         0.271409468700;     BAS[ATNO][  6].d[ 10] =        -0.004139139272;
  BAS[ATNO][  6].a[ 11] =         4.617097586700;     BAS[ATNO][  6].d[ 11] =        -0.000835128729;
  BAS[ATNO][  6].a[ 12] =         1.566343848000;     BAS[ATNO][  6].d[ 12] =         0.004252372383;
  BAS[ATNO][  6].a[ 13] =         0.669524258300;     BAS[ATNO][  6].d[ 13] =         0.003835926803;
  BAS[ATNO][  6].a[ 14] =         0.271409468700;     BAS[ATNO][  6].d[ 14] =         0.001511680436;
  BAS[ATNO][  6].a[ 15] =         4.617097586700;     BAS[ATNO][  6].d[ 15] =         0.001272975748;
  BAS[ATNO][  6].a[ 16] =         1.566343848000;     BAS[ATNO][  6].d[ 16] =        -0.006481835347;
  BAS[ATNO][  6].a[ 17] =         0.669524258300;     BAS[ATNO][  6].d[ 17] =        -0.005847052822;

  // Basis function   8 L = s
  InitBFNGauss(BAS[ATNO][  7]);
  BAS[ATNO][  7].l  = 0;
  BAS[ATNO][  7].ng = 18;
  BAS[ATNO][  7].a[  0] =         6.566301000000;     BAS[ATNO][  7].d[  0] =        -1.385779756868;
  BAS[ATNO][  7].a[  1] =         4.586438000000;     BAS[ATNO][  7].d[  1] =         2.297474468006;
  BAS[ATNO][  7].a[  2] =         3.753770000000;     BAS[ATNO][  7].d[  2] =         0.531145859085;
  BAS[ATNO][  7].a[  3] =         0.841877174400;     BAS[ATNO][  7].d[  3] =        -1.428420757230;
  BAS[ATNO][  7].a[  4] =         0.381606661800;     BAS[ATNO][  7].d[  4] =         0.959470819714;
  BAS[ATNO][  7].a[  5] =         0.085819911400;     BAS[ATNO][  7].d[  5] =        -0.314148682753;
  BAS[ATNO][  7].a[  6] =         0.032702330400;     BAS[ATNO][  7].d[  6] =         0.128688899615;
  BAS[ATNO][  7].a[  7] =         4.617097586700;     BAS[ATNO][  7].d[  7] =        -0.000013969983;
  BAS[ATNO][  7].a[  8] =         1.566343848000;     BAS[ATNO][  7].d[  8] =         0.000071133427;
  BAS[ATNO][  7].a[  9] =         0.669524258300;     BAS[ATNO][  7].d[  9] =         0.000064167151;
  BAS[ATNO][  7].a[ 10] =         0.271409468700;     BAS[ATNO][  7].d[ 10] =         0.000025287299;
  BAS[ATNO][  7].a[ 11] =         4.617097586700;     BAS[ATNO][  7].d[ 11] =         0.000005356740;
  BAS[ATNO][  7].a[ 12] =         1.566343848000;     BAS[ATNO][  7].d[ 12] =        -0.000027275860;
  BAS[ATNO][  7].a[ 13] =         0.669524258300;     BAS[ATNO][  7].d[ 13] =        -0.000024604666;
  BAS[ATNO][  7].a[ 14] =         0.271409468700;     BAS[ATNO][  7].d[ 14] =        -0.000009696325;
  BAS[ATNO][  7].a[ 15] =         4.617097586700;     BAS[ATNO][  7].d[ 15] =        -0.000007746908;
  BAS[ATNO][  7].a[ 16] =         1.566343848000;     BAS[ATNO][  7].d[ 16] =         0.000039446300;
  BAS[ATNO][  7].a[ 17] =         0.669524258300;     BAS[ATNO][  7].d[ 17] =         0.000035583224;

-------------------------------------------
RADIAL EXPECTATION VALUES <R**-3> TO <R**3>
-------------------------------------------
   0 :     0.000000     0.970486     0.936412     1.178841     1.532272     2.193117
   1 :     0.877285     0.815290     0.852962     1.309960     1.913023     3.107515
   2 :     0.874186     0.812940     0.851455     1.313514     1.925992     3.146951
   3 :     0.873487     0.812410     0.851115     1.314313     1.928893     3.155672
   4 :     0.414827     0.462757     0.621916     1.916375     4.357465    58.251404
   5 :     0.000000     0.119459     0.263507     2.775878    11.143753    50.057565
   6 :     0.000000     0.073429     0.213103     5.984393    40.461584   293.909892
   7 :     0.308599     0.383850     0.550319     2.305506     6.647650    66.570379
   8 :     0.063588     0.100983     0.267945     4.573164    24.254400   145.584245
   9 :     0.059081     0.095319     0.259997     4.701977    25.534784   156.146522
  10 :     0.057279     0.093165     0.257101     4.747693    25.989091   159.900352
  11 :     0.326983     0.381239     0.552486     2.264424     6.334566   106.459654
  12 :     0.322021     0.376566     0.548417     2.285972     6.460510   109.605247
  13 :     0.308897     0.364171     0.537585     2.343843     6.800212   118.122722
  14 :     0.113118     0.142727     0.295044     4.898595    30.180699   212.322927
  15 :     0.120724     0.150741     0.304500     4.766227    28.887345   201.721213
  16 :     0.123225     0.153425     0.307736     4.719713    28.430137   197.958663
  17 :     0.137653     0.167553     0.326592     3.970491    17.796251   426.323144
  18 :     0.154316     0.182902     0.339411     3.909414    17.458945   418.296947
  19 :     0.225733     0.249099     0.396071     3.622159    15.817845   378.219066
  20 :     0.230694     0.253772     0.400140     3.600611    15.691902   375.073474
  21 :     0.243818     0.266167     0.410973     3.542740    15.352199   366.555999
  22 :     0.000044     0.543217     0.614678     2.442066     9.005198    47.211010
  23 :     0.000000    11.987372     2.817113     0.498924     0.475958     1.326087
Making the total density                ... o.k.
o.k.
Initializing the integrals              ... done
Making exponents                        ... done
Making rho(0)                           ... done (         0.000844630)
Integral calculation                    ... Two index integrals                     ... done
Solving the equation system             ... done
atomic density will be written to file 41_Nb_atom41.adf

-------
TIMINGS
-------

Total SCF time: 0 days 0 hours 0 min 0 sec 

Total time                  ....       0.897 sec
Sum of individual times     ....       0.407 sec  ( 45.4%)

Fock matrix formation       ....       0.299 sec  ( 33.3%)
Diagonalization             ....       0.045 sec  (  5.0%)
Density matrix formation    ....       0.001 sec  (  0.1%)
Population analysis         ....       0.000 sec  (  0.0%)
Initial guess               ....       0.000 sec  (  0.0%)
Orbital Transformation      ....       0.000 sec  (  0.0%)
Orbital Orthonormalization  ....       0.000 sec  (  0.0%)
DIIS solution               ....       0.063 sec  (  7.0%)

-------------------------   --------------------
FINAL SINGLE POINT ENERGY       -56.015328303820
-------------------------   --------------------


                            ***************************************
                            *     ORCA property calculations      *
                            ***************************************

                                    ---------------------
                                    Active property flags
                                    ---------------------
   (+) Dipole Moment


------------------------------------------------------------------------------
                       ORCA ELECTRIC PROPERTIES CALCULATION
------------------------------------------------------------------------------

Dipole Moment Calculation                       ... on
Quadrupole Moment Calculation                   ... off
Polarizability Calculation                      ... off
GBWName                                         ... 41_Nb_atom41.gbw
Electron density file                           ... 41_Nb_atom41.scfp
The origin for moment calculation is the CENTER OF MASS  = ( 0.000000,  0.000000  0.000000)

-------------
DIPOLE MOMENT
-------------
                                X             Y             Z
Electronic contribution:      0.00000      -0.00000      -0.00000
Nuclear contribution   :      0.00000       0.00000       0.00000
                        -----------------------------------------
Total Dipole Moment    :      0.00000      -0.00000      -0.00000
                        -----------------------------------------
Magnitude (a.u.)       :      0.00000
Magnitude (Debye)      :      0.00000



--------------------
Rotational spectrum 
--------------------
 
Rotational constants in cm-1:     0.000000     0.000000     0.000000 
Rotational constants in MHz :     0.000000     0.000000     0.000000 

 Dipole components along the rotational axes: 
x,y,z [a.u.] :     0.000000    -0.000000    -0.000000 
x,y,z [Debye]:     0.000000    -0.000000    -0.000000 

 

Timings for individual modules:

Sum of individual times         ...        1.218 sec (=   0.020 min)
GTO integral calculation        ...        0.290 sec (=   0.005 min)  23.8 %
SCF iterations                  ...        0.929 sec (=   0.015 min)  76.2 %
                             ****ORCA TERMINATED NORMALLY****
TOTAL RUN TIME: 0 days 0 hours 0 minutes 1 seconds 478 msec
