
                                 *****************
                                 * O   R   C   A *
                                 *****************

           --- An Ab Initio, DFT and Semiempirical electronic structure package ---

                  #######################################################
                  #                        -***-                        #
                  #          Department of theory and spectroscopy      #
                  #               Directorship: Frank Neese             #
                  #        Max Planck Institute fuer Kohlenforschung    #
                  #                Kaiser Wilhelm Platz 1               #
                  #                 D-45470 Muelheim/Ruhr               #
                  #                      Germany                        #
                  #                                                     #
                  #                  All rights reserved                #
                  #                        -***-                        #
                  #######################################################


                         Program Version 4.2.0 -  RELEASE  -


 With contributions from (in alphabetic order):
   Daniel Aravena         : Magnetic Suceptibility
   Michael Atanasov       : Ab Initio Ligand Field Theory (pilot matlab implementation)
   Alexander A. Auer      : GIAO ZORA, VPT2
   Ute Becker             : Parallelization
   Giovanni Bistoni       : ED, misc. LED, open-shell LED, HFLED
   Martin Brehm           : Molecular dynamics
   Dmytro Bykov           : SCF Hessian
   Vijay G. Chilkuri      : MRCI spin determinant printing, contributions to CSF-ICE
   Dipayan Datta          : RHF DLPNO-CCSD density
   Achintya Kumar Dutta   : EOM-CC, STEOM-CC
   Dmitry Ganyushin       : Spin-Orbit,Spin-Spin,Magnetic field MRCI
   Miquel Garcia          : C-PCM Hessian, Gaussian charge scheme
   Yang Guo               : DLPNO-NEVPT2, CIM, IAO-localization
   Andreas Hansen         : Spin unrestricted coupled pair/coupled cluster methods
   Benjamin Helmich-Paris : CASSCF linear response (MC-RPA)
   Lee Huntington         : MR-EOM, pCC
   Robert Izsak           : Overlap fitted RIJCOSX, COSX-SCS-MP3, EOM
   Christian Kollmar      : KDIIS, OOCD, Brueckner-CCSD(T), CCSD density
   Simone Kossmann        : Meta GGA functionals, TD-DFT gradient, OOMP2, MP2 Hessian
   Martin Krupicka        : AUTO-CI
   Lucas Lang             : DCDCAS
   Dagmar Lenk            : GEPOL surface, SMD
   Dimitrios Liakos       : Extrapolation schemes; Compound Job, initial MDCI parallelization
   Dimitrios Manganas     : Further ROCIS development; embedding schemes
   Dimitrios Pantazis     : SARC Basis sets
   Taras Petrenko         : DFT Hessian,TD-DFT gradient, ASA, ECA, R-Raman, ABS, FL, XAS/XES, NRVS
   Peter Pinski           : DLPNO-MP2, DLPNO-MP2 Gradient
   Christoph Reimann      : Effective Core Potentials
   Marius Retegan         : Local ZFS, SOC
   Christoph Riplinger    : Optimizer, TS searches, QM/MM, DLPNO-CCSD(T), (RO)-DLPNO pert. Triples
   Tobias Risthaus        : Range-separated hybrids, TD-DFT gradient, RPA, STAB
   Michael Roemelt        : Original ROCIS implementation
   Masaaki Saitow         : Open-shell DLPNO-CCSD energy and density
   Barbara Sandhoefer     : DKH picture change effects
   Avijit Sen             : IP-ROCIS
   Kantharuban Sivalingam : CASSCF convergence, NEVPT2, FIC-MRCI
   Bernardo de Souza      : ESD, SOC TD-DFT
   Georgi Stoychev        : AutoAux, RI-MP2 NMR
   Willem Van den Heuvel  : Paramagnetic NMR
   Boris Wezisla          : Elementary symmetry handling
   Frank Wennmohs         : Technical directorship


 We gratefully acknowledge several colleagues who have allowed us to
 interface, adapt or use parts of their codes:
   Stefan Grimme, W. Hujo, H. Kruse,             : VdW corrections, initial TS optimization,
                  C. Bannwarth                     DFT functionals, gCP, sTDA/sTD-DF
   Ed Valeev, F. Pavosevic, A. Kumar             : LibInt (2-el integral package), F12 methods
   Garnet Chan, S. Sharma, J. Yang, R. Olivares  : DMRG
   Ulf Ekstrom                                   : XCFun DFT Library
   Mihaly Kallay                                 : mrcc  (arbitrary order and MRCC methods)
   Andreas Klamt, Michael Diedenhofen            : otool_cosmo (COSMO solvation model)
   Jiri Pittner, Ondrej Demel                    : Mk-CCSD
   Frank Weinhold                                : gennbo (NPA and NBO analysis)
   Christopher J. Cramer and Donald G. Truhlar   : smd solvation model
   Lars Goerigk                                  : TD-DFT with DH, B97 family of functionals
   V. Asgeirsson, H. Jonsson                     : NEB implementation
   FAccTs GmbH                                   : IRC, NEB, NEB-TS, Multilevel, MM, QM/MM, CI optimization
   S Lehtola, MJT Oliveira, MAL Marques          : LibXC Library


 Your calculation uses the libint2 library for the computation of 2-el integrals
 For citations please refer to: http://libint.valeyev.net

 Your ORCA version has been built with support for libXC version: 4.2.3
 For citations please refer to: https://tddft.org/programs/libxc/

 This ORCA versions uses:
   CBLAS   interface :  Fast vector & matrix operations
   LAPACKE interface :  Fast linear algebra routines
   SCALAPACK package :  Parallel linear algebra routines


----- Orbital basis set information -----
Your calculation utilizes the basis: def2-SVP
   F. Weigend and R. Ahlrichs, Phys. Chem. Chem. Phys. 7, 3297 (2005).

cite the ECPs for Nb [Def2-ECP] as follows:
Ce-Yb(ecp-28): M. Dolg, H. Stoll, H.Preuss, J. Chem. Phys., 1989, 90, 1730-1734.
Y-Cd(ecp-28), Hf-Hg(ecp-46): D. Andrae,U. Haeussermann, M. Dolg, H. Stoll, H. Preuss, Theor. Chim. Acta, 1990, 77, 123-141.
In-Sb(ecp-28), Tl-Bi(ecp-46): B. Metz, H. Stoll, M. Dolg, J. Chem. Phys., 2000, 113, 2563-2569.
Te-Xe(ecp-28), Po-Rn(ecp-46): K. A. Peterson, D. Figgen, E. Goll, H. Stoll, M. Dolg, J. Chem. Phys., 2003, 119, 11113-11123.
Rb(ecp-28), Cs(ecp-46): T. Leininger, A. Nicklass, W. Kuechle, H. Stoll, M. Dolg, A. Bergner, Chem. Phys. Lett., 1996, 255, 274-280.
Sr(ecp-28), Ba(ecp-46): M. Kaupp, P. V. Schleyer, H. Stoll and H. Preuss, J. Chem. Phys., 1991, 94, 1360-1366.
La(ecp-46): M. Dolg, H. Stoll, A. Savin, H. Preuss, Theor. Chim. Acta, 1989, 75, 173-194.
Lu(ecp-28): X. Cao, M. Dolg, J. Chem. Phys., 2001, 115, 7348-7355.

ECP parameters for Nb [Def2-ECP] have been obtained from:
TURBOMOLE (7.0.2)

================================================================================
                                        WARNINGS
                       Please study these warnings very carefully!
================================================================================


WARNING: your system is open-shell and RHF/RKS was chosen
  ===> : WILL SWITCH to UHF/UKS


WARNING: MDCI localization with Augmented Hessian Foster-Boys
  ===> : Switching off randomization!

WARNING: Post HF methods need fully converged wavefunctions
  ===> : Setting SCFConvForced true
         You can overwrite this default with %scf ConvForced false 


INFO   : the flag for use of LIBINT has been found!

================================================================================
                                       INPUT FILE
================================================================================
NAME = 41_Nb.in
|  1> #
|  2> # 41_Nb CCSD(T)/Def2-SVP
|  3> #
|  4> ! CCSD(T) Def2-SVP tightscf
|  5> 
|  6> *xyz 0 6
|  7>  Nb 0.0 0.0 0.0
|  8> *
|  9> 
| 10> %maxcore 5000 
| 11> 
| 12> %pal
| 13> nprocs 24
| 14> end
| 15> 
| 16> 
| 17>                          ****END OF INPUT****
================================================================================

                       ****************************
                       * Single Point Calculation *
                       ****************************

---------------------------------
CARTESIAN COORDINATES (ANGSTROEM)
---------------------------------
  Nb     0.000000    0.000000    0.000000

----------------------------
CARTESIAN COORDINATES (A.U.)
----------------------------
  NO LB      ZA    FRAG     MASS         X           Y           Z
   0 Nb   13.0000*   0    92.910    0.000000    0.000000    0.000000
* core charge reduced due to ECP

--------------------------------
INTERNAL COORDINATES (ANGSTROEM)
--------------------------------
 Nb     0   0   0     0.000000000000     0.00000000     0.00000000

---------------------------
INTERNAL COORDINATES (A.U.)
---------------------------
 Nb     0   0   0     0.000000000000     0.00000000     0.00000000

---------------------
BASIS SET INFORMATION
---------------------
There are 1 groups of distinct atoms

 Group   1 Type Nb  : 7s6p5d1f contracted to 5s3p2d1f pattern {31111/411/41/1}

Atom   0Nb   basis set group =>   1
-------------------------
ECP PARAMETER INFORMATION
-------------------------

 Group 1, Type Nb ECP Def2-ECP (replacing 28 core electrons, lmax=3)

Atom   0Nb   ECP group =>   1



           ************************************************************
           *        Program running with 24 parallel MPI-processes    *
           *              working on a common directory               *
           ************************************************************
------------------------------------------------------------------------------
                           ORCA GTO INTEGRAL CALCULATION
------------------------------------------------------------------------------

                         BASIS SET STATISTICS AND STARTUP INFO

 # of primitive gaussian shells          ...   19
 # of primitive gaussian functions       ...   57
 # of contracted shells                  ...   11
 # of contracted basis functions         ...   31
 Highest angular momentum                ...    3
 Maximum contraction depth               ...    4
 Integral package used                   ... LIBINT
 Integral threshhold            Thresh   ...  2.500e-11
 Primitive cut-off              TCut     ...  2.500e-12


------------------------------ INTEGRAL EVALUATION ----------------------------


 * One electron integrals 

   ECP integrals                         ... done
 Pre-screening matrix                    ... done
 Shell pair data                         ... done (   0.000 sec)



           ************************************************************
           *        Program running with 24 parallel MPI-processes    *
           *              working on a common directory               *
           ************************************************************
-------------------------------------------------------------------------------
                                 ORCA SCF
-------------------------------------------------------------------------------

------------
SCF SETTINGS
------------
Hamiltonian:
 Ab initio Hamiltonian  Method          .... Hartree-Fock(GTOs)


General Settings:
 Integral files         IntName         .... 41_Nb
 Hartree-Fock type      HFTyp           .... UHF
 Total Charge           Charge          ....    0
 Multiplicity           Mult            ....    6
 Number of Electrons    NEL             ....   13
 Basis Dimension        Dim             ....   31
 Nuclear Repulsion      ENuc            ....      0.0000000000 Eh

Convergence Acceleration:
 DIIS                   CNVDIIS         .... on
   Start iteration      DIISMaxIt       ....    12
   Startup error        DIISStart       ....  0.200000
   # of expansion vecs  DIISMaxEq       ....     5
   Bias factor          DIISBfac        ....   1.050
   Max. coefficient     DIISMaxC        ....  10.000
 Newton-Raphson         CNVNR           .... off
 SOSCF                  CNVSOSCF        .... off
 Level Shifting         CNVShift        .... on
   Level shift para.    LevelShift      ....    0.2500
   Turn off err/grad.   ShiftErr        ....    0.0010
 Zerner damping         CNVZerner       .... off
 Static damping         CNVDamp         .... on
   Fraction old density DampFac         ....    0.7000
   Max. Damping (<1)    DampMax         ....    0.9800
   Min. Damping (>=0)   DampMin         ....    0.0000
   Turn off err/grad.   DampErr         ....    0.1000
 Fernandez-Rico         CNVRico         .... off

SCF Procedure:
 Maximum # iterations   MaxIter         ....   125
 SCF integral mode      SCFMode         .... Direct
   Integral package                     .... LIBINT
 Reset frequency        DirectResetFreq ....    20
 Integral Threshold     Thresh          ....  2.500e-11 Eh
 Primitive CutOff       TCut            ....  2.500e-12 Eh

Convergence Tolerance:
 Convergence Check Mode ConvCheckMode   .... Total+1el-Energy
 Convergence forced     ConvForced      .... 1
 Energy Change          TolE            ....  1.000e-08 Eh
 1-El. energy change                    ....  1.000e-05 Eh
 DIIS Error             TolErr          ....  5.000e-07


Diagonalization of the overlap matrix:
Smallest eigenvalue                        ... 2.427e-02
Time for diagonalization                   ...    0.001 sec
Threshold for overlap eigenvalues          ... 1.000e-08
Number of eigenvalues below threshold      ... 0
Time for construction of square roots      ...    0.107 sec
Total time needed                          ...    0.108 sec

-------------------
DFT GRID GENERATION
-------------------

General Integration Accuracy     IntAcc      ...  4.340
Radial Grid Type                 RadialGrid  ... Gauss-Chebyshev
Angular Grid (max. acc.)         AngularGrid ... Lebedev-110
Angular grid pruning method      GridPruning ... 3 (G Style)
Weight generation scheme         WeightScheme... Becke
Basis function cutoff            BFCut       ...    1.0000e-11
Integration weight cutoff        WCut        ...    1.0000e-14
Grids for H and He will be reduced by one unit

# of grid points (after initial pruning)     ...   3280 (   0.0 sec)
# of grid points (after weights+screening)   ...   3280 (   0.0 sec)
Grid point division into batches done        ...    0.0 sec
Reduced shell lists constructed in    0.0 sec

Total number of grid points                  ...     3280
Total number of batches                      ...       52
Average number of points per batch           ...       63
Average number of grid points per atom       ...     3280
Average number of shells per batch           ...     4.00 (36.36%)
Average number of basis functions per batch  ...    11.00 (35.48%)
Average number of large shells per batch     ...     3.75 (93.75%)
Average number of large basis fcns per batch ...     9.75 (88.64%)
Maximum spatial batch extension              ...  21.45, 33.74, 33.74 au
Average spatial batch extension              ...   1.24,  1.72,  1.95 au

Time for grid setup =    0.051 sec

------------------------------
INITIAL GUESS: MODEL POTENTIAL
------------------------------
Loading Hartree-Fock densities                     ... done
  calling /sw/apps/orca/orca_4_2_0_linux_x86-64_openmpi314/orca 41_Nb_atom41.inp > 41_Nb_atom41.out in order to generate an atomic fitting density for atom 0 (Nb with ECP) on-the-fly... 
    atom 0 (Nb), assumed electronic state with S=4: 1s2 2s2 2p6 3s2 3p6 4s2 3d10 4p6 5s2 4d3           ... done
Calculating cut-offs                               ... done
Setting up the integral package                    ... done
Initializing the effective Hamiltonian             ... done
Starting the Coulomb interaction                   ... done (   0.0 sec)
Reading the grid                                   ... done
Mapping shells                                     ... done
Starting the XC term evaluation                    ... done (   0.0 sec)
Transforming the Hamiltonian                       ... done (   0.0 sec)
Diagonalizing the Hamiltonian                      ... done (   0.0 sec)
Back transforming the eigenvectors                 ... done (   0.0 sec)
Now organizing SCF variables                       ... done
                      ------------------
                      INITIAL GUESS DONE (   1.7 sec)
                      ------------------
--------------
SCF ITERATIONS
--------------
ITER       Energy         Delta-E        Max-DP      RMS-DP      [F,P]     Damp
               ***  Starting incremental Fock matrix formation  ***
  0    -56.0183371417   0.000000000000 0.10592970  0.00594506  0.5160418 0.7000
  1    -56.0949884631  -0.076651321410 0.07505456  0.00493369  0.3536257 0.7000
  2    -56.1457130856  -0.050724622535 0.04775501  0.00332263  0.2364528 0.7000
                               ***Turning on DIIS***
  3    -56.1779349726  -0.032221886955 0.02981622  0.00208661  0.1578144 0.7000
  4    -56.4389735588  -0.261038586240 0.01614029  0.00113890  0.1058490 0.7000
  5    -56.4082487836   0.030724775292 0.03589408  0.00244183  0.0735787 0.0000
  6    -56.2480487741   0.160200009494 0.00192494  0.00012528  0.0018216 0.0000
  7    -56.2488090267  -0.000760252672 0.00097310  0.00007424  0.0006066 0.0000
  8    -56.2485054510   0.000303575771 0.00025198  0.00001116  0.0001673 0.0000
  9    -56.2486655676  -0.000160116641 0.00002555  0.00000169  0.0000198 0.0000
 10    -56.2486127466   0.000052821002 0.00000625  0.00000022  0.0000031 0.0000
                            ***DIIS convergence achieved***

               *****************************************************
               *                     SUCCESS                       *
               *           SCF CONVERGED AFTER  11 CYCLES          *
               *****************************************************


----------------
TOTAL SCF ENERGY
----------------

Total Energy       :          -56.24862311 Eh           -1530.60285 eV

Components:
Nuclear Repulsion  :            0.00000000 Eh               0.00000 eV
Electronic Energy  :          -56.24862311 Eh           -1530.60285 eV
One Electron Energy:          -97.33193699 Eh           -2648.53665 eV
Two Electron Energy:           41.08331388 Eh            1117.93381 eV

Virial components:
Potential Energy   :          -76.22963539 Eh           -2074.31383 eV
Kinetic Energy     :           19.98101228 Eh             543.71099 eV
Virial Ratio       :            3.81510378


---------------
SCF CONVERGENCE
---------------

  Last Energy change         ...   -1.0359e-05  Tolerance :   1.0000e-08
  Last MAX-Density change    ...    1.3123e-06  Tolerance :   1.0000e-07
  Last RMS-Density change    ...    6.8941e-08  Tolerance :   5.0000e-09
  Last DIIS Error            ...    7.9968e-08  Tolerance :   5.0000e-07

             **** THE GBW FILE WAS UPDATED (41_Nb.gbw) ****
             **** DENSITY FILE WAS UPDATED (41_Nb.scfp) ****
             **** ENERGY FILE WAS UPDATED (41_Nb.en.tmp) ****
----------------------
UHF SPIN CONTAMINATION
----------------------

Expectation value of <S**2>     :     8.753248
Ideal value S*(S+1) for S=2.5   :     8.750000
Deviation                       :     0.003248

             **** THE GBW FILE WAS UPDATED (41_Nb.gbw) ****
             **** DENSITY FILE WAS UPDATED (41_Nb.scfp) ****
----------------
ORBITAL ENERGIES
----------------
                 SPIN UP ORBITALS
  NO   OCC          E(Eh)            E(eV) 
   0   1.0000      -2.663923       -72.4890 
   1   1.0000      -1.622759       -44.1575 
   2   1.0000      -1.622759       -44.1575 
   3   1.0000      -1.622759       -44.1575 
   4   1.0000      -0.206168        -5.6101 
   5   1.0000      -0.206168        -5.6101 
   6   1.0000      -0.206168        -5.6101 
   7   1.0000      -0.206168        -5.6101 
   8   1.0000      -0.206168        -5.6101 
   9   0.0000      -0.001575        -0.0428 
  10   0.0000       0.060835         1.6554 
  11   0.0000       0.060835         1.6554 
  12   0.0000       0.060835         1.6554 
  13   0.0000       0.201416         5.4808 
  14   0.0000       0.411035        11.1848 
  15   0.0000       0.411035        11.1848 
  16   0.0000       0.411035        11.1848 
  17   0.0000       0.427439        11.6312 
  18   0.0000       0.427439        11.6312 
  19   0.0000       0.427439        11.6312 
  20   0.0000       0.427439        11.6312 
  21   0.0000       0.427439        11.6312 
  22   0.0000       1.426428        38.8151 
  23   0.0000       1.426428        38.8151 
  24   0.0000       1.426428        38.8151 
  25   0.0000       1.426428        38.8151 
  26   0.0000       1.426428        38.8151 
  27   0.0000       1.426428        38.8151 
  28   0.0000       1.426428        38.8151 
  29   0.0000       1.586130        43.1608 
  30   0.0000      36.924530      1004.7675 

                 SPIN DOWN ORBITALS
  NO   OCC          E(Eh)            E(eV) 
   0   1.0000      -2.484386       -67.6036 
   1   1.0000      -1.372628       -37.3511 
   2   1.0000      -1.372628       -37.3511 
   3   1.0000      -1.372628       -37.3511 
   4   0.0000       0.039650         1.0789 
   5   0.0000       0.083930         2.2839 
   6   0.0000       0.083930         2.2839 
   7   0.0000       0.083930         2.2839 
   8   0.0000       0.239553         6.5186 
   9   0.0000       0.239553         6.5186 
  10   0.0000       0.239553         6.5186 
  11   0.0000       0.239553         6.5186 
  12   0.0000       0.239553         6.5186 
  13   0.0000       0.261740         7.1223 
  14   0.0000       0.490793        13.3552 
  15   0.0000       0.490793        13.3552 
  16   0.0000       0.490793        13.3552 
  17   0.0000       0.571555        15.5528 
  18   0.0000       0.571555        15.5528 
  19   0.0000       0.571555        15.5528 
  20   0.0000       0.571555        15.5528 
  21   0.0000       0.571555        15.5528 
  22   0.0000       1.599433        43.5228 
  23   0.0000       1.599433        43.5228 
  24   0.0000       1.599433        43.5228 
  25   0.0000       1.599433        43.5228 
  26   0.0000       1.599433        43.5228 
  27   0.0000       1.599433        43.5228 
  28   0.0000       1.599433        43.5228 
  29   0.0000       1.659217        45.1496 
  30   0.0000      36.933048      1004.9993 

                    ********************************
                    * MULLIKEN POPULATION ANALYSIS *
                    ********************************

--------------------------------------------
MULLIKEN ATOMIC CHARGES AND SPIN POPULATIONS
--------------------------------------------
   0 Nb:   -0.000000    5.000000
Sum of atomic charges         :   -0.0000000
Sum of atomic spin populations:    5.0000000

-----------------------------------------------------
MULLIKEN REDUCED ORBITAL CHARGES AND SPIN POPULATIONS
-----------------------------------------------------
CHARGE
  0 Nbs       :     2.000000  s :     2.000000
      pz      :     2.000000  p :     6.000000
      px      :     2.000000
      py      :     2.000000
      dz2     :     1.000000  d :     5.000000
      dxz     :     1.000000
      dyz     :     1.000000
      dx2y2   :     1.000000
      dxy     :     1.000000
      f0      :     0.000000  f :     0.000000
      f+1     :     0.000000
      f-1     :     0.000000
      f+2     :     0.000000
      f-2     :     0.000000
      f+3     :     0.000000
      f-3     :     0.000000

SPIN
  0 Nbs       :     0.000000  s :     0.000000
      pz      :     0.000000  p :     0.000000
      px      :     0.000000
      py      :     0.000000
      dz2     :     1.000000  d :     5.000000
      dxz     :     1.000000
      dyz     :     1.000000
      dx2y2   :     1.000000
      dxy     :     1.000000
      f0      :     0.000000  f :     0.000000
      f+1     :     0.000000
      f-1     :     0.000000
      f+2     :    -0.000000
      f-2     :    -0.000000
      f+3     :     0.000000
      f-3     :     0.000000


                     *******************************
                     * LOEWDIN POPULATION ANALYSIS *
                     *******************************

-------------------------------------------
LOEWDIN ATOMIC CHARGES AND SPIN POPULATIONS
-------------------------------------------
   0 Nb:   -0.000000    5.000000

----------------------------------------------------
LOEWDIN REDUCED ORBITAL CHARGES AND SPIN POPULATIONS
----------------------------------------------------
CHARGE
  0 Nbs       :     2.000000  s :     2.000000
      pz      :     2.000000  p :     6.000000
      px      :     2.000000
      py      :     2.000000
      dz2     :     1.000000  d :     5.000000
      dxz     :     1.000000
      dyz     :     1.000000
      dx2y2   :     1.000000
      dxy     :     1.000000
      f0      :     0.000000  f :     0.000000
      f+1     :     0.000000
      f-1     :     0.000000
      f+2     :     0.000000
      f-2     :     0.000000
      f+3     :     0.000000
      f-3     :     0.000000

SPIN
  0 Nbs       :     0.000000  s :     0.000000
      pz      :     0.000000  p :     0.000000
      px      :     0.000000
      py      :     0.000000
      dz2     :     1.000000  d :     5.000000
      dxz     :     1.000000
      dyz     :     1.000000
      dx2y2   :     1.000000
      dxy     :     1.000000
      f0      :     0.000000  f :     0.000000
      f+1     :     0.000000
      f-1     :     0.000000
      f+2     :    -0.000000
      f-2     :    -0.000000
      f+3     :     0.000000
      f-3     :     0.000000


                      *****************************
                      * MAYER POPULATION ANALYSIS *
                      *****************************

  NA   - Mulliken gross atomic population
  ZA   - Total nuclear charge
  QA   - Mulliken gross atomic charge
  VA   - Mayer's total valence
  BVA  - Mayer's bonded valence
  FA   - Mayer's free valence

  ATOM       NA         ZA         QA         VA         BVA        FA
  0 Nb    13.0000    13.0000    -0.0000     5.0065     0.0000     5.0065

  Mayer bond orders larger than 0.100000


-------
TIMINGS
-------

Total SCF time: 0 days 0 hours 0 min 4 sec 

Total time                  ....       4.153 sec
Sum of individual times     ....       3.549 sec  ( 85.5%)

Fock matrix formation       ....       1.643 sec  ( 39.6%)
Diagonalization             ....       0.033 sec  (  0.8%)
Density matrix formation    ....       0.001 sec  (  0.0%)
Population analysis         ....       0.057 sec  (  1.4%)
Initial guess               ....       1.657 sec  ( 39.9%)
Orbital Transformation      ....       0.000 sec  (  0.0%)
Orbital Orthonormalization  ....       0.000 sec  (  0.0%)
DIIS solution               ....       0.106 sec  (  2.6%)


           ************************************************************
           *        Program running with 24 parallel MPI-processes    *
           *              working on a common directory               *
           ************************************************************


------------------------------------------------------------------------------- 
                              ORCA-MATRIX DRIVEN CI                            
------------------------------------------------------------------------------- 

--------------------------------
AUTOMATIC CHOICE OF INCORE LEVEL
--------------------------------

Memory available                           ...   2500.00 MB
Memory needed for S+T                      ...      0.50 MB
Memory needed for J+K                      ...      1.01 MB
Memory needed for DIIS                     ...      6.98 MB
Memory needed for 3-ext                    ...      0.73 MB
Memory needed for 4-ext                    ...      0.93 MB
Memory needed for triples                  ...      0.41 MB
 -> Final InCoreLevel    ... 5
 -> check shows that triples correction can be computed


Wavefunction type
-----------------
Correlation treatment                      ...      CCSD     
Single excitations                         ... ON
Orbital optimization                       ... OFF
Calculation of Z vector                    ... OFF
Calculation of Brueckner orbitals          ... OFF
Perturbative triple excitations            ... ON
Calculation of F12 correction              ... OFF
Frozen core treatment                      ... chemical core (0 el)
Reference Wavefunction                     ... UHF
  Alpha-MOs occ    :     0 ...    8 (  9 MO's/  9 electrons)
  Beta-MOs occ     :     0 ...    3 (  4 MO's/  4 electrons)
  Alpha-MOs virt   :     9 ...   30 ( 22 MO's              )
  Beta-MOs virt    :     4 ...   30 ( 27 MO's              )
Number of AO's                             ...     31
Number of electrons                        ...     13
Number of correlated electrons             ...     13

Algorithmic settings
--------------------
Integral transformation                    ... AO direct full transformation
K(C) Formation                             ... FULL-MO TRAFO
Maximum number of iterations               ...        50
Convergence tolerance (max. residuum)      ... 1.000e-05
Level shift for amplitude update           ... 2.000e-01
Maximum number of DIIS vectors             ...         7
DIIS turned on at iteration                ...         0
Damping before turning on DIIS             ...     0.500
Damping after turning on DIIS              ...     0.000
Pair specific amplitude update             ... OFF
Natural orbital iterations                 ... OFF
Perturbative natural orbital generation    ... OFF
Printlevel                                 ... 2

Memory handling:
----------------
Maximum memory for working arrays          ...   2500 MB
Data storage in matrix containers          ... UNCOMPRESSED
Data type for integral storage             ... DOUBLE
In-Core Storage of quantities:
   Amplitudes+Sigma Vector      ... YES
   J+K operators                ... YES
   DIIS vectors                 ... YES
   3-external integrals         ... YES
   4-external integrals         ... YES


Initializing the integral package          ... done
Warning: reference  - re-canonicalizations have been set to INT 1 VIRT 1

--------------------------
UNRESTRICTED FOCK OPERATOR
--------------------------

<ss|ss>:          120 b            0 skpd (  0.0%)    0.000 s ( 0.001 ms/b)
<ss|sp>:          225 b            0 skpd (  0.0%)    0.000 s ( 0.000 ms/b)
<ss|sd>:          150 b            0 skpd (  0.0%)    0.000 s ( 0.001 ms/b)
<ss|sf>:           75 b            0 skpd (  0.0%)    0.000 s ( 0.000 ms/b)
<ss|pp>:           90 b            0 skpd (  0.0%)    0.000 s ( 0.001 ms/b)
<ss|pd>:           90 b            0 skpd (  0.0%)    0.000 s ( 0.001 ms/b)
<ss|pf>:           45 b            0 skpd (  0.0%)    0.000 s ( 0.001 ms/b)
<ss|dd>:           45 b            0 skpd (  0.0%)    0.000 s ( 0.003 ms/b)
<ss|df>:           30 b            0 skpd (  0.0%)    0.000 s ( 0.003 ms/b)
<ss|ff>:           15 b            0 skpd (  0.0%)    0.000 s ( 0.005 ms/b)
<sp|sp>:          120 b            0 skpd (  0.0%)    0.000 s ( 0.001 ms/b)
<sp|sd>:          150 b            0 skpd (  0.0%)    0.000 s ( 0.001 ms/b)
<sp|sf>:           75 b            0 skpd (  0.0%)    0.000 s ( 0.000 ms/b)
<sp|pp>:           90 b            0 skpd (  0.0%)    0.000 s ( 0.002 ms/b)
<sp|pd>:           90 b            0 skpd (  0.0%)    0.000 s ( 0.003 ms/b)
<sp|pf>:           45 b            0 skpd (  0.0%)    0.000 s ( 0.004 ms/b)
<sp|dd>:           45 b            0 skpd (  0.0%)    0.000 s ( 0.010 ms/b)
<sp|df>: done
<sp|ff>: done
<sd|sd>:           55 b            0 skpd (  0.0%)    0.000 s ( 0.002 ms/b)
<sd|sf>:           50 b            0 skpd (  0.0%)    0.000 s ( 0.001 ms/b)
<sd|pp>:           60 b            0 skpd (  0.0%)    0.000 s ( 0.004 ms/b)
<sd|pd>:           60 b            0 skpd (  0.0%)    0.000 s ( 0.008 ms/b)
<sd|pf>: done
<sd|dd>:           30 b            0 skpd (  0.0%)    0.001 s ( 0.027 ms/b)
<sd|df>:           20 b            0 skpd (  0.0%)    0.000 s ( 0.023 ms/b)
<sd|ff>: done
<sf|sf>:           15 b            0 skpd (  0.0%)    0.000 s ( 0.002 ms/b)
<sf|pp>:           30 b            0 skpd (  0.0%)    0.000 s ( 0.004 ms/b)
<sf|pd>: done
<sf|pf>: done
<sf|dd>:           15 b            0 skpd (  0.0%)    0.000 s ( 0.027 ms/b)
<sf|df>: done
<sf|ff>: done
<pp|pp>:           21 b            0 skpd (  0.0%)    0.000 s ( 0.009 ms/b)
<pp|pd>:           36 b            0 skpd (  0.0%)    0.000 s ( 0.010 ms/b)
<pp|pf>:           18 b            0 skpd (  0.0%)    0.000 s ( 0.011 ms/b)
<pp|dd>:           18 b            0 skpd (  0.0%)    0.001 s ( 0.035 ms/b)
<pp|df>:           12 b            0 skpd (  0.0%)    0.000 s ( 0.031 ms/b)
<pp|ff>:            6 b            0 skpd (  0.0%)    0.000 s ( 0.042 ms/b)
<pd|pd>:           21 b            0 skpd (  0.0%)    0.001 s ( 0.041 ms/b)
<pd|pf>:           18 b            0 skpd (  0.0%)    0.000 s ( 0.024 ms/b)
<pd|dd>:           18 b            0 skpd (  0.0%)    0.002 s ( 0.088 ms/b)
<pd|df>:           12 b            0 skpd (  0.0%)    0.001 s ( 0.077 ms/b)
<pd|ff>: done
<pf|pf>:            6 b            0 skpd (  0.0%)    0.000 s ( 0.040 ms/b)
<pf|dd>:            9 b            0 skpd (  0.0%)    0.001 s ( 0.073 ms/b)
<pf|df>: done
<pf|ff>: done
<dd|dd>:            6 b            0 skpd (  0.0%)    0.002 s ( 0.352 ms/b)
<dd|df>:            6 b            0 skpd (  0.0%)    0.001 s ( 0.200 ms/b)
<dd|ff>:            3 b            0 skpd (  0.0%)    0.001 s ( 0.225 ms/b)
<df|df>:            3 b            0 skpd (  0.0%)    0.001 s ( 0.218 ms/b)
<df|ff>: done
<ff|ff>: done
Recanonicalizing the internal orbitals
Recanonicalizing the virtual orbitals
Time needed for Fock operator              ...            0.151 sec
Reference energy                           ...    -56.248623529
Warning: for UHF the TrafoType has to be JK
Warning: for UHF the K(C)-option cannot be MO but must be AOX

-------------------------------
PARTIAL EXCHANGE TRANSFORMATION
-------------------------------

Transformation type                        ... two-operators
Generation of integrals (i,mue|j,nue)      ... ON
Generation of integrals (mue,kappa|nue,tau)... ON
Generation of integrals (i,mue|a,nue)      ... ON
Dimension of the basis                     ...   31
Number of internal alpha-MOs               ...    9 (   0-   8)
Number of internal beta-MOs                ...    4 (   0-   3)
Number of external alpha-MOs               ...   22 (   9-  30)
Number of external beta-MOs                ...   27 (   4-  30)
Pair cutoff                                ... 0.000e+00 Eh
Number of AO pairs in the trafo            ...  496
Total Number of distinct AO pairs          ...  496
Memory devoted for trafo                   ... 2500.0 MB 
Max. Number of MO pairs treated together   ... 340978      
Number Format for Storage                  ... Double (8 Byte)
Integral package used                      ... LIBINT

Starting integral evaluation:
    ... done with AO integral generation
Closing buffer AOK[aa] ( 0.00 GB; CompressionRatio= 0.00)
Closing buffer AOK[bb] ( 0.00 GB; CompressionRatio= 0.00)
Closing buffer AOK[ab] ( 0.00 GB; CompressionRatio= 0.00)
Closing buffer AOK[ba] ( 0.00 GB; CompressionRatio= 0.00)
Collecting buffer AOK 
Closing buffer IAAO1[aa] ( 0.00 GB; CompressionRatio= 0.00)
Closing buffer IAAO1[bb] ( 0.00 GB; CompressionRatio= 0.00)
Closing buffer IAAO1[ab] ( 0.00 GB; CompressionRatio= 0.00)
Closing buffer IAAO1[ba] ( 0.00 GB; CompressionRatio= 0.00)
Closing buffer IAAO2[aa] ( 0.00 GB; CompressionRatio= 0.00)
Closing buffer IAAO2[bb] ( 0.00 GB; CompressionRatio= 0.00)
Closing buffer IAAO2[ab] ( 0.00 GB; CompressionRatio= 0.00)
Closing buffer IAAO2[ba] ( 0.00 GB; CompressionRatio= 0.00)
Collecting buffer IAAO 
Closing buffer PRQS    ( 0.00 GB; CompressionRatio= 0.00)
Collecting buffer PRQS 
Number of alpha/alpha MO pairs in trafo    ...   45
Number of beta /beta  MO pairs in trafo    ...   10
Number of alpha/ beta MO pairs in trafo    ...   36
------------------------
SORTING OF (i,mue|j,nue)
------------------------

SORTING OF ALPHA/ALPHA PAIRS
IBATCH = 1 of  1
Closing buffer KAO[aa] ( 0.00 GB; CompressionRatio= 1.00)
Collecting buffer KAO 
SORTING OF BETA /BETA  PAIRS
IBATCH = 1 of  1
Closing buffer KAO[bb] ( 0.00 GB; CompressionRatio= 1.00)
Collecting buffer KAO 
SORTING OF ALPHA/BETA  PAIRS
IBATCH = 1 of  1
Closing buffer KAO[ab] ( 0.00 GB; CompressionRatio= 0.998441558442)
Collecting buffer KAO[ab] 
------------------------
SORTING OF (i,mue|a,nue)
------------------------

Number of alpha/alpha (i,a) pairs in trafo  ...  198
Number of beta /beta  (i,a) pairs in trafo  ...  108
Number of alpha/ beta (i,a) pairs in trafo  ...  243
Number of beta /alpha (i,a) pairs in trafo  ...   88
Setting up the alpha/alpha list             ... done
Setting up the beta /beta  list             ... done
Setting up the alpha/beta  list             ... done
Setting up the beta /alpha list             ... done
    ... Now sorting (i,mue|a,nue)integrals
    ... Integrals (i,b|a,c) will be made on the fly
SORTING OF ALPHA/ALPHA PAIRS
IBATCH = 1 of  1
Closing buffer IPAQ[aa]  0.00 GB; CompressionRatio= 1.00)
SORTING OF BETA /BETA  PAIRS
IBATCH = 1 of  1
Closing buffer IPAQ[bb]( 0.00 GB; CompressionRatio= 1.00)
SORTING OF ALPHA/BETA  PAIRS (NMatSort_ab=11)
IBATCH = 1 of  1
Closing buffer IPAQ[ab]( 0.00 GB; CompressionRatio= 1.00)
SORTING OF BETA/ALPHA  PAIRS
IBATCH = 1 of  1
Closing buffer IPAQ[ba]( 0.00 GB; CompressionRatio= 1.00)
N(AO-Batches) Done                         ...         0 
N(AO-Batches) Skipped                      ...         0 
N(IJ)-pairs Skipped                        ...         0 
TOTAL TIME for half transformation         ...     1.497 sec
AO-integral generation                     ...     0.000 sec
Half transformation                        ...     0.000 sec
K-integral sorting                         ...     0.619 sec
<ss|**>: 
------------------------------
PARTIAL COULOMB TRANSFORMATION
------------------------------

Transformation type                        ... two-operators
Dimension of the basis                     ...   31
Number of internal alpha-MOs               ...    9 (0-8)
Number of internal beta-MOs                ...    4 (0-3)
Pair cutoff                                ... 0.000e+00 Eh
Number of AO pairs included in the trafo   ...  496
Total Number of distinct AO pairs          ...  496
Memory devoted for trafo                   ... 2500.0 MB 
Max. Number of MO pairs treated together   ... 660645      
Max. Number of MOs treated per batch       ... 21311      
Number Format for Storage                  ... Double (8 Byte)
AO-integral source                         ... DIRECT
Integral package used                      ... LIBINT

Starting integral evaluation:
         990 b        0 skpd     0.001 s (  0.001 ms/b)
<sp|**>: <sd|**>:          990 b        0 skpd     0.007 s (  0.007 ms/b)
         660 b        0 skpd     0.008 s (  0.012 ms/b)
<sf|**>:          330 b        0 skpd     0.006 s (  0.019 ms/b)
<pp|**>:          396 b        0 skpd     0.008 s (  0.020 ms/b)
<pd|**>:          396 b        0 skpd     0.015 s (  0.038 ms/b)
<pf|**>:          198 b        0 skpd     0.017 s (  0.083 ms/b)
<dd|**>:          198 b        0 skpd     0.017 s (  0.086 ms/b)
<df|**>:          132 b        0 skpd     0.025 s (  0.190 ms/b)
<ff|**>:           66 b        0 skpd     0.017 s (  0.250 ms/b)
Closing buffer AOJ[aa] ( 0.00 GB; CompressionRatio= 0.97)
Closing buffer AOJ[bb] ( 0.00 GB; CompressionRatio= 0.00)
Collecting buffer AOJ 
    ... done with AO integral generation
Number of Alpha-MO pairs included          ...   45
Number of Beta-MO pairs included           ...   10
    ... Now sorting integrals
SORTING ALPHA/ALPHA PAIRS
IBATCH = 1 of  1
Closing buffer JAO[aa] ( 0.00 GB; CompressionRatio= 1.00)
SORTING BETA/BETA PAIRS
IBATCH = 1 of  1
Closing buffer JAO[bb] ( 0.00 GB; CompressionRatio= 1.00)
Collecting buffer JAO 
TOTAL TIME for half transformation         ...     0.237 sec
AO-integral generation                     ...     0.093 sec
Half transformation                        ...     0.027 sec
J-integral sorting                         ...     0.088 sec

-------------------------- SECOND HALF TRANSFORMATION -------------------------
Formation of (ij|kl),(ij|ka), (ij|ab)      ... ok (     0.115 sec)
Formation of (ik|jl),(ik|ja), (ia|jb)      ... ok (     0.168 sec)


-----------------------
SPIN UNRESTRICTED GUESS
-----------------------

Entering MDCI_UHF_Guess, Tailored=0
Spin-components of the MP2 energy:
EMP2(aa)=     -0.063900090
EMP2(bb)=     -0.016647109
EMP2(ab)=     -0.101978391

Initial guess performed in     0.002 sec
E(0)                                       ...    -56.248623529
E(MP2)                                     ...     -0.182525590
Initial E(tot)                             ...    -56.431149119
<T|T>                                      ...      0.061657818
Number of pairs included                   ... 78

------------------------------------------------
                  UHF COUPLED CLUSTER ITERATIONS
------------------------------------------------

Number of amplitudes to be optimized       ...        32433

Iter       E(tot)           E(Corr)          Delta-E          Residual     Time      <S|S>**1/2
  0    -56.431149119     -0.182525590     -0.000000000      0.017952246    0.06      0.000000189
                           *** Turning on DIIS ***
  1    -56.432934920     -0.184311392     -0.001785802      0.003791900    0.04      0.024905082
  2    -56.435356514     -0.186732985     -0.002421594      0.001851402    0.04      0.032633033
  3    -56.435992583     -0.187369055     -0.000636069      0.000793980    0.04      0.036249407
  4    -56.436214500     -0.187590972     -0.000221917      0.000178413    0.04      0.037639296
  5    -56.436239711     -0.187616182     -0.000025211      0.000038283    0.04      0.037681762
  6    -56.436243604     -0.187620076     -0.000003893      0.000007864    0.04      0.037630311
               --- The Coupled-Cluster iterations have converged ---

----------------------
COUPLED CLUSTER ENERGY
----------------------

E(0)                                       ...    -56.248623529
E(CORR)                                    ...     -0.187620076
E(TOT)                                     ...    -56.436243604
Singles norm <S|S>**1/2                    ...      0.037630311 ( 0.032146590, 0.005483720)  
T1 diagnostic                              ...      0.010436770                              

------------------
LARGEST AMPLITUDES
------------------
   8a-> 21a   6a-> 19a       0.044639
   8a-> 19a   6a-> 21a       0.044639
   7a-> 17a   4a-> 20a       0.043187
   7a-> 20a   4a-> 17a       0.043187
   7a-> 18a   5a-> 20a       0.041361
   7a-> 20a   5a-> 18a       0.041361
   8a-> 18a   5a-> 21a       0.038631
   8a-> 21a   5a-> 18a       0.038631
   5a-> 17a   4a-> 18a       0.037703
   5a-> 18a   4a-> 17a       0.037703
   6a-> 19a   5a-> 18a       0.037599
   6a-> 18a   5a-> 19a       0.037599
   6a-> 17a   4a-> 19a       0.037482
   6a-> 19a   4a-> 17a       0.037482
   8a-> 17a   4a-> 21a       0.036854
   8a-> 21a   4a-> 17a       0.036854

----------------------
UHF TRIPLES CORRECTION (Algorithm 1)
----------------------

Multiplier for the singles contribution    ...      1.000000000

SPIN-CASE Alpha-Alpha-Alpha:
10% done
20% done
30% done
40% done
50% done
60% done
70% done
80% done
90% done


SPIN-CASE Beta-Beta-Beta:
10% done
20% done
30% done
40% done
50% done
60% done
70% done
80% done
90% done


SPIN-CASE Alpha-Alpha-Beta:
10% done
20% done
30% done
40% done
50% done
60% done
70% done
80% done
90% done


SPIN-CASE Beta-Beta-Alpha:
10% done
20% done
30% done
40% done
50% done
60% done
70% done
80% done
90% done


Triples Correction (T)                     ...     -0.004403586
    alpha-alpha-alpha ... -0.001250848 ( 28.4%)
    alpha-alpha-beta  ... -0.002370928 ( 53.8%)
    alpha-beta -beta  ... -0.000730424 ( 16.6%)
    beta -beta -beta  ... -0.000051386 (  1.2%)
Scaling of triples based on CCSD energies (Peterson et al. Molecular Physics 113, 1551 (2015))
E(T*) = f*E(T) where f = E(F12-CCSD)/E(CCSD) 
f = CCSD (with F12)/ CCSD (without F12)    ...      1.000000000
Scaled triples correction (T)              ...     -0.004403586

Final correlation energy                   ...     -0.192023662
E(CCSD)                                    ...    -56.436243604
E(CCSD(T))                                 ...    -56.440647191



        !!!!!!!!!!!!!!!!!!!!!!!!!!!!!!!!!!!!!!!!!!!!!!!!!!!!!!!!!!!!!!!!!!!!!!!!!! 
        !  Warning: Densities are linearized densities                           !
        !!!!!!!!!!!!!!!!!!!!!!!!!!!!!!!!!!!!!!!!!!!!!!!!!!!!!!!!!!!!!!!!!!!!!!!!!! 

NORM  =      1.074447285 sqrt=     1.036555491
W(HF) =      0.930711086
------------------------------------------------------------------------------
                           ORCA POPULATION ANALYSIS
------------------------------------------------------------------------------
Input electron density              ... 41_Nb.mdcip
Input spin density                  ... 41_Nb.mdcir
BaseName (.gbw .S,...)              ... 41_Nb

                    ********************************
                    * MULLIKEN POPULATION ANALYSIS *
                    ********************************

------------------------------------------
MULLIKEN ATOMIC CHARGES AND SPIN DENSITIES
------------------------------------------
   0 Nb:   -0.000000    5.000000
Sum of atomic charges       :   -0.0000000
Sum of atomic spin densities:    5.0000000

---------------------------------------------------
MULLIKEN REDUCED ORBITAL CHARGES AND SPIN DENSITIES
---------------------------------------------------
CHARGE
  0 Nbs       :     1.998951  s :     1.998951
      pz      :     1.992970  p :     5.978910
      px      :     1.992970
      py      :     1.992970
      dz2     :     0.997310  d :     4.986552
      dxz     :     0.997310
      dyz     :     0.997310
      dx2y2   :     0.997310
      dxy     :     0.997310
      f0      :     0.005084  f :     0.035586
      f+1     :     0.005084
      f-1     :     0.005084
      f+2     :     0.005084
      f-2     :     0.005084
      f+3     :     0.005084
      f-3     :     0.005084

SPIN
  0 Nbs       :     0.001027  s :     0.001027
      pz      :     0.014758  p :     0.044275
      px      :     0.014758
      py      :     0.014758
      dz2     :     0.984862  d :     4.924308
      dxz     :     0.984862
      dyz     :     0.984862
      dx2y2   :     0.984862
      dxy     :     0.984862
      f0      :     0.004341  f :     0.030390
      f+1     :     0.004341
      f-1     :     0.004341
      f+2     :     0.004341
      f-2     :     0.004341
      f+3     :     0.004341
      f-3     :     0.004341


                     *******************************
                     * LOEWDIN POPULATION ANALYSIS *
                     *******************************

-----------------------------------------
LOEWDIN ATOMIC CHARGES AND SPIN DENSITIES
-----------------------------------------
   0 Nb:   -0.000000    5.000000

--------------------------------------------------
LOEWDIN REDUCED ORBITAL CHARGES AND SPIN DENSITIES
--------------------------------------------------
CHARGE
  0 Nbs       :     1.998951  s :     1.998951
      pz      :     1.992970  p :     5.978910
      px      :     1.992970
      py      :     1.992970
      dz2     :     0.997310  d :     4.986552
      dxz     :     0.997310
      dyz     :     0.997310
      dx2y2   :     0.997310
      dxy     :     0.997310
      f0      :     0.005084  f :     0.035586
      f+1     :     0.005084
      f-1     :     0.005084
      f+2     :     0.005084
      f-2     :     0.005084
      f+3     :     0.005084
      f-3     :     0.005084

SPIN
  0 Nbs       :     0.001027  s :     0.001027
      pz      :     0.014758  p :     0.044275
      px      :     0.014758
      py      :     0.014758
      dz2     :     0.984862  d :     4.924308
      dxz     :     0.984862
      dyz     :     0.984862
      dx2y2   :     0.984862
      dxy     :     0.984862
      f0      :     0.004341  f :     0.030390
      f+1     :     0.004341
      f-1     :     0.004341
      f+2     :     0.004341
      f-2     :     0.004341
      f+3     :     0.004341
      f-3     :     0.004341


                      *****************************
                      * MAYER POPULATION ANALYSIS *
                      *****************************

  NA   - Mulliken gross atomic population
  ZA   - Total nuclear charge
  QA   - Mulliken gross atomic charge
  VA   - Mayer's total valence
  BVA  - Mayer's bonded valence
  FA   - Mayer's free valence

  ATOM       NA         ZA         QA         VA         BVA        FA
  0 Nb    13.0000    13.0000    -0.0000     5.3516     0.0000     5.3516





------------------------------------------------------------------------------- 
                                     TIMINGS                                   
------------------------------------------------------------------------------- 


Total execution time                   ...        2.998 sec

Fock Matrix Formation                  ...        0.151 sec (  5.1%)
Initial Guess                          ...        0.002 sec (  0.1%)
DIIS Solver                            ...        0.020 sec (  0.7%)
State Vector Update                    ...        0.002 sec (  0.1%)
Sigma-vector construction              ...        0.281 sec (  9.4%)
  <D|H|D>(2-ext)                       ...        0.003 sec (  1.2% of sigma)
  <D|H|D>(4-ext)                       ...        0.092 sec ( 32.8% of sigma)
  <S|H|0>                              ...        0.005 sec (  1.8% of sigma)
  <D|H|S>(1-ext)                       ...        0.003 sec (  1.0% of sigma)
  Fock-dressing                        ...        0.080 sec ( 28.6% of sigma)
  (ik|jl)-dressing                     ...        0.002 sec (  0.6% of sigma)
  (ij|ab),(ia|jb)-dressing             ...        0.069 sec ( 24.6% of sigma)
Total Time for computing (T)           ...        0.010 sec (  0.3% of ALL)
  I/O of integral and amplitudes       ...        0.003 sec ( 28.3% of (T))
  External N**7 contributions          ...        0.002 sec ( 14.8% of (T))
  N**6 triples energy contributions    ...        0.005 sec ( 43.9% of (T))


-------------------------   --------------------
FINAL SINGLE POINT ENERGY       -56.440647190603
-------------------------   --------------------


                            ***************************************
                            *     ORCA property calculations      *
                            ***************************************

                                    ---------------------
                                    Active property flags
                                    ---------------------
   (+) Dipole Moment


------------------------------------------------------------------------------
                       ORCA ELECTRIC PROPERTIES CALCULATION
------------------------------------------------------------------------------

Dipole Moment Calculation                       ... on
Quadrupole Moment Calculation                   ... off
Polarizability Calculation                      ... off
GBWName                                         ... 41_Nb.gbw
Electron density file                           ... 41_Nb.scfp
The origin for moment calculation is the CENTER OF MASS  = ( 0.000000,  0.000000  0.000000)

-------------
DIPOLE MOMENT
-------------
                                X             Y             Z
Electronic contribution:      0.00000      -0.00000      -0.00000
Nuclear contribution   :      0.00000       0.00000       0.00000
                        -----------------------------------------
Total Dipole Moment    :      0.00000      -0.00000      -0.00000
                        -----------------------------------------
Magnitude (a.u.)       :      0.00000
Magnitude (Debye)      :      0.00000



--------------------
Rotational spectrum 
--------------------
 
Rotational constants in cm-1:     0.000000     0.000000     0.000000 
Rotational constants in MHz :     0.000000     0.000000     0.000000 

 Dipole components along the rotational axes: 
x,y,z [a.u.] :     0.000000    -0.000000    -0.000000 
x,y,z [Debye]:     0.000000    -0.000000    -0.000000 

 

                           *** MDCI DENSITY ***

------------------------------------------------------------------------------
                       ORCA ELECTRIC PROPERTIES CALCULATION
------------------------------------------------------------------------------

Dipole Moment Calculation                       ... on
Quadrupole Moment Calculation                   ... off
Polarizability Calculation                      ... off
GBWName                                         ... 41_Nb.gbw
Electron density file                           ... 41_Nb.mdcip
The origin for moment calculation is the CENTER OF MASS  = ( 0.000000,  0.000000  0.000000)

-------------
DIPOLE MOMENT
-------------
                                X             Y             Z
Electronic contribution:     -0.00000      -0.00000      -0.00000
Nuclear contribution   :      0.00000       0.00000       0.00000
                        -----------------------------------------
Total Dipole Moment    :     -0.00000      -0.00000      -0.00000
                        -----------------------------------------
Magnitude (a.u.)       :      0.00000
Magnitude (Debye)      :      0.00000



--------------------
Rotational spectrum 
--------------------
 
Rotational constants in cm-1:     0.000000     0.000000     0.000000 
Rotational constants in MHz :     0.000000     0.000000     0.000000 

 Dipole components along the rotational axes: 
x,y,z [a.u.] :    -0.000000    -0.000000    -0.000000 
x,y,z [Debye]:    -0.000000    -0.000000    -0.000000 

 

Timings for individual modules:

Sum of individual times         ...        9.020 sec (=   0.150 min)
GTO integral calculation        ...        0.953 sec (=   0.016 min)  10.6 %
SCF iterations                  ...        4.592 sec (=   0.077 min)  50.9 %
MDCI module                     ...        3.474 sec (=   0.058 min)  38.5 %
                             ****ORCA TERMINATED NORMALLY****
TOTAL RUN TIME: 0 days 0 hours 0 minutes 9 seconds 923 msec
