
                                 *****************
                                 * O   R   C   A *
                                 *****************

           --- An Ab Initio, DFT and Semiempirical electronic structure package ---

                  #######################################################
                  #                        -***-                        #
                  #          Department of theory and spectroscopy      #
                  #               Directorship: Frank Neese             #
                  #        Max Planck Institute fuer Kohlenforschung    #
                  #                Kaiser Wilhelm Platz 1               #
                  #                 D-45470 Muelheim/Ruhr               #
                  #                      Germany                        #
                  #                                                     #
                  #                  All rights reserved                #
                  #                        -***-                        #
                  #######################################################


                         Program Version 4.2.0 -  RELEASE  -


 With contributions from (in alphabetic order):
   Daniel Aravena         : Magnetic Suceptibility
   Michael Atanasov       : Ab Initio Ligand Field Theory (pilot matlab implementation)
   Alexander A. Auer      : GIAO ZORA, VPT2
   Ute Becker             : Parallelization
   Giovanni Bistoni       : ED, misc. LED, open-shell LED, HFLED
   Martin Brehm           : Molecular dynamics
   Dmytro Bykov           : SCF Hessian
   Vijay G. Chilkuri      : MRCI spin determinant printing, contributions to CSF-ICE
   Dipayan Datta          : RHF DLPNO-CCSD density
   Achintya Kumar Dutta   : EOM-CC, STEOM-CC
   Dmitry Ganyushin       : Spin-Orbit,Spin-Spin,Magnetic field MRCI
   Miquel Garcia          : C-PCM Hessian, Gaussian charge scheme
   Yang Guo               : DLPNO-NEVPT2, CIM, IAO-localization
   Andreas Hansen         : Spin unrestricted coupled pair/coupled cluster methods
   Benjamin Helmich-Paris : CASSCF linear response (MC-RPA)
   Lee Huntington         : MR-EOM, pCC
   Robert Izsak           : Overlap fitted RIJCOSX, COSX-SCS-MP3, EOM
   Christian Kollmar      : KDIIS, OOCD, Brueckner-CCSD(T), CCSD density
   Simone Kossmann        : Meta GGA functionals, TD-DFT gradient, OOMP2, MP2 Hessian
   Martin Krupicka        : AUTO-CI
   Lucas Lang             : DCDCAS
   Dagmar Lenk            : GEPOL surface, SMD
   Dimitrios Liakos       : Extrapolation schemes; Compound Job, initial MDCI parallelization
   Dimitrios Manganas     : Further ROCIS development; embedding schemes
   Dimitrios Pantazis     : SARC Basis sets
   Taras Petrenko         : DFT Hessian,TD-DFT gradient, ASA, ECA, R-Raman, ABS, FL, XAS/XES, NRVS
   Peter Pinski           : DLPNO-MP2, DLPNO-MP2 Gradient
   Christoph Reimann      : Effective Core Potentials
   Marius Retegan         : Local ZFS, SOC
   Christoph Riplinger    : Optimizer, TS searches, QM/MM, DLPNO-CCSD(T), (RO)-DLPNO pert. Triples
   Tobias Risthaus        : Range-separated hybrids, TD-DFT gradient, RPA, STAB
   Michael Roemelt        : Original ROCIS implementation
   Masaaki Saitow         : Open-shell DLPNO-CCSD energy and density
   Barbara Sandhoefer     : DKH picture change effects
   Avijit Sen             : IP-ROCIS
   Kantharuban Sivalingam : CASSCF convergence, NEVPT2, FIC-MRCI
   Bernardo de Souza      : ESD, SOC TD-DFT
   Georgi Stoychev        : AutoAux, RI-MP2 NMR
   Willem Van den Heuvel  : Paramagnetic NMR
   Boris Wezisla          : Elementary symmetry handling
   Frank Wennmohs         : Technical directorship


 We gratefully acknowledge several colleagues who have allowed us to
 interface, adapt or use parts of their codes:
   Stefan Grimme, W. Hujo, H. Kruse,             : VdW corrections, initial TS optimization,
                  C. Bannwarth                     DFT functionals, gCP, sTDA/sTD-DF
   Ed Valeev, F. Pavosevic, A. Kumar             : LibInt (2-el integral package), F12 methods
   Garnet Chan, S. Sharma, J. Yang, R. Olivares  : DMRG
   Ulf Ekstrom                                   : XCFun DFT Library
   Mihaly Kallay                                 : mrcc  (arbitrary order and MRCC methods)
   Andreas Klamt, Michael Diedenhofen            : otool_cosmo (COSMO solvation model)
   Jiri Pittner, Ondrej Demel                    : Mk-CCSD
   Frank Weinhold                                : gennbo (NPA and NBO analysis)
   Christopher J. Cramer and Donald G. Truhlar   : smd solvation model
   Lars Goerigk                                  : TD-DFT with DH, B97 family of functionals
   V. Asgeirsson, H. Jonsson                     : NEB implementation
   FAccTs GmbH                                   : IRC, NEB, NEB-TS, Multilevel, MM, QM/MM, CI optimization
   S Lehtola, MJT Oliveira, MAL Marques          : LibXC Library


 Your calculation uses the libint2 library for the computation of 2-el integrals
 For citations please refer to: http://libint.valeyev.net

 Your ORCA version has been built with support for libXC version: 4.2.3
 For citations please refer to: https://tddft.org/programs/libxc/

 This ORCA versions uses:
   CBLAS   interface :  Fast vector & matrix operations
   LAPACKE interface :  Fast linear algebra routines
   SCALAPACK package :  Parallel linear algebra routines


----- Orbital basis set information -----
Your calculation utilizes the basis: def2-SVP
   F. Weigend and R. Ahlrichs, Phys. Chem. Chem. Phys. 7, 3297 (2005).

----- AuxJ basis set information -----
Your calculation utilizes the auxiliary basis: def2/J
   F. Weigend, Phys. Chem. Chem. Phys. 8, 1057 (2006).

================================================================================
                                        WARNINGS
                       Please study these warnings very carefully!
================================================================================


INFO   : the flag for use of LIBINT has been found!

================================================================================
                                       INPUT FILE
================================================================================
NAME = 43_Tc_atom43.inp
|  1> # input to generate an atomic fitting density for Tc
|  2> # this file is use internally by ORCA
|  3> #
|  4> # atomic ground state (S=6): 1s2 2s2 2p6 3s2 3p6 4s2 3d10 4p6 5s2 4d5 
|  5> #
|  6> ! RHF AllowRHF def2-SVP def2/J  NoMulliken NoLoewdin NoMayer NoPrintMOs 
|  7> 
|  8> %output print[p_atomdensfit] 2 end
|  9> 
| 10> %scf
| 11>   guess hcore
| 12>   maxiter 1000
| 13>   maxdisk 500000
| 14>   SCFMode Conventional
| 15>   lshift 1.000000
| 16>   hftyp rohf
| 17>   rohf_case sahf
| 18>   rohf_numop   2
| 19>   rohf_norb[1] 5
| 20>   rohf_nel[1]  5
| 21> end
| 22> 
| 23> %basis
| 24>   NewECP 43
| 25>     N_core 28
| 26>     lmax f
| 27>     s 4
| 28>       1      10.4223462000    195.1591659000  2
| 29>       2       5.0365160000     28.0926033000  2
| 30>       3      10.4000000000     26.5624475000  2
| 31>       4       5.2000000000      4.5856805000  2
| 32>     p 4
| 33>       1       8.9504494000    135.2845662000  2
| 34>       2       4.8544394000     21.8065043000  2
| 35>       3      10.4000000000     26.5624475000  2
| 36>       4       5.2000000000      4.5856805000  2
| 37>     d 4
| 38>       1       6.9456968000     54.3297294000  2
| 39>       2       3.9705849000     11.1550679000  2
| 40>       3      10.4000000000     26.5624475000  2
| 41>       4       5.2000000000      4.5856805000  2
| 42>     f 2
| 43>       1      10.4000000000    -26.5624475000  2
| 44>       2       5.2000000000     -4.5856805000  2
| 45>   end
| 46>   NewGTO 43
| 47>     s 3 
| 48>      1       7.4344020000     -1.1287722382
| 49>      2       5.5513270000      1.8508395372
| 50>      3       3.0230860000      0.2364168552
| 51>     s 1 
| 52>      1       1.0647443990      1.0000000000
| 53>     s 1 
| 54>      1       0.4812780850      1.0000000000
| 55>     s 1 
| 56>      1       0.0982990170      1.0000000000
| 57>     s 1 
| 58>      1       0.0366599779      1.0000000000
| 59>     p 4 
| 60>      1       3.4490050000     -0.7307916561
| 61>      2       2.6927370000      0.7730699593
| 62>      3       0.9442737069      0.6524898577
| 63>      4       0.4134814862      0.2749730550
| 64>     p 1 
| 65>      1       0.1548815230      1.0000000000
| 66>     p 1 
| 67>      1       0.0403000000      1.0000000000
| 68>     d 4 
| 69>      1       5.0906268699     -0.0349826825
| 70>      2       2.0156178510      0.2313681558
| 71>      3       0.8811388724      0.4827596016
| 72>      4       0.3642709483      0.4435505265
| 73>     d 1 
| 74>      1       0.1367840230      1.0000000000
| 75>   end
| 76>   NewAuxGTO 43
| 77>     S 1
| 78>      1 1310.72 1.0
| 79>     S 1
| 80>      1  655.36 1.0
| 81>     S 1
| 82>      1  327.68 1.0
| 83>     S 1
| 84>      1  163.84 1.0
| 85>     S 1
| 86>      1   81.82 1.0
| 87>     S 1
| 88>      1   40.96 1.0
| 89>     S 1
| 90>      1   20.48 1.0
| 91>     S 1
| 92>      1   10.24 1.0
| 93>     S 1
| 94>      1    5.12 1.0
| 95>     S 1
| 96>      1    2.56 1.0
| 97>     S 1
| 98>      1    1.28 1.0
| 99>     S 1
|100>      1    0.64 1.0
|101>     S 1
|102>      1    0.32 1.0
|103>     S 1
|104>      1    0.16 1.0
|105>     S 1
|106>      1    0.08 1.0
|107>     S 1
|108>      1    0.04 1.0
|109>     S 1
|110>      1    0.02 1.0
|111>     S 1
|112>      1    0.01 1.0
|113>   end
|114> end
|115> 
|116> * xyz 0 6
|117> 43  0.0 0.0 0.0
|118> *
|119> 
|120> 
|121>                          ****END OF INPUT****
================================================================================

                       ****************************
                       * Single Point Calculation *
                       ****************************

---------------------------------
CARTESIAN COORDINATES (ANGSTROEM)
---------------------------------
  Tc     0.000000    0.000000    0.000000

----------------------------
CARTESIAN COORDINATES (A.U.)
----------------------------
  NO LB      ZA    FRAG     MASS         X           Y           Z
   0 Tc   15.0000*   0    97.000    0.000000    0.000000    0.000000
* core charge reduced due to ECP

--------------------------------
INTERNAL COORDINATES (ANGSTROEM)
--------------------------------
 Tc     0   0   0     0.000000000000     0.00000000     0.00000000

---------------------------
INTERNAL COORDINATES (A.U.)
---------------------------
 Tc     0   0   0     0.000000000000     0.00000000     0.00000000

---------------------
BASIS SET INFORMATION
---------------------
There are 1 groups of distinct atoms

 Group   1 Type Tc  : 7s6p5d contracted to 5s3p2d pattern {31111/411/41}

Atom   0Tc   basis set group =>   1
---------------------------------
AUXILIARY/J BASIS SET INFORMATION
---------------------------------
There are 1 groups of distinct atoms

 Group   1 Type Tc  : 18s contracted to 18s pattern {111111111111111111}

Atom   0Tc   basis set group =>   1
-------------------------
ECP PARAMETER INFORMATION
-------------------------

 Group 1, Type Tc ECP (replacing 28 core electrons, lmax=3)

Atom   0Tc   ECP group =>   1

------------------------------------------------------------------------------
                           ORCA GTO INTEGRAL CALCULATION
------------------------------------------------------------------------------

                         BASIS SET STATISTICS AND STARTUP INFO

 # of primitive gaussian shells          ...   18
 # of primitive gaussian functions       ...   50
 # of contracted shells                  ...   10
 # of contracted basis functions         ...   24
 Highest angular momentum                ...    2
 Maximum contraction depth               ...    4
 Integral package used                   ... LIBINT
 Integral threshhold            Thresh   ...  1.000e-10
 Primitive cut-off              TCut     ...  1.000e-11
 Storage cut-off                TCutStore... -1.000e+00
 Buffer length                           ... 1048576 integrals/buffer
 Generate file with integrals 4 distinct ...false


------------------------------ INTEGRAL EVALUATION ----------------------------


 * One electron integrals 

   ECP integrals                         ... done
 Pre-screening matrix                    ... done
 Shell pair data                         ... done (   0.000 sec)
 Statistics run                          ... done
 Maximum amount of storage needed        ...     0 MB
 Maximum amount of storage dedicated     ... 500000 MB
 Beginning two electron integral evaluation:
 Starting repulsion integrals
  <ss|ss>  ...          120 b.         0 skpd (  0.0%)     0.000 s. (  0.000 ms/b)
  <ss|sp>  ...          225 b.         0 skpd (  0.0%)     0.000 s. (  0.000 ms/b)
  <ss|sd>  ...          150 b.         0 skpd (  0.0%)     0.000 s. (  0.001 ms/b)
  <ss|pp>  ...           90 b.         0 skpd (  0.0%)     0.000 s. (  0.001 ms/b)
  <ss|pd>  ...           90 b.         0 skpd (  0.0%)     0.000 s. (  0.002 ms/b)
  <ss|dd>  ...           45 b.         0 skpd (  0.0%)     0.000 s. (  0.003 ms/b)
  <sp|sp>  ...          120 b.         0 skpd (  0.0%)     0.000 s. (  0.001 ms/b)
  <sp|sd>  ...          150 b.         0 skpd (  0.0%)     0.000 s. (  0.002 ms/b)
  <sp|pp>  ...           90 b.         0 skpd (  0.0%)     0.000 s. (  0.002 ms/b)
  <sp|pd>  ...           90 b.         0 skpd (  0.0%)     0.000 s. (  0.004 ms/b)
  <sp|dd>  ...           45 b.         0 skpd (  0.0%)     0.000 s. (  0.010 ms/b)
  <sd|sd>  ...           55 b.         0 skpd (  0.0%)     0.000 s. (  0.004 ms/b)
  <sd|pp>  ...           60 b.         0 skpd (  0.0%)     0.000 s. (  0.006 ms/b)
  <sd|pd>  ...           60 b.         0 skpd (  0.0%)     0.001 s. (  0.012 ms/b)
  <sd|dd>  ...           30 b.         0 skpd (  0.0%)     0.001 s. (  0.029 ms/b)
  <pp|pp>  ...           21 b.         0 skpd (  0.0%)     0.000 s. (  0.010 ms/b)
  <pp|pd>  ...           36 b.         0 skpd (  0.0%)     0.001 s. (  0.016 ms/b)
  <pp|dd>  ...           18 b.         0 skpd (  0.0%)     0.001 s. (  0.041 ms/b)
  <pd|pd>  ...           21 b.         0 skpd (  0.0%)     0.001 s. (  0.045 ms/b)
  <pd|dd>  ...           18 b.         0 skpd (  0.0%)     0.002 s. (  0.099 ms/b)
  <dd|dd>  ...            6 b.         0 skpd (  0.0%)     0.002 s. (  0.332 ms/b)


                                      INTEGRAL STATISTICS

Integral type statistics:
 Number of integrals retained            ...      45150 
 One   Center Integrals retained         ...      45150 (100.0%)
 Two   Center Integrals retained         ...          0 (  0.0%)
 Three Center Integrals retained         ...          0 (  0.0%)
 Four  Center Integrals retained         ...          0 (  0.0%)

Storage statistics:
 Number of char integrals                ...          0 (  0.0%)
 Number of short int integrals           ...          0 (  0.0%)
 Number of double/float integrals        ...      45150 (100.0%)
 Amount of memory used                   ...          0 MB
 Amount of memory estimated              ...          0 MB ( 92.6%)

Prescreening statistics:
 Total number of shell quadruples        ...       1540 
 Number of skipped shell quadruples      ...          0 (  0.0%)
 # of negligible batches done            ...          0 (  0.0%)

Timings:
 Total evaluation time               ...     0.240 sec (   0.004 min)
 One electron matrix time            ...     0.025 sec (   0.000 min) = 10.4%
 Schwartz matrix evaluation time     ...     0.086 sec (   0.001 min) = 35.9%
 Statistics run                      ...     0.001 sec (   0.000 min) =  0.2%
 Repulsion integral time             ...     0.011 sec (   0.000 min) =  4.4%

-------------------------------------------------------------------------------
                                 ORCA SCF
-------------------------------------------------------------------------------

------------
SCF SETTINGS
------------
Hamiltonian:
 Ab initio Hamiltonian  Method          .... Hartree-Fock(GTOs)


General Settings:
 Integral files         IntName         .... 43_Tc_atom43
 Hartree-Fock type      HFTyp           .... ROHF
 Total Charge           Charge          ....    0
 Multiplicity           Mult            ....    6
 Number of Electrons    NEL             ....   15
 Basis Dimension        Dim             ....   24
 Nuclear Repulsion      ENuc            ....      0.0000000000 Eh

Convergence Acceleration:
 DIIS                   CNVDIIS         .... on
   Start iteration      DIISMaxIt       ....    12
   Startup error        DIISStart       ....  0.200000
   # of expansion vecs  DIISMaxEq       ....     5
   Bias factor          DIISBfac        ....   1.050
   Max. coefficient     DIISMaxC        ....  10.000
 Newton-Raphson         CNVNR           .... off
 SOSCF                  CNVSOSCF        .... off
 Level Shifting         CNVShift        .... on
   Level shift para.    LevelShift      ....    1.0000
   Turn off err/grad.   ShiftErr        ....    0.0010
 Zerner damping         CNVZerner       .... off
 Static damping         CNVDamp         .... on
   Fraction old density DampFac         ....    0.7000
   Max. Damping (<1)    DampMax         ....    0.9800
   Min. Damping (>=0)   DampMin         ....    0.0000
   Turn off err/grad.   DampErr         ....    0.1000
 Fernandez-Rico         CNVRico         .... off

SCF Procedure:
 Maximum # iterations   MaxIter         ....  1000
 SCF integral mode      SCFMode         .... Conventional
 Integral Threshold     Thresh          ....  1.000e-10 Eh
 Primitive CutOff       TCut            ....  1.000e-11 Eh
 Integral Buffer length BufferLength    .... 1048576
 Integral index format  IndFormat       ....     0
 Integral value format  ValFormat       ....     0
 Integral Storage       Thresh          ....  1.000e-10 Eh

Convergence Tolerance:
 Convergence Check Mode ConvCheckMode   .... Total+1el-Energy
 Convergence forced     ConvForced      .... 0
 Energy Change          TolE            ....  1.000e-06 Eh
 1-El. energy change                    ....  1.000e-03 Eh
 DIIS Error             TolErr          ....  1.000e-06


Diagonalization of the overlap matrix:
Smallest eigenvalue                        ... 2.475e-02
Time for diagonalization                   ...    0.001 sec
Threshold for overlap eigenvalues          ... 1.000e-08
Number of eigenvalues below threshold      ... 0
Time for construction of square roots      ...    0.002 sec
Total time needed                          ...    0.003 sec

--------------------
INITIAL GUESS: HCORE
--------------------
AVERAGE-CONFIGURATION (SAHF) CASE FOUND

-------------------
FINAL ROHF SETTINGS
-------------------
Number of operators             ... 2
  operator   0:   5 orbitals  10 electrons n(mue)= 2.000
  operator   1:   5 orbitals   5 electrons n(mue)= 1.000
Vector coupling coefficients a and b (Zerner convention):
   1.000    1.000           1.000    1.000 
   1.000    1.000           1.000    2.000 

                      -----------------
                      INTIAL GUESS DONE 
                      -----------------

 InCore treatment chosen:
   Memory dedicated               ...    1024 MB
   Memory needed                  ...      0 MB
   Number of tiny    integrals    ...       0
   Number of small   integrals    ...       0
   Number of regular integrals    ...   45150

--------------
SCF ITERATIONS
--------------
ITER       Energy         Delta-E        Max-DP      RMS-DP      [F,P]     Damp
  0    -77.2890893407   0.000000000000 2.30263366  0.10954974  0.4475095 0.7000
  1    -78.6391298285  -1.350040487770 1.67910385  0.08016748  0.3928465 0.7000
                            ****Activating DIIS****
  2    -79.1641169421  -0.524987113671 1.23611297  0.05907718  0.1877002 0.7000
  3    -79.4961024915  -0.331985549333 0.88460447  0.04205541  0.1032645 0.7000
  4    -79.6677392351  -0.171636743585 2.10695661  0.09968062  0.0508838 0.0000
  5    -80.0296518349  -0.361912599801 0.05910928  0.00311884  0.0390947 0.0000
  6    -80.0372867879  -0.007634953012 0.14247114  0.00569755  0.0315887 0.0000
  7    -80.0423664739  -0.005079686021 0.11731046  0.00457604  0.0273708 0.0000
  8    -80.0458785250  -0.003512051123 0.10921958  0.00399962  0.0244375 0.0000
  9    -80.0487524016  -0.002873876633 0.13094766  0.00474830  0.0210104 0.0000
 10    -80.0517910066  -0.003038604962 0.21001233  0.00803574  0.0165565 0.0000
 11    -80.0554122058  -0.003621199152 0.12431561  0.00543834  0.0083822 0.0000
 12    -80.0565526951  -0.001140489344 0.03027629  0.00134589  0.0045144 0.0000
 13    -80.0566987508  -0.000146055648 0.01104031  0.00058046  0.0044884 0.0000
 14    -80.0567453895  -0.000046638792 0.00513582  0.00029768  0.0044575 0.0000
 15    -80.0567584784  -0.000013088883 0.00619770  0.00026235  0.0044332 0.0000
 16    -80.0567638703  -0.000005391855 0.00377659  0.00015797  0.0044224 0.0000
 17    -80.0567660213  -0.000002151008 0.00238024  0.00010246  0.0044184 0.0000
 18    -80.0567670843  -0.000001062992 0.00142957  0.00006584  0.0044173 0.0000
                 **** Energy Check signals convergence ****

               *****************************************************
               *                     SUCCESS                       *
               *           SCF CONVERGED AFTER  19 CYCLES          *
               *****************************************************


----------------
TOTAL SCF ENERGY
----------------

Total Energy       :          -80.05676766 Eh           -2178.45540 eV

Components:
Nuclear Repulsion  :            0.00000000 Eh               0.00000 eV
Electronic Energy  :          -80.05676766 Eh           -2178.45540 eV
One Electron Energy:         -139.41058081 Eh           -3793.55476 eV
Two Electron Energy:           59.35381315 Eh            1615.09937 eV

Virial components:
Potential Energy   :         -108.96134273 Eh           -2964.98887 eV
Kinetic Energy     :           28.90457507 Eh             786.53347 eV
Virial Ratio       :            3.76969191


---------------
SCF CONVERGENCE
---------------

  Last Energy change         ...   -5.7661e-07  Tolerance :   1.0000e-06
  Last MAX-Density change    ...    6.2429e-04  Tolerance :   1.0000e-05
  Last RMS-Density change    ...    3.5004e-05  Tolerance :   1.0000e-06
  Last DIIS Error            ...    4.4181e-03  Tolerance :   1.0000e-06

             **** THE GBW FILE WAS UPDATED (43_Tc_atom43.gbw) ****
             **** DENSITY FILE WAS UPDATED (43_Tc_atom43.scfp) ****
             **** ENERGY FILE WAS UPDATED (43_Tc_atom43.en.tmp) ****
             **** THE GBW FILE WAS UPDATED (43_Tc_atom43.gbw) ****
             **** DENSITY FILE WAS UPDATED (43_Tc_atom43.scfp) ****
----------------
ORBITAL ENERGIES
----------------

  NO   OCC          E(Eh)            E(eV) 
   0   2.0000      -3.202018       -87.1313 
   1   2.0000      -1.990040       -54.1518 
   2   2.0000      -1.981070       -53.9077 
   3   2.0000      -1.978887       -53.8482 
   4   2.0000      -0.292874        -7.9695 
   5   1.0000      -0.404612       -11.0101 
   6   1.0000      -0.399108       -10.8603 
   7   1.0000      -0.394816       -10.7435 
   8   1.0000      -0.376686       -10.2501 
   9   1.0000      -0.238323        -6.4851 
  10   0.0000       0.035152         0.9565 
  11   0.0000       0.042152         1.1470 
  12   0.0000       0.043798         1.1918 
  13   0.0000       0.177360         4.8262 
  14   0.0000       0.372911        10.1474 
  15   0.0000       0.392441        10.6789 
  16   0.0000       0.397028        10.8037 
  17   0.0000       0.490918        13.3586 
  18   0.0000       0.493218        13.4211 
  19   0.0000       0.519145        14.1267 
  20   0.0000       0.495480        13.4827 
  21   0.0000       0.504939        13.7401 
  22   0.0000       1.871889        50.9367 
  23   0.0000      42.851594      1166.0512 
CleanUpVectors: The p-vectors have cracked symmetry
CleanUpVectors: The p-vectors have cracked symmetry
CleanUpVectors: The p-vectors have cracked symmetry
CleanUpVectors: The d-vectors have cracked symmetry at i=4
CleanUpVectors: The d-vectors have cracked symmetry at i=5
CleanUpVectors: The d-vectors have cracked symmetry at i=6
CleanUpVectors: The d-vectors have cracked symmetry at i=7
CleanUpVectors: The d-vectors have cracked symmetry at i=8
CleanUpVectors: The d-vectors have cracked symmetry at i=9
CleanUpVectors: The p-vectors have cracked symmetry
CleanUpVectors: The p-vectors have cracked symmetry
CleanUpVectors: The p-vectors have cracked symmetry
CleanUpVectors: The p-vectors have cracked symmetry
CleanUpVectors: The p-vectors have cracked symmetry
CleanUpVectors: The p-vectors have cracked symmetry
CleanUpVectors: The d-vectors have cracked symmetry at i=17
CleanUpVectors: The d-vectors have cracked symmetry at i=18
CleanUpVectors: The d-vectors have cracked symmetry at i=19
--------------------------
ATOM BASIS FOR ELEMENT Tc
--------------------------
 NewGTO Tc
 S 7
    1          7.434402000000        -0.587868044402
    2          5.551327000000         0.963922908815
    3          3.023086000000         0.123126623447
    4          1.064744399000        -0.845052218795
    5          0.481278085000        -0.459650891937
    6          0.098299017000        -0.014858172383
    7          0.036659977900         0.006082288005
 P 18
    1          3.449005000000         0.718302945007
    2          2.692737000000        -0.759858741991
    3          0.944273706900        -0.641339268807
    4          0.413481486200        -0.270273960513
    5          3.449005000000         0.036625630065
    6          2.692737000000        -0.038744523295
    7          0.944273706900        -0.032701320479
    8          0.413481486200        -0.013781029526
    9          3.449005000000        -0.005638124010
   10          2.692737000000         0.005964304959
   11          0.944273706900         0.005034018522
   12          0.413481486200         0.002121442097
   13          0.154881523000        -0.031530029277
   14          0.154881523000        -0.001607688227
   15          0.154881523000         0.000247486407
   16          0.040300000000         0.002429023861
   17          0.040300000000         0.000123853772
   18          0.040300000000        -0.000019065964
 D 18
    1          7.434402000000        -0.000076062101
    2          5.551327000000         0.000167024429
    3          3.023086000000         0.000039177433
    4          1.064744399000        -0.001214500921
    5          0.481278085000         0.000141283670
    6          0.098299017000         0.016298768595
    7          0.036659977900        -0.031283732908
    8          5.090626869900        -0.002781761187
    9          2.015617851000         0.018397987510
   10          0.881138872400         0.038388191710
   11          0.364270948300         0.035270355240
   12          5.090626869900         0.000296527146
   13          2.015617851000        -0.001961168616
   14          0.881138872400        -0.004092062611
   15          0.364270948300        -0.003759710878
   16          5.090626869900        -0.001372820815
   17          2.015617851000         0.009079550150
   18          0.881138872400         0.018944871641
 D 18
    1          5.090626869900         0.001366273052
    2          2.015617851000        -0.009036244614
    3          0.881138872400        -0.018854512777
    4          0.364270948300        -0.017323175016
    5          5.090626869900        -0.019084178550
    6          2.015617851000         0.126218771134
    7          0.881138872400         0.263360891028
    8          0.364270948300         0.241971079370
    9          5.090626869900        -0.023743309377
   10          2.015617851000         0.157033289344
   11          0.881138872400         0.327656707723
   12          0.364270948300         0.301044877700
   13          5.090626869900        -0.001161454241
   14          2.015617851000         0.007681615775
   15          0.881138872400         0.016028021481
   16          0.364270948300         0.014726247481
   17          5.090626869900        -0.001060222796
   18          2.015617851000         0.007012092143
 P 18
    1          3.449005000000         0.468063535250
    2          2.692737000000        -0.495142295517
    3          0.944273706900        -0.417912146315
    4          0.413481486200        -0.176117035748
    5          3.449005000000         0.023866144512
    6          2.692737000000        -0.025246866480
    7          0.944273706900        -0.021308969672
    8          0.413481486200        -0.008980051445
    9          3.449005000000        -0.003673937681
   10          2.692737000000         0.003886485060
   11          0.944273706900         0.003280287965
   12          0.413481486200         0.001382382872
   13          0.154881523000         1.450396928903
   14          0.154881523000         0.073954452970
   15          0.154881523000        -0.011384497036
   16          0.040300000000        -0.768359714191
   17          0.040300000000        -0.039177980327
   18          0.040300000000         0.006031031033
 D 18
    1          7.434402000000        -0.000298691196
    2          5.551327000000         0.000655894669
    3          3.023086000000         0.000153847370
    4          1.064744399000        -0.005091748420
    5          0.481278085000         0.001397543754
    6          0.098299017000         0.049778118237
    7          0.036659977900        -0.006810260909
    8          5.090626869900        -0.023887164693
    9          2.015617851000         0.157984718360
   10          0.881138872400         0.329641905261
   11          0.364270948300         0.302868840206
   12          5.090626869900        -0.002155595237
   13          2.015617851000         0.014256656697
   14          0.881138872400         0.029747126968
   15          0.364270948300         0.027331105968
   16          5.090626869900         0.000437440642
   17          2.015617851000        -0.002893141042
   18          0.881138872400        -0.006036663135
 S 18
    1          7.434402000000        -0.984500667580
    2          5.551327000000         1.614278503927
    3          3.023086000000         0.206199748625
    4          1.064744399000        -3.826384204811
    5          0.481278085000         3.914695232399
    6          0.098299017000        -1.684801264660
    7          0.036659977900         0.699994968022
    8          5.090626869900         0.005667306642
    9          2.015617851000        -0.014841032586
   10          0.881138872400        -0.013537161778
   11          0.364270948300        -0.005141856750
   12          5.090626869900         0.000492685341
   13          2.015617851000        -0.001290200031
   14          0.881138872400        -0.001176848473
   15          0.364270948300        -0.000447005537
   16          5.090626869900        -0.000055065075
   17          2.015617851000         0.000144199462
   18          0.881138872400         0.000131530703
 S 18
    1          7.434402000000        -1.846014354925
    2          5.551327000000         3.026896160897
    3          3.023086000000         0.386640363464
    4          1.064744399000        -1.593797591430
    5          0.481278085000         0.981688516713
    6          0.098299017000        -0.289751810205
    7          0.036659977900         0.121129276685
    8          5.090626869900        -0.000042595386
    9          2.015617851000         0.000111544962
   10          0.881138872400         0.000101745090
   11          0.364270948300         0.000038646113
   12          5.090626869900        -0.000003699666
   13          2.015617851000         0.000009688353
   14          0.881138872400         0.000008837175
   15          0.364270948300         0.000003356648
   16          5.090626869900         0.000000405161
   17          2.015617851000        -0.000001060999
   18          0.881138872400        -0.000000967784
 end
  // -----------------------------------------------
  // The basis set
  // -----------------------------------------------
  BAS[ATNO] = new BFNGauss[NSH];
  // Basis function   1 L = s
  InitBFNGauss(BAS[ATNO][  0]);
  BAS[ATNO][  0].l  = 0;
  BAS[ATNO][  0].ng = 7;
  BAS[ATNO][  0].a[  0] =         7.434402000000;     BAS[ATNO][  0].d[  0] =        -0.587868044402;
  BAS[ATNO][  0].a[  1] =         5.551327000000;     BAS[ATNO][  0].d[  1] =         0.963922908815;
  BAS[ATNO][  0].a[  2] =         3.023086000000;     BAS[ATNO][  0].d[  2] =         0.123126623447;
  BAS[ATNO][  0].a[  3] =         1.064744399000;     BAS[ATNO][  0].d[  3] =        -0.845052218795;
  BAS[ATNO][  0].a[  4] =         0.481278085000;     BAS[ATNO][  0].d[  4] =        -0.459650891937;
  BAS[ATNO][  0].a[  5] =         0.098299017000;     BAS[ATNO][  0].d[  5] =        -0.014858172383;
  BAS[ATNO][  0].a[  6] =         0.036659977900;     BAS[ATNO][  0].d[  6] =         0.006082288005;

  // Basis function   2 L = p
  InitBFNGauss(BAS[ATNO][  1]);
  BAS[ATNO][  1].l  = 1;
  BAS[ATNO][  1].ng = 18;
  BAS[ATNO][  1].a[  0] =         3.449005000000;     BAS[ATNO][  1].d[  0] =        -0.718302945007;
  BAS[ATNO][  1].a[  1] =         2.692737000000;     BAS[ATNO][  1].d[  1] =         0.759858741991;
  BAS[ATNO][  1].a[  2] =         0.944273706900;     BAS[ATNO][  1].d[  2] =         0.641339268807;
  BAS[ATNO][  1].a[  3] =         0.413481486200;     BAS[ATNO][  1].d[  3] =         0.270273960513;
  BAS[ATNO][  1].a[  4] =         3.449005000000;     BAS[ATNO][  1].d[  4] =        -0.036625630065;
  BAS[ATNO][  1].a[  5] =         2.692737000000;     BAS[ATNO][  1].d[  5] =         0.038744523295;
  BAS[ATNO][  1].a[  6] =         0.944273706900;     BAS[ATNO][  1].d[  6] =         0.032701320479;
  BAS[ATNO][  1].a[  7] =         0.413481486200;     BAS[ATNO][  1].d[  7] =         0.013781029526;
  BAS[ATNO][  1].a[  8] =         3.449005000000;     BAS[ATNO][  1].d[  8] =         0.005638124010;
  BAS[ATNO][  1].a[  9] =         2.692737000000;     BAS[ATNO][  1].d[  9] =        -0.005964304959;
  BAS[ATNO][  1].a[ 10] =         0.944273706900;     BAS[ATNO][  1].d[ 10] =        -0.005034018522;
  BAS[ATNO][  1].a[ 11] =         0.413481486200;     BAS[ATNO][  1].d[ 11] =        -0.002121442097;
  BAS[ATNO][  1].a[ 12] =         0.154881523000;     BAS[ATNO][  1].d[ 12] =         0.031530029277;
  BAS[ATNO][  1].a[ 13] =         0.154881523000;     BAS[ATNO][  1].d[ 13] =         0.001607688227;
  BAS[ATNO][  1].a[ 14] =         0.154881523000;     BAS[ATNO][  1].d[ 14] =        -0.000247486407;
  BAS[ATNO][  1].a[ 15] =         0.040300000000;     BAS[ATNO][  1].d[ 15] =        -0.002429023861;
  BAS[ATNO][  1].a[ 16] =         0.040300000000;     BAS[ATNO][  1].d[ 16] =        -0.000123853772;
  BAS[ATNO][  1].a[ 17] =         0.040300000000;     BAS[ATNO][  1].d[ 17] =         0.000019065964;

  // Basis function   3 L = d
  InitBFNGauss(BAS[ATNO][  2]);
  BAS[ATNO][  2].l  = 2;
  BAS[ATNO][  2].ng = 18;
  BAS[ATNO][  2].a[  0] =         7.434402000000;     BAS[ATNO][  2].d[  0] =        -0.000076062101;
  BAS[ATNO][  2].a[  1] =         5.551327000000;     BAS[ATNO][  2].d[  1] =         0.000167024429;
  BAS[ATNO][  2].a[  2] =         3.023086000000;     BAS[ATNO][  2].d[  2] =         0.000039177433;
  BAS[ATNO][  2].a[  3] =         1.064744399000;     BAS[ATNO][  2].d[  3] =        -0.001214500921;
  BAS[ATNO][  2].a[  4] =         0.481278085000;     BAS[ATNO][  2].d[  4] =         0.000141283670;
  BAS[ATNO][  2].a[  5] =         0.098299017000;     BAS[ATNO][  2].d[  5] =         0.016298768595;
  BAS[ATNO][  2].a[  6] =         0.036659977900;     BAS[ATNO][  2].d[  6] =        -0.031283732908;
  BAS[ATNO][  2].a[  7] =         5.090626869900;     BAS[ATNO][  2].d[  7] =        -0.002781761187;
  BAS[ATNO][  2].a[  8] =         2.015617851000;     BAS[ATNO][  2].d[  8] =         0.018397987510;
  BAS[ATNO][  2].a[  9] =         0.881138872400;     BAS[ATNO][  2].d[  9] =         0.038388191710;
  BAS[ATNO][  2].a[ 10] =         0.364270948300;     BAS[ATNO][  2].d[ 10] =         0.035270355240;
  BAS[ATNO][  2].a[ 11] =         5.090626869900;     BAS[ATNO][  2].d[ 11] =         0.000296527146;
  BAS[ATNO][  2].a[ 12] =         2.015617851000;     BAS[ATNO][  2].d[ 12] =        -0.001961168616;
  BAS[ATNO][  2].a[ 13] =         0.881138872400;     BAS[ATNO][  2].d[ 13] =        -0.004092062611;
  BAS[ATNO][  2].a[ 14] =         0.364270948300;     BAS[ATNO][  2].d[ 14] =        -0.003759710878;
  BAS[ATNO][  2].a[ 15] =         5.090626869900;     BAS[ATNO][  2].d[ 15] =        -0.001372820815;
  BAS[ATNO][  2].a[ 16] =         2.015617851000;     BAS[ATNO][  2].d[ 16] =         0.009079550150;
  BAS[ATNO][  2].a[ 17] =         0.881138872400;     BAS[ATNO][  2].d[ 17] =         0.018944871641;

  // Basis function   4 L = d
  InitBFNGauss(BAS[ATNO][  3]);
  BAS[ATNO][  3].l  = 2;
  BAS[ATNO][  3].ng = 18;
  BAS[ATNO][  3].a[  0] =         5.090626869900;     BAS[ATNO][  3].d[  0] =         0.001366273052;
  BAS[ATNO][  3].a[  1] =         2.015617851000;     BAS[ATNO][  3].d[  1] =        -0.009036244614;
  BAS[ATNO][  3].a[  2] =         0.881138872400;     BAS[ATNO][  3].d[  2] =        -0.018854512777;
  BAS[ATNO][  3].a[  3] =         0.364270948300;     BAS[ATNO][  3].d[  3] =        -0.017323175016;
  BAS[ATNO][  3].a[  4] =         5.090626869900;     BAS[ATNO][  3].d[  4] =        -0.019084178550;
  BAS[ATNO][  3].a[  5] =         2.015617851000;     BAS[ATNO][  3].d[  5] =         0.126218771134;
  BAS[ATNO][  3].a[  6] =         0.881138872400;     BAS[ATNO][  3].d[  6] =         0.263360891028;
  BAS[ATNO][  3].a[  7] =         0.364270948300;     BAS[ATNO][  3].d[  7] =         0.241971079370;
  BAS[ATNO][  3].a[  8] =         5.090626869900;     BAS[ATNO][  3].d[  8] =        -0.023743309377;
  BAS[ATNO][  3].a[  9] =         2.015617851000;     BAS[ATNO][  3].d[  9] =         0.157033289344;
  BAS[ATNO][  3].a[ 10] =         0.881138872400;     BAS[ATNO][  3].d[ 10] =         0.327656707723;
  BAS[ATNO][  3].a[ 11] =         0.364270948300;     BAS[ATNO][  3].d[ 11] =         0.301044877700;
  BAS[ATNO][  3].a[ 12] =         5.090626869900;     BAS[ATNO][  3].d[ 12] =        -0.001161454241;
  BAS[ATNO][  3].a[ 13] =         2.015617851000;     BAS[ATNO][  3].d[ 13] =         0.007681615775;
  BAS[ATNO][  3].a[ 14] =         0.881138872400;     BAS[ATNO][  3].d[ 14] =         0.016028021481;
  BAS[ATNO][  3].a[ 15] =         0.364270948300;     BAS[ATNO][  3].d[ 15] =         0.014726247481;
  BAS[ATNO][  3].a[ 16] =         5.090626869900;     BAS[ATNO][  3].d[ 16] =        -0.001060222796;
  BAS[ATNO][  3].a[ 17] =         2.015617851000;     BAS[ATNO][  3].d[ 17] =         0.007012092143;

  // Basis function   5 L = p
  InitBFNGauss(BAS[ATNO][  4]);
  BAS[ATNO][  4].l  = 1;
  BAS[ATNO][  4].ng = 18;
  BAS[ATNO][  4].a[  0] =         3.449005000000;     BAS[ATNO][  4].d[  0] =         0.468063535250;
  BAS[ATNO][  4].a[  1] =         2.692737000000;     BAS[ATNO][  4].d[  1] =        -0.495142295517;
  BAS[ATNO][  4].a[  2] =         0.944273706900;     BAS[ATNO][  4].d[  2] =        -0.417912146315;
  BAS[ATNO][  4].a[  3] =         0.413481486200;     BAS[ATNO][  4].d[  3] =        -0.176117035748;
  BAS[ATNO][  4].a[  4] =         3.449005000000;     BAS[ATNO][  4].d[  4] =         0.023866144512;
  BAS[ATNO][  4].a[  5] =         2.692737000000;     BAS[ATNO][  4].d[  5] =        -0.025246866480;
  BAS[ATNO][  4].a[  6] =         0.944273706900;     BAS[ATNO][  4].d[  6] =        -0.021308969672;
  BAS[ATNO][  4].a[  7] =         0.413481486200;     BAS[ATNO][  4].d[  7] =        -0.008980051445;
  BAS[ATNO][  4].a[  8] =         3.449005000000;     BAS[ATNO][  4].d[  8] =        -0.003673937681;
  BAS[ATNO][  4].a[  9] =         2.692737000000;     BAS[ATNO][  4].d[  9] =         0.003886485060;
  BAS[ATNO][  4].a[ 10] =         0.944273706900;     BAS[ATNO][  4].d[ 10] =         0.003280287965;
  BAS[ATNO][  4].a[ 11] =         0.413481486200;     BAS[ATNO][  4].d[ 11] =         0.001382382872;
  BAS[ATNO][  4].a[ 12] =         0.154881523000;     BAS[ATNO][  4].d[ 12] =         1.450396928903;
  BAS[ATNO][  4].a[ 13] =         0.154881523000;     BAS[ATNO][  4].d[ 13] =         0.073954452970;
  BAS[ATNO][  4].a[ 14] =         0.154881523000;     BAS[ATNO][  4].d[ 14] =        -0.011384497036;
  BAS[ATNO][  4].a[ 15] =         0.040300000000;     BAS[ATNO][  4].d[ 15] =        -0.768359714191;
  BAS[ATNO][  4].a[ 16] =         0.040300000000;     BAS[ATNO][  4].d[ 16] =        -0.039177980327;
  BAS[ATNO][  4].a[ 17] =         0.040300000000;     BAS[ATNO][  4].d[ 17] =         0.006031031033;

  // Basis function   6 L = d
  InitBFNGauss(BAS[ATNO][  5]);
  BAS[ATNO][  5].l  = 2;
  BAS[ATNO][  5].ng = 18;
  BAS[ATNO][  5].a[  0] =         7.434402000000;     BAS[ATNO][  5].d[  0] =        -0.000298691196;
  BAS[ATNO][  5].a[  1] =         5.551327000000;     BAS[ATNO][  5].d[  1] =         0.000655894669;
  BAS[ATNO][  5].a[  2] =         3.023086000000;     BAS[ATNO][  5].d[  2] =         0.000153847370;
  BAS[ATNO][  5].a[  3] =         1.064744399000;     BAS[ATNO][  5].d[  3] =        -0.005091748420;
  BAS[ATNO][  5].a[  4] =         0.481278085000;     BAS[ATNO][  5].d[  4] =         0.001397543754;
  BAS[ATNO][  5].a[  5] =         0.098299017000;     BAS[ATNO][  5].d[  5] =         0.049778118237;
  BAS[ATNO][  5].a[  6] =         0.036659977900;     BAS[ATNO][  5].d[  6] =        -0.006810260909;
  BAS[ATNO][  5].a[  7] =         5.090626869900;     BAS[ATNO][  5].d[  7] =        -0.023887164693;
  BAS[ATNO][  5].a[  8] =         2.015617851000;     BAS[ATNO][  5].d[  8] =         0.157984718360;
  BAS[ATNO][  5].a[  9] =         0.881138872400;     BAS[ATNO][  5].d[  9] =         0.329641905261;
  BAS[ATNO][  5].a[ 10] =         0.364270948300;     BAS[ATNO][  5].d[ 10] =         0.302868840206;
  BAS[ATNO][  5].a[ 11] =         5.090626869900;     BAS[ATNO][  5].d[ 11] =        -0.002155595237;
  BAS[ATNO][  5].a[ 12] =         2.015617851000;     BAS[ATNO][  5].d[ 12] =         0.014256656697;
  BAS[ATNO][  5].a[ 13] =         0.881138872400;     BAS[ATNO][  5].d[ 13] =         0.029747126968;
  BAS[ATNO][  5].a[ 14] =         0.364270948300;     BAS[ATNO][  5].d[ 14] =         0.027331105968;
  BAS[ATNO][  5].a[ 15] =         5.090626869900;     BAS[ATNO][  5].d[ 15] =         0.000437440642;
  BAS[ATNO][  5].a[ 16] =         2.015617851000;     BAS[ATNO][  5].d[ 16] =        -0.002893141042;
  BAS[ATNO][  5].a[ 17] =         0.881138872400;     BAS[ATNO][  5].d[ 17] =        -0.006036663135;

  // Basis function   7 L = s
  InitBFNGauss(BAS[ATNO][  6]);
  BAS[ATNO][  6].l  = 0;
  BAS[ATNO][  6].ng = 18;
  BAS[ATNO][  6].a[  0] =         7.434402000000;     BAS[ATNO][  6].d[  0] =        -0.984500667580;
  BAS[ATNO][  6].a[  1] =         5.551327000000;     BAS[ATNO][  6].d[  1] =         1.614278503927;
  BAS[ATNO][  6].a[  2] =         3.023086000000;     BAS[ATNO][  6].d[  2] =         0.206199748625;
  BAS[ATNO][  6].a[  3] =         1.064744399000;     BAS[ATNO][  6].d[  3] =        -3.826384204811;
  BAS[ATNO][  6].a[  4] =         0.481278085000;     BAS[ATNO][  6].d[  4] =         3.914695232399;
  BAS[ATNO][  6].a[  5] =         0.098299017000;     BAS[ATNO][  6].d[  5] =        -1.684801264660;
  BAS[ATNO][  6].a[  6] =         0.036659977900;     BAS[ATNO][  6].d[  6] =         0.699994968022;
  BAS[ATNO][  6].a[  7] =         5.090626869900;     BAS[ATNO][  6].d[  7] =         0.005667306642;
  BAS[ATNO][  6].a[  8] =         2.015617851000;     BAS[ATNO][  6].d[  8] =        -0.014841032586;
  BAS[ATNO][  6].a[  9] =         0.881138872400;     BAS[ATNO][  6].d[  9] =        -0.013537161778;
  BAS[ATNO][  6].a[ 10] =         0.364270948300;     BAS[ATNO][  6].d[ 10] =        -0.005141856750;
  BAS[ATNO][  6].a[ 11] =         5.090626869900;     BAS[ATNO][  6].d[ 11] =         0.000492685341;
  BAS[ATNO][  6].a[ 12] =         2.015617851000;     BAS[ATNO][  6].d[ 12] =        -0.001290200031;
  BAS[ATNO][  6].a[ 13] =         0.881138872400;     BAS[ATNO][  6].d[ 13] =        -0.001176848473;
  BAS[ATNO][  6].a[ 14] =         0.364270948300;     BAS[ATNO][  6].d[ 14] =        -0.000447005537;
  BAS[ATNO][  6].a[ 15] =         5.090626869900;     BAS[ATNO][  6].d[ 15] =        -0.000055065075;
  BAS[ATNO][  6].a[ 16] =         2.015617851000;     BAS[ATNO][  6].d[ 16] =         0.000144199462;
  BAS[ATNO][  6].a[ 17] =         0.881138872400;     BAS[ATNO][  6].d[ 17] =         0.000131530703;

  // Basis function   8 L = s
  InitBFNGauss(BAS[ATNO][  7]);
  BAS[ATNO][  7].l  = 0;
  BAS[ATNO][  7].ng = 18;
  BAS[ATNO][  7].a[  0] =         7.434402000000;     BAS[ATNO][  7].d[  0] =        -1.846014354925;
  BAS[ATNO][  7].a[  1] =         5.551327000000;     BAS[ATNO][  7].d[  1] =         3.026896160897;
  BAS[ATNO][  7].a[  2] =         3.023086000000;     BAS[ATNO][  7].d[  2] =         0.386640363464;
  BAS[ATNO][  7].a[  3] =         1.064744399000;     BAS[ATNO][  7].d[  3] =        -1.593797591430;
  BAS[ATNO][  7].a[  4] =         0.481278085000;     BAS[ATNO][  7].d[  4] =         0.981688516713;
  BAS[ATNO][  7].a[  5] =         0.098299017000;     BAS[ATNO][  7].d[  5] =        -0.289751810205;
  BAS[ATNO][  7].a[  6] =         0.036659977900;     BAS[ATNO][  7].d[  6] =         0.121129276685;
  BAS[ATNO][  7].a[  7] =         5.090626869900;     BAS[ATNO][  7].d[  7] =        -0.000042595386;
  BAS[ATNO][  7].a[  8] =         2.015617851000;     BAS[ATNO][  7].d[  8] =         0.000111544962;
  BAS[ATNO][  7].a[  9] =         0.881138872400;     BAS[ATNO][  7].d[  9] =         0.000101745090;
  BAS[ATNO][  7].a[ 10] =         0.364270948300;     BAS[ATNO][  7].d[ 10] =         0.000038646113;
  BAS[ATNO][  7].a[ 11] =         5.090626869900;     BAS[ATNO][  7].d[ 11] =        -0.000003699666;
  BAS[ATNO][  7].a[ 12] =         2.015617851000;     BAS[ATNO][  7].d[ 12] =         0.000009688353;
  BAS[ATNO][  7].a[ 13] =         0.881138872400;     BAS[ATNO][  7].d[ 13] =         0.000008837175;
  BAS[ATNO][  7].a[ 14] =         0.364270948300;     BAS[ATNO][  7].d[ 14] =         0.000003356648;
  BAS[ATNO][  7].a[ 15] =         5.090626869900;     BAS[ATNO][  7].d[ 15] =         0.000000405161;
  BAS[ATNO][  7].a[ 16] =         2.015617851000;     BAS[ATNO][  7].d[ 16] =        -0.000001060999;
  BAS[ATNO][  7].a[ 17] =         0.881138872400;     BAS[ATNO][  7].d[ 17] =        -0.000000967784;

-------------------------------------------
RADIAL EXPECTATION VALUES <R**-3> TO <R**3>
-------------------------------------------
   0 :     0.000000     1.138379     1.014461     1.087860     1.304773     1.724398
   1 :     1.131913     0.967886     0.929710     1.203160     1.619579     2.441008
   2 :     1.129320     0.966066     0.928627     1.205399     1.627335     2.463783
   3 :     1.128705     0.965634     0.928369     1.205933     1.629193     2.469261
   4 :     0.520908     0.536054     0.665186     1.832586     4.088705    54.763599
   5 :     0.000000     0.102313     0.251219     5.312660    33.035297   224.567029
   6 :     0.210643     0.310676     0.470290     2.874507    10.466445    61.459115
   7 :     0.341755     0.403848     0.548442     2.494285     8.280430    56.583461
   8 :     0.551237     0.561291     0.684202     1.760269     3.734057    47.340862
   9 :     0.550062     0.560316     0.683472     1.763009     3.747388    47.617950
  10 :     0.545237     0.556313     0.680468     1.774307     3.802458    48.764372
  11 :     0.025245     0.056949     0.212255     5.354990    31.529215   201.067000
  12 :     0.024690     0.056140     0.210974     5.377542    31.753173   202.886959
  13 :     0.024556     0.055947     0.210669     5.382913    31.806555   203.321072
  14 :     0.196389     0.224250     0.389648     3.557347    16.806465    99.177553
  15 :     0.199536     0.226877     0.392012     3.532556    16.574750    97.334820
  16 :     0.200285     0.227503     0.392575     3.526651    16.519510    96.895228
  17 :     0.240617     0.254208     0.403987     3.308940    12.617949   259.127739
  18 :     0.242049     0.255275     0.404786     3.306044    12.604263   258.886239
  19 :     0.272353     0.280509     0.423799     3.233746    12.249741   251.460500
  20 :     0.243224     0.256250     0.405517     3.303304    12.590932   258.609151
  21 :     0.248049     0.260253     0.408521     3.292006    12.535862   257.462728
  22 :     0.000040     0.699306     0.705653     2.084718     6.588039    30.493871
  23 :     0.000000    13.986215     3.041352     0.463745     0.411121     1.056946
Making the total density                ... o.k.
o.k.
Initializing the integrals              ... done
Making exponents                        ... done
Making rho(0)                           ... done (         0.001186329)
Integral calculation                    ... Two index integrals                     ... done
Solving the equation system             ... done
atomic density will be written to file 43_Tc_atom43.adf

-------
TIMINGS
-------

Total SCF time: 0 days 0 hours 0 min 1 sec 

Total time                  ....       1.605 sec
Sum of individual times     ....       1.079 sec  ( 67.3%)

Fock matrix formation       ....       0.227 sec  ( 14.2%)
Diagonalization             ....       0.810 sec  ( 50.5%)
Density matrix formation    ....       0.001 sec  (  0.0%)
Population analysis         ....       0.000 sec  (  0.0%)
Initial guess               ....       0.000 sec  (  0.0%)
Orbital Transformation      ....       0.000 sec  (  0.0%)
Orbital Orthonormalization  ....       0.000 sec  (  0.0%)
DIIS solution               ....       0.041 sec  (  2.6%)

-------------------------   --------------------
FINAL SINGLE POINT ENERGY       -80.056767660890
-------------------------   --------------------


                            ***************************************
                            *     ORCA property calculations      *
                            ***************************************

                                    ---------------------
                                    Active property flags
                                    ---------------------
   (+) Dipole Moment


------------------------------------------------------------------------------
                       ORCA ELECTRIC PROPERTIES CALCULATION
------------------------------------------------------------------------------

Dipole Moment Calculation                       ... on
Quadrupole Moment Calculation                   ... off
Polarizability Calculation                      ... off
GBWName                                         ... 43_Tc_atom43.gbw
Electron density file                           ... 43_Tc_atom43.scfp
The origin for moment calculation is the CENTER OF MASS  = ( 0.000000,  0.000000  0.000000)

-------------
DIPOLE MOMENT
-------------
                                X             Y             Z
Electronic contribution:      0.00000       0.00000       0.00000
Nuclear contribution   :      0.00000       0.00000       0.00000
                        -----------------------------------------
Total Dipole Moment    :      0.00000       0.00000       0.00000
                        -----------------------------------------
Magnitude (a.u.)       :      0.00000
Magnitude (Debye)      :      0.00000



--------------------
Rotational spectrum 
--------------------
 
Rotational constants in cm-1:     0.000000     0.000000     0.000000 
Rotational constants in MHz :     0.000000     0.000000     0.000000 

 Dipole components along the rotational axes: 
x,y,z [a.u.] :     0.000000     0.000000     0.000000 
x,y,z [Debye]:     0.000000     0.000000     0.000000 

 

Timings for individual modules:

Sum of individual times         ...        1.949 sec (=   0.032 min)
GTO integral calculation        ...        0.307 sec (=   0.005 min)  15.7 %
SCF iterations                  ...        1.642 sec (=   0.027 min)  84.3 %
                             ****ORCA TERMINATED NORMALLY****
TOTAL RUN TIME: 0 days 0 hours 0 minutes 2 seconds 192 msec
