
                                 *****************
                                 * O   R   C   A *
                                 *****************

           --- An Ab Initio, DFT and Semiempirical electronic structure package ---

                  #######################################################
                  #                        -***-                        #
                  #          Department of theory and spectroscopy      #
                  #               Directorship: Frank Neese             #
                  #        Max Planck Institute fuer Kohlenforschung    #
                  #                Kaiser Wilhelm Platz 1               #
                  #                 D-45470 Muelheim/Ruhr               #
                  #                      Germany                        #
                  #                                                     #
                  #                  All rights reserved                #
                  #                        -***-                        #
                  #######################################################


                         Program Version 4.2.0 -  RELEASE  -


 With contributions from (in alphabetic order):
   Daniel Aravena         : Magnetic Suceptibility
   Michael Atanasov       : Ab Initio Ligand Field Theory (pilot matlab implementation)
   Alexander A. Auer      : GIAO ZORA, VPT2
   Ute Becker             : Parallelization
   Giovanni Bistoni       : ED, misc. LED, open-shell LED, HFLED
   Martin Brehm           : Molecular dynamics
   Dmytro Bykov           : SCF Hessian
   Vijay G. Chilkuri      : MRCI spin determinant printing, contributions to CSF-ICE
   Dipayan Datta          : RHF DLPNO-CCSD density
   Achintya Kumar Dutta   : EOM-CC, STEOM-CC
   Dmitry Ganyushin       : Spin-Orbit,Spin-Spin,Magnetic field MRCI
   Miquel Garcia          : C-PCM Hessian, Gaussian charge scheme
   Yang Guo               : DLPNO-NEVPT2, CIM, IAO-localization
   Andreas Hansen         : Spin unrestricted coupled pair/coupled cluster methods
   Benjamin Helmich-Paris : CASSCF linear response (MC-RPA)
   Lee Huntington         : MR-EOM, pCC
   Robert Izsak           : Overlap fitted RIJCOSX, COSX-SCS-MP3, EOM
   Christian Kollmar      : KDIIS, OOCD, Brueckner-CCSD(T), CCSD density
   Simone Kossmann        : Meta GGA functionals, TD-DFT gradient, OOMP2, MP2 Hessian
   Martin Krupicka        : AUTO-CI
   Lucas Lang             : DCDCAS
   Dagmar Lenk            : GEPOL surface, SMD
   Dimitrios Liakos       : Extrapolation schemes; Compound Job, initial MDCI parallelization
   Dimitrios Manganas     : Further ROCIS development; embedding schemes
   Dimitrios Pantazis     : SARC Basis sets
   Taras Petrenko         : DFT Hessian,TD-DFT gradient, ASA, ECA, R-Raman, ABS, FL, XAS/XES, NRVS
   Peter Pinski           : DLPNO-MP2, DLPNO-MP2 Gradient
   Christoph Reimann      : Effective Core Potentials
   Marius Retegan         : Local ZFS, SOC
   Christoph Riplinger    : Optimizer, TS searches, QM/MM, DLPNO-CCSD(T), (RO)-DLPNO pert. Triples
   Tobias Risthaus        : Range-separated hybrids, TD-DFT gradient, RPA, STAB
   Michael Roemelt        : Original ROCIS implementation
   Masaaki Saitow         : Open-shell DLPNO-CCSD energy and density
   Barbara Sandhoefer     : DKH picture change effects
   Avijit Sen             : IP-ROCIS
   Kantharuban Sivalingam : CASSCF convergence, NEVPT2, FIC-MRCI
   Bernardo de Souza      : ESD, SOC TD-DFT
   Georgi Stoychev        : AutoAux, RI-MP2 NMR
   Willem Van den Heuvel  : Paramagnetic NMR
   Boris Wezisla          : Elementary symmetry handling
   Frank Wennmohs         : Technical directorship


 We gratefully acknowledge several colleagues who have allowed us to
 interface, adapt or use parts of their codes:
   Stefan Grimme, W. Hujo, H. Kruse,             : VdW corrections, initial TS optimization,
                  C. Bannwarth                     DFT functionals, gCP, sTDA/sTD-DF
   Ed Valeev, F. Pavosevic, A. Kumar             : LibInt (2-el integral package), F12 methods
   Garnet Chan, S. Sharma, J. Yang, R. Olivares  : DMRG
   Ulf Ekstrom                                   : XCFun DFT Library
   Mihaly Kallay                                 : mrcc  (arbitrary order and MRCC methods)
   Andreas Klamt, Michael Diedenhofen            : otool_cosmo (COSMO solvation model)
   Jiri Pittner, Ondrej Demel                    : Mk-CCSD
   Frank Weinhold                                : gennbo (NPA and NBO analysis)
   Christopher J. Cramer and Donald G. Truhlar   : smd solvation model
   Lars Goerigk                                  : TD-DFT with DH, B97 family of functionals
   V. Asgeirsson, H. Jonsson                     : NEB implementation
   FAccTs GmbH                                   : IRC, NEB, NEB-TS, Multilevel, MM, QM/MM, CI optimization
   S Lehtola, MJT Oliveira, MAL Marques          : LibXC Library


 Your calculation uses the libint2 library for the computation of 2-el integrals
 For citations please refer to: http://libint.valeyev.net

 Your ORCA version has been built with support for libXC version: 4.2.3
 For citations please refer to: https://tddft.org/programs/libxc/

 This ORCA versions uses:
   CBLAS   interface :  Fast vector & matrix operations
   LAPACKE interface :  Fast linear algebra routines
   SCALAPACK package :  Parallel linear algebra routines


----- Orbital basis set information -----
Your calculation utilizes the basis: def2-SVP
   F. Weigend and R. Ahlrichs, Phys. Chem. Chem. Phys. 7, 3297 (2005).

----- AuxJ basis set information -----
Your calculation utilizes the auxiliary basis: def2/J
   F. Weigend, Phys. Chem. Chem. Phys. 8, 1057 (2006).

================================================================================
                                        WARNINGS
                       Please study these warnings very carefully!
================================================================================


INFO   : the flag for use of LIBINT has been found!

================================================================================
                                       INPUT FILE
================================================================================
NAME = 44_Ru_atom44.inp
|  1> # input to generate an atomic fitting density for Ru
|  2> # this file is use internally by ORCA
|  3> #
|  4> # atomic ground state (S=5): 1s2 2s2 2p6 3s2 3p6 4s2 3d10 4p6 5s2 4d6 
|  5> #
|  6> ! RHF AllowRHF def2-SVP def2/J  NoMulliken NoLoewdin NoMayer NoPrintMOs 
|  7> 
|  8> %output print[p_atomdensfit] 2 end
|  9> 
| 10> %scf
| 11>   guess hcore
| 12>   maxiter 1000
| 13>   maxdisk 500000
| 14>   SCFMode Conventional
| 15>   lshift 1.000000
| 16>   hftyp rohf
| 17>   rohf_case sahf
| 18>   rohf_numop   2
| 19>   rohf_norb[1] 5
| 20>   rohf_nel[1]  6
| 21> end
| 22> 
| 23> %basis
| 24>   NewECP 44
| 25>     N_core 28
| 26>     lmax f
| 27>     s 4
| 28>       1      11.1052693000    209.8229712000  2
| 29>       2       5.4147454000     30.6547264000  2
| 30>       3      11.3600000000     28.3406163000  2
| 31>       4       5.6800000000      4.9446292000  2
| 32>     p 4
| 33>       1       9.7712707000    146.3361823000  2
| 34>       2       5.0739908000     24.1278772000  2
| 35>       3      11.3600000000     28.3406163000  2
| 36>       4       5.6800000000      4.9446292000  2
| 37>     d 4
| 38>       1       7.6714231000     67.5158967000  2
| 39>       2       4.1365647000      9.8701041000  2
| 40>       3      11.3600000000     28.3406163000  2
| 41>       4       5.6800000000      4.9446292000  2
| 42>     f 2
| 43>       1      11.3600000000    -28.3406163000  2
| 44>       2       5.6800000000     -4.9446292000  2
| 45>   end
| 46>   NewGTO 44
| 47>     s 3 
| 48>      1       7.9365700000     -1.1750431009
| 49>      2       5.9842450000      1.6167268412
| 50>      3       4.8822200000      0.5097188245
| 51>     s 1 
| 52>      1       1.1031002163      1.0000000000
| 53>     s 1 
| 54>      1       0.4981887526      1.0000000000
| 55>     s 1 
| 56>      1       0.1067871139      1.0000000000
| 57>     s 1 
| 58>      1       0.0391917759      1.0000000000
| 59>     p 4 
| 60>      1       3.7546090000     -0.7156369065
| 61>      2       2.9165710000      0.7578657870
| 62>      3       1.0322209568      0.6537850932
| 63>      4       0.4524955377      0.2732917945
| 64>     p 1 
| 65>      1       0.1698704220      1.0000000000
| 66>     p 1 
| 67>      1       0.0430000000      1.0000000000
| 68>     d 4 
| 69>      1       5.7341846619     -0.0382893887
| 70>      2       2.2483686294      0.2367157716
| 71>      3       0.9837697836      0.4854240615
| 72>      4       0.4037944558      0.4383270193
| 73>     d 1 
| 74>      1       0.1497861817      1.0000000000
| 75>   end
| 76>   NewAuxGTO 44
| 77>     S 1
| 78>      1 1310.72 1.0
| 79>     S 1
| 80>      1  655.36 1.0
| 81>     S 1
| 82>      1  327.68 1.0
| 83>     S 1
| 84>      1  163.84 1.0
| 85>     S 1
| 86>      1   81.82 1.0
| 87>     S 1
| 88>      1   40.96 1.0
| 89>     S 1
| 90>      1   20.48 1.0
| 91>     S 1
| 92>      1   10.24 1.0
| 93>     S 1
| 94>      1    5.12 1.0
| 95>     S 1
| 96>      1    2.56 1.0
| 97>     S 1
| 98>      1    1.28 1.0
| 99>     S 1
|100>      1    0.64 1.0
|101>     S 1
|102>      1    0.32 1.0
|103>     S 1
|104>      1    0.16 1.0
|105>     S 1
|106>      1    0.08 1.0
|107>     S 1
|108>      1    0.04 1.0
|109>     S 1
|110>      1    0.02 1.0
|111>     S 1
|112>      1    0.01 1.0
|113>   end
|114> end
|115> 
|116> * xyz 0 5
|117> 44  0.0 0.0 0.0
|118> *
|119> 
|120> 
|121>                          ****END OF INPUT****
================================================================================

                       ****************************
                       * Single Point Calculation *
                       ****************************

---------------------------------
CARTESIAN COORDINATES (ANGSTROEM)
---------------------------------
  Ru     0.000000    0.000000    0.000000

----------------------------
CARTESIAN COORDINATES (A.U.)
----------------------------
  NO LB      ZA    FRAG     MASS         X           Y           Z
   0 Ru   16.0000*   0   101.070    0.000000    0.000000    0.000000
* core charge reduced due to ECP

--------------------------------
INTERNAL COORDINATES (ANGSTROEM)
--------------------------------
 Ru     0   0   0     0.000000000000     0.00000000     0.00000000

---------------------------
INTERNAL COORDINATES (A.U.)
---------------------------
 Ru     0   0   0     0.000000000000     0.00000000     0.00000000

---------------------
BASIS SET INFORMATION
---------------------
There are 1 groups of distinct atoms

 Group   1 Type Ru  : 7s6p5d contracted to 5s3p2d pattern {31111/411/41}

Atom   0Ru   basis set group =>   1
---------------------------------
AUXILIARY/J BASIS SET INFORMATION
---------------------------------
There are 1 groups of distinct atoms

 Group   1 Type Ru  : 18s contracted to 18s pattern {111111111111111111}

Atom   0Ru   basis set group =>   1
-------------------------
ECP PARAMETER INFORMATION
-------------------------

 Group 1, Type Ru ECP (replacing 28 core electrons, lmax=3)

Atom   0Ru   ECP group =>   1

------------------------------------------------------------------------------
                           ORCA GTO INTEGRAL CALCULATION
------------------------------------------------------------------------------

                         BASIS SET STATISTICS AND STARTUP INFO

 # of primitive gaussian shells          ...   18
 # of primitive gaussian functions       ...   50
 # of contracted shells                  ...   10
 # of contracted basis functions         ...   24
 Highest angular momentum                ...    2
 Maximum contraction depth               ...    4
 Integral package used                   ... LIBINT
 Integral threshhold            Thresh   ...  1.000e-10
 Primitive cut-off              TCut     ...  1.000e-11
 Storage cut-off                TCutStore... -1.000e+00
 Buffer length                           ... 1048576 integrals/buffer
 Generate file with integrals 4 distinct ...false


------------------------------ INTEGRAL EVALUATION ----------------------------


 * One electron integrals 

   ECP integrals                         ... done
 Pre-screening matrix                    ... done
 Shell pair data                         ... done (   0.000 sec)
 Statistics run                          ... done
 Maximum amount of storage needed        ...     0 MB
 Maximum amount of storage dedicated     ... 500000 MB
 Beginning two electron integral evaluation:
 Starting repulsion integrals
  <ss|ss>  ...          120 b.         0 skpd (  0.0%)     0.000 s. (  0.000 ms/b)
  <ss|sp>  ...          225 b.         0 skpd (  0.0%)     0.000 s. (  0.000 ms/b)
  <ss|sd>  ...          150 b.         0 skpd (  0.0%)     0.000 s. (  0.001 ms/b)
  <ss|pp>  ...           90 b.         0 skpd (  0.0%)     0.000 s. (  0.001 ms/b)
  <ss|pd>  ...           90 b.         0 skpd (  0.0%)     0.000 s. (  0.002 ms/b)
  <ss|dd>  ...           45 b.         0 skpd (  0.0%)     0.000 s. (  0.003 ms/b)
  <sp|sp>  ...          120 b.         0 skpd (  0.0%)     0.000 s. (  0.001 ms/b)
  <sp|sd>  ...          150 b.         0 skpd (  0.0%)     0.000 s. (  0.002 ms/b)
  <sp|pp>  ...           90 b.         0 skpd (  0.0%)     0.000 s. (  0.002 ms/b)
  <sp|pd>  ...           90 b.         0 skpd (  0.0%)     0.000 s. (  0.004 ms/b)
  <sp|dd>  ...           45 b.         0 skpd (  0.0%)     0.000 s. (  0.010 ms/b)
  <sd|sd>  ...           55 b.         0 skpd (  0.0%)     0.000 s. (  0.004 ms/b)
  <sd|pp>  ...           60 b.         0 skpd (  0.0%)     0.000 s. (  0.006 ms/b)
  <sd|pd>  ...           60 b.         0 skpd (  0.0%)     0.001 s. (  0.012 ms/b)
  <sd|dd>  ...           30 b.         0 skpd (  0.0%)     0.001 s. (  0.029 ms/b)
  <pp|pp>  ...           21 b.         0 skpd (  0.0%)     0.000 s. (  0.010 ms/b)
  <pp|pd>  ...           36 b.         0 skpd (  0.0%)     0.001 s. (  0.016 ms/b)
  <pp|dd>  ...           18 b.         0 skpd (  0.0%)     0.001 s. (  0.040 ms/b)
  <pd|pd>  ...           21 b.         0 skpd (  0.0%)     0.001 s. (  0.045 ms/b)
  <pd|dd>  ...           18 b.         0 skpd (  0.0%)     0.002 s. (  0.098 ms/b)
  <dd|dd>  ...            6 b.         0 skpd (  0.0%)     0.002 s. (  0.332 ms/b)


                                      INTEGRAL STATISTICS

Integral type statistics:
 Number of integrals retained            ...      45150 
 One   Center Integrals retained         ...      45150 (100.0%)
 Two   Center Integrals retained         ...          0 (  0.0%)
 Three Center Integrals retained         ...          0 (  0.0%)
 Four  Center Integrals retained         ...          0 (  0.0%)

Storage statistics:
 Number of char integrals                ...          0 (  0.0%)
 Number of short int integrals           ...          0 (  0.0%)
 Number of double/float integrals        ...      45150 (100.0%)
 Amount of memory used                   ...          0 MB
 Amount of memory estimated              ...          0 MB ( 92.6%)

Prescreening statistics:
 Total number of shell quadruples        ...       1540 
 Number of skipped shell quadruples      ...          0 (  0.0%)
 # of negligible batches done            ...          0 (  0.0%)

Timings:
 Total evaluation time               ...     0.221 sec (   0.004 min)
 One electron matrix time            ...     0.021 sec (   0.000 min) =  9.7%
 Schwartz matrix evaluation time     ...     0.082 sec (   0.001 min) = 37.2%
 Statistics run                      ...     0.000 sec (   0.000 min) =  0.2%
 Repulsion integral time             ...     0.010 sec (   0.000 min) =  4.7%

-------------------------------------------------------------------------------
                                 ORCA SCF
-------------------------------------------------------------------------------

------------
SCF SETTINGS
------------
Hamiltonian:
 Ab initio Hamiltonian  Method          .... Hartree-Fock(GTOs)


General Settings:
 Integral files         IntName         .... 44_Ru_atom44
 Hartree-Fock type      HFTyp           .... ROHF
 Total Charge           Charge          ....    0
 Multiplicity           Mult            ....    5
 Number of Electrons    NEL             ....   16
 Basis Dimension        Dim             ....   24
 Nuclear Repulsion      ENuc            ....      0.0000000000 Eh

Convergence Acceleration:
 DIIS                   CNVDIIS         .... on
   Start iteration      DIISMaxIt       ....    12
   Startup error        DIISStart       ....  0.200000
   # of expansion vecs  DIISMaxEq       ....     5
   Bias factor          DIISBfac        ....   1.050
   Max. coefficient     DIISMaxC        ....  10.000
 Newton-Raphson         CNVNR           .... off
 SOSCF                  CNVSOSCF        .... off
 Level Shifting         CNVShift        .... on
   Level shift para.    LevelShift      ....    1.0000
   Turn off err/grad.   ShiftErr        ....    0.0010
 Zerner damping         CNVZerner       .... off
 Static damping         CNVDamp         .... on
   Fraction old density DampFac         ....    0.7000
   Max. Damping (<1)    DampMax         ....    0.9800
   Min. Damping (>=0)   DampMin         ....    0.0000
   Turn off err/grad.   DampErr         ....    0.1000
 Fernandez-Rico         CNVRico         .... off

SCF Procedure:
 Maximum # iterations   MaxIter         ....  1000
 SCF integral mode      SCFMode         .... Conventional
 Integral Threshold     Thresh          ....  1.000e-10 Eh
 Primitive CutOff       TCut            ....  1.000e-11 Eh
 Integral Buffer length BufferLength    .... 1048576
 Integral index format  IndFormat       ....     0
 Integral value format  ValFormat       ....     0
 Integral Storage       Thresh          ....  1.000e-10 Eh

Convergence Tolerance:
 Convergence Check Mode ConvCheckMode   .... Total+1el-Energy
 Convergence forced     ConvForced      .... 0
 Energy Change          TolE            ....  1.000e-06 Eh
 1-El. energy change                    ....  1.000e-03 Eh
 DIIS Error             TolErr          ....  1.000e-06


Diagonalization of the overlap matrix:
Smallest eigenvalue                        ... 2.539e-02
Time for diagonalization                   ...    0.001 sec
Threshold for overlap eigenvalues          ... 1.000e-08
Number of eigenvalues below threshold      ... 0
Time for construction of square roots      ...    0.002 sec
Total time needed                          ...    0.003 sec

--------------------
INITIAL GUESS: HCORE
--------------------
AVERAGE-CONFIGURATION (SAHF) CASE FOUND

-------------------
FINAL ROHF SETTINGS
-------------------
Number of operators             ... 2
  operator   0:   5 orbitals  10 electrons n(mue)= 2.000
  operator   1:   5 orbitals   6 electrons n(mue)= 1.200
Vector coupling coefficients a and b (Zerner convention):
   1.000    1.000           1.000    1.000 
   1.000    0.972           1.000    1.389 

                      -----------------
                      INTIAL GUESS DONE 
                      -----------------

 InCore treatment chosen:
   Memory dedicated               ...    1024 MB
   Memory needed                  ...      0 MB
   Number of tiny    integrals    ...       0
   Number of small   integrals    ...       0
   Number of regular integrals    ...   45150

--------------
SCF ITERATIONS
--------------
ITER       Energy         Delta-E        Max-DP      RMS-DP      [F,P]     Damp
  0    -90.8782577681   0.000000000000 1.93705074  0.09851180  0.5452794 0.7000
  1    -92.4561490002  -1.577891232138 1.55929147  0.07839662  0.4095257 0.7000
                            ****Activating DIIS****
  2    -93.1107314299  -0.654582429654 1.22175094  0.06017492  0.1890875 0.7000
  3    -93.4907662581  -0.380034828209 2.93305472  0.14246556  0.0870492 0.0000
  4    -94.0342794859  -0.543513227841 0.10958035  0.00614048  0.0795007 0.0000
  5    -94.0575752067  -0.023295720790 0.06618280  0.00424006  0.0475669 0.0000
  6    -94.0632876696  -0.005712462924 0.05520781  0.00386772  0.0234286 0.0000
  7    -94.0657872279  -0.002499558229 0.02795452  0.00150361  0.0061753 0.0000
  8    -94.0662605752  -0.000473347298 0.01202012  0.00063994  0.0035571 0.0000
  9    -94.0664682384  -0.000207663235 0.00758665  0.00039681  0.0023687 0.0000
 10    -94.0665352649  -0.000067026548 0.00625475  0.00030609  0.0017820 0.0000
 11    -94.0665648931  -0.000029628104 0.00679671  0.00030156  0.0012989 0.0000
 12    -94.0665812736  -0.000016380576 0.00434455  0.00018058  0.0013044 0.0000
 13    -94.0665867827  -0.000005509075 0.00291155  0.00011950  0.0013059 0.0000
 14    -94.0665891676  -0.000002384916 0.00200426  0.00008198  0.0013064 0.0000
 15    -94.0665903468  -0.000001179226 0.00128337  0.00005233  0.0013067 0.0000
                 **** Energy Check signals convergence ****

               *****************************************************
               *                     SUCCESS                       *
               *           SCF CONVERGED AFTER  16 CYCLES          *
               *****************************************************


----------------
TOTAL SCF ENERGY
----------------

Total Energy       :          -94.06659093 Eh           -2559.68207 eV

Components:
Nuclear Repulsion  :            0.00000000 Eh               0.00000 eV
Electronic Energy  :          -94.06659093 Eh           -2559.68207 eV
One Electron Energy:         -164.79995364 Eh           -4484.43472 eV
Two Electron Energy:           70.73336271 Eh            1924.75265 eV

Virial components:
Potential Energy   :         -128.52329845 Eh           -3497.29675 eV
Kinetic Energy     :           34.45670751 Eh             937.61468 eV
Virial Ratio       :            3.72999360


---------------
SCF CONVERGENCE
---------------

  Last Energy change         ...   -5.8759e-07  Tolerance :   1.0000e-06
  Last MAX-Density change    ...    8.1474e-04  Tolerance :   1.0000e-05
  Last RMS-Density change    ...    3.3197e-05  Tolerance :   1.0000e-06
  Last DIIS Error            ...    1.3068e-03  Tolerance :   1.0000e-06

             **** THE GBW FILE WAS UPDATED (44_Ru_atom44.gbw) ****
             **** DENSITY FILE WAS UPDATED (44_Ru_atom44.scfp) ****
             **** ENERGY FILE WAS UPDATED (44_Ru_atom44.en.tmp) ****
             **** THE GBW FILE WAS UPDATED (44_Ru_atom44.gbw) ****
             **** DENSITY FILE WAS UPDATED (44_Ru_atom44.scfp) ****
----------------
ORBITAL ENERGIES
----------------

  NO   OCC          E(Eh)            E(eV) 
   0   2.0000      -3.514131       -95.6244 
   1   2.0000      -2.208945       -60.1084 
   2   2.0000      -2.200936       -59.8905 
   3   2.0000      -2.199776       -59.8590 
   4   2.0000      -0.370460       -10.0807 
   5   1.2000      -0.437356       -11.9011 
   6   1.2000      -0.431569       -11.7436 
   7   1.2000      -0.428842       -11.6694 
   8   1.2000      -0.409720       -11.1490 
   9   1.2000      -0.246915        -6.7189 
  10   0.0000       0.012902         0.3511 
  11   0.0000       0.018374         0.5000 
  12   0.0000       0.019157         0.5213 
  13   0.0000       0.158319         4.3081 
  14   0.0000       0.368682        10.0324 
  15   0.0000       0.383510        10.4358 
  16   0.0000       0.385634        10.4936 
  17   0.0000       0.484420        13.1817 
  18   0.0000       0.497520        13.5382 
  19   0.0000       0.486777        13.2459 
  20   0.0000       0.488026        13.2799 
  21   0.0000       0.496716        13.5163 
  22   0.0000       1.833127        49.8819 
  23   0.0000      45.664939      1242.6062 
CleanUpVectors: The p-vectors have cracked symmetry
CleanUpVectors: The p-vectors have cracked symmetry
CleanUpVectors: The p-vectors have cracked symmetry
CleanUpVectors: The d-vectors have cracked symmetry at i=4
CleanUpVectors: The d-vectors have cracked symmetry at i=5
CleanUpVectors: The d-vectors have cracked symmetry at i=6
CleanUpVectors: The d-vectors have cracked symmetry at i=7
CleanUpVectors: The d-vectors have cracked symmetry at i=8
CleanUpVectors: The p-vectors have cracked symmetry
CleanUpVectors: The p-vectors have cracked symmetry
CleanUpVectors: The p-vectors have cracked symmetry
CleanUpVectors: The p-vectors have cracked symmetry
CleanUpVectors: The p-vectors have cracked symmetry
CleanUpVectors: The p-vectors have cracked symmetry
CleanUpVectors: The d-vectors have cracked symmetry at i=17
CleanUpVectors: The d-vectors have cracked symmetry at i=18
CleanUpVectors: The d-vectors have cracked symmetry at i=19
--------------------------
ATOM BASIS FOR ELEMENT Ru
--------------------------
 NewGTO Ru
 S 7
    1          7.936570000000        -0.588365552456
    2          5.984245000000         0.809524672213
    3          4.882220000000         0.255225529637
    4          1.103100216300        -0.880799513198
    5          0.498188752600        -0.400550352201
    6          0.106787113900        -0.012737218672
    7          0.039191775900         0.002868309391
 P 18
    1          3.754609000000         0.004225472230
    2          2.916571000000        -0.004474812307
    3          1.032220956800        -0.003860268707
    4          0.452495537700        -0.001613649153
    5          3.754609000000        -0.079878201844
    6          2.916571000000         0.084591719285
    7          1.032220956800         0.072974405264
    8          0.452495537700         0.030504375788
    9          3.754609000000         0.700352128857
   10          2.916571000000        -0.741679072854
   11          1.032220956800        -0.639821364268
   12          0.452495537700        -0.267454750221
   13          0.169870422000        -0.000178955896
   14          0.169870422000         0.003382976955
   15          0.169870422000        -0.029661097242
   16          0.043000000000         0.000011273416
   17          0.043000000000        -0.000213112322
   18          0.043000000000         0.001868515627
 D 18
    1          7.936570000000        -0.000026385784
    2          5.984245000000         0.000048147788
    3          4.882220000000         0.000018606401
    4          1.103100216300        -0.000474782770
    5          0.498188752600         0.000366496342
    6          0.106787113900         0.003502382105
    7          0.039191775900        -0.013229310709
    8          5.734184661900         0.005345013045
    9          2.248368629400        -0.033044374173
   10          0.983769783600        -0.067762845764
   11          0.403794455800        -0.061188326988
   12          5.734184661900        -0.032751888908
   13          2.248368629400         0.202481390211
   14          0.983769783600         0.415220913038
   15          0.403794455800         0.374935153813
   16          5.734184661900        -0.003786152761
   17          2.248368629400         0.023407061398
   18          0.983769783600         0.047999973702
 D 18
    1          5.734184661900        -0.000267554560
    2          2.248368629400         0.001654097554
    3          0.983769783600         0.003391995165
    4          0.403794455800         0.003062895410
    5          5.734184661900         0.003051765037
    6          2.248368629400        -0.018866869911
    7          0.983769783600        -0.038689575089
    8          0.403794455800        -0.034935816891
    9          5.734184661900        -0.025587178786
   10          2.248368629400         0.158187136828
   11          0.983769783600         0.324388366339
   12          0.403794455800         0.292915405292
   13          5.734184661900        -0.005130668495
   14          2.248368629400         0.031719235872
   15          0.983769783600         0.065045434872
   16          0.403794455800         0.058734566017
   17          5.734184661900         0.021513624466
   18          2.248368629400        -0.133003278149
 P 18
    1          3.754609000000         0.002734080279
    2          2.916571000000        -0.002895415096
    3          1.032220956800        -0.002497776336
    4          0.452495537700        -0.001044107283
    5          3.754609000000        -0.051684972602
    6          2.916571000000         0.054734841204
    7          1.032220956800         0.047217889858
    8          0.452495537700         0.019737773140
    9          3.754609000000         0.453160934477
   10          2.916571000000        -0.479901420854
   11          1.032220956800        -0.413994668372
   12          0.452495537700        -0.173055866537
   13          0.169870422000         0.008613009226
   14          0.169870422000        -0.162820071250
   15          0.169870422000         1.427565729927
   16          0.043000000000        -0.004566515911
   17          0.043000000000         0.086325281488
   18          0.043000000000        -0.756878513401
 D 18
    1          7.936570000000         0.000213702230
    2          5.984245000000        -0.000389955807
    3          4.882220000000        -0.000150695900
    4          1.103100216300         0.003669689787
    5          0.498188752600         0.000058153689
    6          0.106787113900        -0.049213909124
    7          0.039191775900         0.032660322815
    8          5.734184661900        -0.012403174822
    9          2.248368629400         0.076679915716
   10          0.983769783600         0.157244597057
   11          0.403794455800         0.141988337612
   12          5.734184661900        -0.001845957461
   13          2.248368629400         0.011412228288
   14          0.983769783600         0.023402624036
   15          0.403794455800         0.021132043611
   16          5.734184661900         0.000052093242
   17          2.248368629400        -0.000322055073
   18          0.983769783600        -0.000660426133
 S 18
    1          7.936570000000        -0.914765615047
    2          5.984245000000         1.258614362418
    3          4.882220000000         0.396813745502
    4          1.103100216300        -3.697679768169
    5          0.498188752600         3.960053832124
    6          0.106787113900        -1.773476065346
    7          0.039191775900         0.718524702745
    8          5.734184661900        -0.002293237866
    9          2.248368629400         0.005558962039
   10          0.983769783600         0.004987854491
   11          0.403794455800         0.001848662325
   12          5.734184661900         0.000269076309
   13          2.248368629400        -0.000652258978
   14          0.983769783600        -0.000585248262
   15          0.403794455800        -0.000216912184
   16          5.734184661900         0.000078110258
   17          2.248368629400        -0.000189344492
   18          0.983769783600        -0.000169891927
 S 18
    1          7.936570000000        -1.816812991574
    2          5.984245000000         2.499729862394
    3          4.882220000000         0.788110480111
    4          1.103100216300        -1.453631760173
    5          0.498188752600         0.941436926755
    6          0.106787113900        -0.288965434943
    7          0.039191775900         0.117358194915
    8          5.734184661900         0.000022422162
    9          2.248368629400        -0.000054352821
   10          0.983769783600        -0.000048768810
   11          0.403794455800        -0.000018075319
   12          5.734184661900        -0.000002748316
   13          2.248368629400         0.000006662101
   14          0.983769783600         0.000005977661
   15          0.403794455800         0.000002215517
   16          5.734184661900        -0.000000776897
   17          2.248368629400         0.000001883251
   18          0.983769783600         0.000001689773
 end
  // -----------------------------------------------
  // The basis set
  // -----------------------------------------------
  BAS[ATNO] = new BFNGauss[NSH];
  // Basis function   1 L = s
  InitBFNGauss(BAS[ATNO][  0]);
  BAS[ATNO][  0].l  = 0;
  BAS[ATNO][  0].ng = 7;
  BAS[ATNO][  0].a[  0] =         7.936570000000;     BAS[ATNO][  0].d[  0] =         0.588365552456;
  BAS[ATNO][  0].a[  1] =         5.984245000000;     BAS[ATNO][  0].d[  1] =        -0.809524672213;
  BAS[ATNO][  0].a[  2] =         4.882220000000;     BAS[ATNO][  0].d[  2] =        -0.255225529637;
  BAS[ATNO][  0].a[  3] =         1.103100216300;     BAS[ATNO][  0].d[  3] =         0.880799513198;
  BAS[ATNO][  0].a[  4] =         0.498188752600;     BAS[ATNO][  0].d[  4] =         0.400550352201;
  BAS[ATNO][  0].a[  5] =         0.106787113900;     BAS[ATNO][  0].d[  5] =         0.012737218672;
  BAS[ATNO][  0].a[  6] =         0.039191775900;     BAS[ATNO][  0].d[  6] =        -0.002868309391;

  // Basis function   2 L = p
  InitBFNGauss(BAS[ATNO][  1]);
  BAS[ATNO][  1].l  = 1;
  BAS[ATNO][  1].ng = 18;
  BAS[ATNO][  1].a[  0] =         3.754609000000;     BAS[ATNO][  1].d[  0] =        -0.004225472230;
  BAS[ATNO][  1].a[  1] =         2.916571000000;     BAS[ATNO][  1].d[  1] =         0.004474812307;
  BAS[ATNO][  1].a[  2] =         1.032220956800;     BAS[ATNO][  1].d[  2] =         0.003860268707;
  BAS[ATNO][  1].a[  3] =         0.452495537700;     BAS[ATNO][  1].d[  3] =         0.001613649153;
  BAS[ATNO][  1].a[  4] =         3.754609000000;     BAS[ATNO][  1].d[  4] =         0.079878201844;
  BAS[ATNO][  1].a[  5] =         2.916571000000;     BAS[ATNO][  1].d[  5] =        -0.084591719285;
  BAS[ATNO][  1].a[  6] =         1.032220956800;     BAS[ATNO][  1].d[  6] =        -0.072974405264;
  BAS[ATNO][  1].a[  7] =         0.452495537700;     BAS[ATNO][  1].d[  7] =        -0.030504375788;
  BAS[ATNO][  1].a[  8] =         3.754609000000;     BAS[ATNO][  1].d[  8] =        -0.700352128857;
  BAS[ATNO][  1].a[  9] =         2.916571000000;     BAS[ATNO][  1].d[  9] =         0.741679072854;
  BAS[ATNO][  1].a[ 10] =         1.032220956800;     BAS[ATNO][  1].d[ 10] =         0.639821364268;
  BAS[ATNO][  1].a[ 11] =         0.452495537700;     BAS[ATNO][  1].d[ 11] =         0.267454750221;
  BAS[ATNO][  1].a[ 12] =         0.169870422000;     BAS[ATNO][  1].d[ 12] =         0.000178955896;
  BAS[ATNO][  1].a[ 13] =         0.169870422000;     BAS[ATNO][  1].d[ 13] =        -0.003382976955;
  BAS[ATNO][  1].a[ 14] =         0.169870422000;     BAS[ATNO][  1].d[ 14] =         0.029661097242;
  BAS[ATNO][  1].a[ 15] =         0.043000000000;     BAS[ATNO][  1].d[ 15] =        -0.000011273416;
  BAS[ATNO][  1].a[ 16] =         0.043000000000;     BAS[ATNO][  1].d[ 16] =         0.000213112322;
  BAS[ATNO][  1].a[ 17] =         0.043000000000;     BAS[ATNO][  1].d[ 17] =        -0.001868515627;

  // Basis function   3 L = d
  InitBFNGauss(BAS[ATNO][  2]);
  BAS[ATNO][  2].l  = 2;
  BAS[ATNO][  2].ng = 18;
  BAS[ATNO][  2].a[  0] =         7.936570000000;     BAS[ATNO][  2].d[  0] =        -0.000026385784;
  BAS[ATNO][  2].a[  1] =         5.984245000000;     BAS[ATNO][  2].d[  1] =         0.000048147788;
  BAS[ATNO][  2].a[  2] =         4.882220000000;     BAS[ATNO][  2].d[  2] =         0.000018606401;
  BAS[ATNO][  2].a[  3] =         1.103100216300;     BAS[ATNO][  2].d[  3] =        -0.000474782770;
  BAS[ATNO][  2].a[  4] =         0.498188752600;     BAS[ATNO][  2].d[  4] =         0.000366496342;
  BAS[ATNO][  2].a[  5] =         0.106787113900;     BAS[ATNO][  2].d[  5] =         0.003502382105;
  BAS[ATNO][  2].a[  6] =         0.039191775900;     BAS[ATNO][  2].d[  6] =        -0.013229310709;
  BAS[ATNO][  2].a[  7] =         5.734184661900;     BAS[ATNO][  2].d[  7] =         0.005345013045;
  BAS[ATNO][  2].a[  8] =         2.248368629400;     BAS[ATNO][  2].d[  8] =        -0.033044374173;
  BAS[ATNO][  2].a[  9] =         0.983769783600;     BAS[ATNO][  2].d[  9] =        -0.067762845764;
  BAS[ATNO][  2].a[ 10] =         0.403794455800;     BAS[ATNO][  2].d[ 10] =        -0.061188326988;
  BAS[ATNO][  2].a[ 11] =         5.734184661900;     BAS[ATNO][  2].d[ 11] =        -0.032751888908;
  BAS[ATNO][  2].a[ 12] =         2.248368629400;     BAS[ATNO][  2].d[ 12] =         0.202481390211;
  BAS[ATNO][  2].a[ 13] =         0.983769783600;     BAS[ATNO][  2].d[ 13] =         0.415220913038;
  BAS[ATNO][  2].a[ 14] =         0.403794455800;     BAS[ATNO][  2].d[ 14] =         0.374935153813;
  BAS[ATNO][  2].a[ 15] =         5.734184661900;     BAS[ATNO][  2].d[ 15] =        -0.003786152761;
  BAS[ATNO][  2].a[ 16] =         2.248368629400;     BAS[ATNO][  2].d[ 16] =         0.023407061398;
  BAS[ATNO][  2].a[ 17] =         0.983769783600;     BAS[ATNO][  2].d[ 17] =         0.047999973702;

  // Basis function   4 L = d
  InitBFNGauss(BAS[ATNO][  3]);
  BAS[ATNO][  3].l  = 2;
  BAS[ATNO][  3].ng = 18;
  BAS[ATNO][  3].a[  0] =         5.734184661900;     BAS[ATNO][  3].d[  0] =        -0.000267554560;
  BAS[ATNO][  3].a[  1] =         2.248368629400;     BAS[ATNO][  3].d[  1] =         0.001654097554;
  BAS[ATNO][  3].a[  2] =         0.983769783600;     BAS[ATNO][  3].d[  2] =         0.003391995165;
  BAS[ATNO][  3].a[  3] =         0.403794455800;     BAS[ATNO][  3].d[  3] =         0.003062895410;
  BAS[ATNO][  3].a[  4] =         5.734184661900;     BAS[ATNO][  3].d[  4] =         0.003051765037;
  BAS[ATNO][  3].a[  5] =         2.248368629400;     BAS[ATNO][  3].d[  5] =        -0.018866869911;
  BAS[ATNO][  3].a[  6] =         0.983769783600;     BAS[ATNO][  3].d[  6] =        -0.038689575089;
  BAS[ATNO][  3].a[  7] =         0.403794455800;     BAS[ATNO][  3].d[  7] =        -0.034935816891;
  BAS[ATNO][  3].a[  8] =         5.734184661900;     BAS[ATNO][  3].d[  8] =        -0.025587178786;
  BAS[ATNO][  3].a[  9] =         2.248368629400;     BAS[ATNO][  3].d[  9] =         0.158187136828;
  BAS[ATNO][  3].a[ 10] =         0.983769783600;     BAS[ATNO][  3].d[ 10] =         0.324388366339;
  BAS[ATNO][  3].a[ 11] =         0.403794455800;     BAS[ATNO][  3].d[ 11] =         0.292915405292;
  BAS[ATNO][  3].a[ 12] =         5.734184661900;     BAS[ATNO][  3].d[ 12] =        -0.005130668495;
  BAS[ATNO][  3].a[ 13] =         2.248368629400;     BAS[ATNO][  3].d[ 13] =         0.031719235872;
  BAS[ATNO][  3].a[ 14] =         0.983769783600;     BAS[ATNO][  3].d[ 14] =         0.065045434872;
  BAS[ATNO][  3].a[ 15] =         0.403794455800;     BAS[ATNO][  3].d[ 15] =         0.058734566017;
  BAS[ATNO][  3].a[ 16] =         5.734184661900;     BAS[ATNO][  3].d[ 16] =         0.021513624466;
  BAS[ATNO][  3].a[ 17] =         2.248368629400;     BAS[ATNO][  3].d[ 17] =        -0.133003278149;

  // Basis function   5 L = p
  InitBFNGauss(BAS[ATNO][  4]);
  BAS[ATNO][  4].l  = 1;
  BAS[ATNO][  4].ng = 18;
  BAS[ATNO][  4].a[  0] =         3.754609000000;     BAS[ATNO][  4].d[  0] =         0.002734080279;
  BAS[ATNO][  4].a[  1] =         2.916571000000;     BAS[ATNO][  4].d[  1] =        -0.002895415096;
  BAS[ATNO][  4].a[  2] =         1.032220956800;     BAS[ATNO][  4].d[  2] =        -0.002497776336;
  BAS[ATNO][  4].a[  3] =         0.452495537700;     BAS[ATNO][  4].d[  3] =        -0.001044107283;
  BAS[ATNO][  4].a[  4] =         3.754609000000;     BAS[ATNO][  4].d[  4] =        -0.051684972602;
  BAS[ATNO][  4].a[  5] =         2.916571000000;     BAS[ATNO][  4].d[  5] =         0.054734841204;
  BAS[ATNO][  4].a[  6] =         1.032220956800;     BAS[ATNO][  4].d[  6] =         0.047217889858;
  BAS[ATNO][  4].a[  7] =         0.452495537700;     BAS[ATNO][  4].d[  7] =         0.019737773140;
  BAS[ATNO][  4].a[  8] =         3.754609000000;     BAS[ATNO][  4].d[  8] =         0.453160934477;
  BAS[ATNO][  4].a[  9] =         2.916571000000;     BAS[ATNO][  4].d[  9] =        -0.479901420854;
  BAS[ATNO][  4].a[ 10] =         1.032220956800;     BAS[ATNO][  4].d[ 10] =        -0.413994668372;
  BAS[ATNO][  4].a[ 11] =         0.452495537700;     BAS[ATNO][  4].d[ 11] =        -0.173055866537;
  BAS[ATNO][  4].a[ 12] =         0.169870422000;     BAS[ATNO][  4].d[ 12] =         0.008613009226;
  BAS[ATNO][  4].a[ 13] =         0.169870422000;     BAS[ATNO][  4].d[ 13] =        -0.162820071250;
  BAS[ATNO][  4].a[ 14] =         0.169870422000;     BAS[ATNO][  4].d[ 14] =         1.427565729927;
  BAS[ATNO][  4].a[ 15] =         0.043000000000;     BAS[ATNO][  4].d[ 15] =        -0.004566515911;
  BAS[ATNO][  4].a[ 16] =         0.043000000000;     BAS[ATNO][  4].d[ 16] =         0.086325281488;
  BAS[ATNO][  4].a[ 17] =         0.043000000000;     BAS[ATNO][  4].d[ 17] =        -0.756878513401;

  // Basis function   6 L = d
  InitBFNGauss(BAS[ATNO][  5]);
  BAS[ATNO][  5].l  = 2;
  BAS[ATNO][  5].ng = 18;
  BAS[ATNO][  5].a[  0] =         7.936570000000;     BAS[ATNO][  5].d[  0] =         0.000213702230;
  BAS[ATNO][  5].a[  1] =         5.984245000000;     BAS[ATNO][  5].d[  1] =        -0.000389955807;
  BAS[ATNO][  5].a[  2] =         4.882220000000;     BAS[ATNO][  5].d[  2] =        -0.000150695900;
  BAS[ATNO][  5].a[  3] =         1.103100216300;     BAS[ATNO][  5].d[  3] =         0.003669689787;
  BAS[ATNO][  5].a[  4] =         0.498188752600;     BAS[ATNO][  5].d[  4] =         0.000058153689;
  BAS[ATNO][  5].a[  5] =         0.106787113900;     BAS[ATNO][  5].d[  5] =        -0.049213909124;
  BAS[ATNO][  5].a[  6] =         0.039191775900;     BAS[ATNO][  5].d[  6] =         0.032660322815;
  BAS[ATNO][  5].a[  7] =         5.734184661900;     BAS[ATNO][  5].d[  7] =        -0.012403174822;
  BAS[ATNO][  5].a[  8] =         2.248368629400;     BAS[ATNO][  5].d[  8] =         0.076679915716;
  BAS[ATNO][  5].a[  9] =         0.983769783600;     BAS[ATNO][  5].d[  9] =         0.157244597057;
  BAS[ATNO][  5].a[ 10] =         0.403794455800;     BAS[ATNO][  5].d[ 10] =         0.141988337612;
  BAS[ATNO][  5].a[ 11] =         5.734184661900;     BAS[ATNO][  5].d[ 11] =        -0.001845957461;
  BAS[ATNO][  5].a[ 12] =         2.248368629400;     BAS[ATNO][  5].d[ 12] =         0.011412228288;
  BAS[ATNO][  5].a[ 13] =         0.983769783600;     BAS[ATNO][  5].d[ 13] =         0.023402624036;
  BAS[ATNO][  5].a[ 14] =         0.403794455800;     BAS[ATNO][  5].d[ 14] =         0.021132043611;
  BAS[ATNO][  5].a[ 15] =         5.734184661900;     BAS[ATNO][  5].d[ 15] =         0.000052093242;
  BAS[ATNO][  5].a[ 16] =         2.248368629400;     BAS[ATNO][  5].d[ 16] =        -0.000322055073;
  BAS[ATNO][  5].a[ 17] =         0.983769783600;     BAS[ATNO][  5].d[ 17] =        -0.000660426133;

  // Basis function   7 L = s
  InitBFNGauss(BAS[ATNO][  6]);
  BAS[ATNO][  6].l  = 0;
  BAS[ATNO][  6].ng = 18;
  BAS[ATNO][  6].a[  0] =         7.936570000000;     BAS[ATNO][  6].d[  0] =        -0.914765615047;
  BAS[ATNO][  6].a[  1] =         5.984245000000;     BAS[ATNO][  6].d[  1] =         1.258614362418;
  BAS[ATNO][  6].a[  2] =         4.882220000000;     BAS[ATNO][  6].d[  2] =         0.396813745502;
  BAS[ATNO][  6].a[  3] =         1.103100216300;     BAS[ATNO][  6].d[  3] =        -3.697679768169;
  BAS[ATNO][  6].a[  4] =         0.498188752600;     BAS[ATNO][  6].d[  4] =         3.960053832124;
  BAS[ATNO][  6].a[  5] =         0.106787113900;     BAS[ATNO][  6].d[  5] =        -1.773476065346;
  BAS[ATNO][  6].a[  6] =         0.039191775900;     BAS[ATNO][  6].d[  6] =         0.718524702745;
  BAS[ATNO][  6].a[  7] =         5.734184661900;     BAS[ATNO][  6].d[  7] =        -0.002293237866;
  BAS[ATNO][  6].a[  8] =         2.248368629400;     BAS[ATNO][  6].d[  8] =         0.005558962039;
  BAS[ATNO][  6].a[  9] =         0.983769783600;     BAS[ATNO][  6].d[  9] =         0.004987854491;
  BAS[ATNO][  6].a[ 10] =         0.403794455800;     BAS[ATNO][  6].d[ 10] =         0.001848662325;
  BAS[ATNO][  6].a[ 11] =         5.734184661900;     BAS[ATNO][  6].d[ 11] =         0.000269076309;
  BAS[ATNO][  6].a[ 12] =         2.248368629400;     BAS[ATNO][  6].d[ 12] =        -0.000652258978;
  BAS[ATNO][  6].a[ 13] =         0.983769783600;     BAS[ATNO][  6].d[ 13] =        -0.000585248262;
  BAS[ATNO][  6].a[ 14] =         0.403794455800;     BAS[ATNO][  6].d[ 14] =        -0.000216912184;
  BAS[ATNO][  6].a[ 15] =         5.734184661900;     BAS[ATNO][  6].d[ 15] =         0.000078110258;
  BAS[ATNO][  6].a[ 16] =         2.248368629400;     BAS[ATNO][  6].d[ 16] =        -0.000189344492;
  BAS[ATNO][  6].a[ 17] =         0.983769783600;     BAS[ATNO][  6].d[ 17] =        -0.000169891927;

  // Basis function   8 L = s
  InitBFNGauss(BAS[ATNO][  7]);
  BAS[ATNO][  7].l  = 0;
  BAS[ATNO][  7].ng = 18;
  BAS[ATNO][  7].a[  0] =         7.936570000000;     BAS[ATNO][  7].d[  0] =        -1.816812991574;
  BAS[ATNO][  7].a[  1] =         5.984245000000;     BAS[ATNO][  7].d[  1] =         2.499729862394;
  BAS[ATNO][  7].a[  2] =         4.882220000000;     BAS[ATNO][  7].d[  2] =         0.788110480111;
  BAS[ATNO][  7].a[  3] =         1.103100216300;     BAS[ATNO][  7].d[  3] =        -1.453631760173;
  BAS[ATNO][  7].a[  4] =         0.498188752600;     BAS[ATNO][  7].d[  4] =         0.941436926755;
  BAS[ATNO][  7].a[  5] =         0.106787113900;     BAS[ATNO][  7].d[  5] =        -0.288965434943;
  BAS[ATNO][  7].a[  6] =         0.039191775900;     BAS[ATNO][  7].d[  6] =         0.117358194915;
  BAS[ATNO][  7].a[  7] =         5.734184661900;     BAS[ATNO][  7].d[  7] =         0.000022422162;
  BAS[ATNO][  7].a[  8] =         2.248368629400;     BAS[ATNO][  7].d[  8] =        -0.000054352821;
  BAS[ATNO][  7].a[  9] =         0.983769783600;     BAS[ATNO][  7].d[  9] =        -0.000048768810;
  BAS[ATNO][  7].a[ 10] =         0.403794455800;     BAS[ATNO][  7].d[ 10] =        -0.000018075319;
  BAS[ATNO][  7].a[ 11] =         5.734184661900;     BAS[ATNO][  7].d[ 11] =        -0.000002748316;
  BAS[ATNO][  7].a[ 12] =         2.248368629400;     BAS[ATNO][  7].d[ 12] =         0.000006662101;
  BAS[ATNO][  7].a[ 13] =         0.983769783600;     BAS[ATNO][  7].d[ 13] =         0.000005977661;
  BAS[ATNO][  7].a[ 14] =         0.403794455800;     BAS[ATNO][  7].d[ 14] =         0.000002215517;
  BAS[ATNO][  7].a[ 15] =         5.734184661900;     BAS[ATNO][  7].d[ 15] =        -0.000000776897;
  BAS[ATNO][  7].a[ 16] =         2.248368629400;     BAS[ATNO][  7].d[ 16] =         0.000001883251;
  BAS[ATNO][  7].a[ 17] =         0.983769783600;     BAS[ATNO][  7].d[ 17] =         0.000001689773;

-------------------------------------------
RADIAL EXPECTATION VALUES <R**-3> TO <R**3>
-------------------------------------------
   0 :     0.000000     1.233852     1.056544     1.043897     1.200974     1.522059
   1 :     1.293344     1.058017     0.972215     1.149845     1.478026     2.125169
   2 :     1.291010     1.056451     0.971323     1.151523     1.483564     2.140655
   3 :     1.290671     1.056223     0.971193     1.151768     1.484375     2.142929
   4 :     0.649150     0.626503     0.722642     1.671283     3.380687    41.054334
   5 :     0.000000     0.164535     0.346055     3.475002    13.975507    63.882728
   6 :     0.000000     0.110201     0.260901     5.119403    30.690108   201.222239
   7 :     0.665605     0.639742     0.731965     1.640439     3.239871    37.952659
   8 :     0.666050     0.639803     0.732090     1.639434     3.233473    38.144711
   9 :     0.665256     0.639179     0.731648     1.640913     3.240285    38.278833
  10 :     0.659541     0.634687     0.728462     1.651608     3.289592    39.251285
  11 :     0.029642     0.062883     0.222173     5.139223    29.124320   179.121803
  12 :     0.028941     0.061967     0.220839     5.160291    29.324792   180.687445
  13 :     0.028846     0.061841     0.220656     5.163204    29.352547   180.904391
  14 :     0.220645     0.242302     0.404950     3.430847    15.672772    89.483834
  15 :     0.223680     0.244785     0.407175     3.408101    15.466761    87.902706
  16 :     0.224114     0.245138     0.407489     3.404942    15.438195    87.683487
  17 :     0.264278     0.268795     0.415639     3.184778    11.616018   227.681069
  18 :     0.282895     0.283363     0.425982     3.150016    11.455686   224.537853
  19 :     0.266004     0.270066     0.416536     3.181857    11.602854   227.448102
  20 :     0.266799     0.270690     0.416979     3.180377    11.596042   227.313979
  21 :     0.272513     0.275183     0.420165     3.169683    11.546735   226.341528
  22 :     0.000020     0.714236     0.710245     2.077312     6.502353    29.461709
  23 :     0.000000    15.051400     3.157477     0.444182     0.373523     0.916044
Making the total density                ... o.k.
o.k.
Initializing the integrals              ... done
Making exponents                        ... done
Making rho(0)                           ... done (         0.001410449)
Integral calculation                    ... Two index integrals                     ... done
Solving the equation system             ... done
atomic density will be written to file 44_Ru_atom44.adf

-------
TIMINGS
-------

Total SCF time: 0 days 0 hours 0 min 0 sec 

Total time                  ....       0.608 sec
Sum of individual times     ....       0.179 sec  ( 29.5%)

Fock matrix formation       ....       0.125 sec  ( 20.6%)
Diagonalization             ....       0.023 sec  (  3.7%)
Density matrix formation    ....       0.000 sec  (  0.0%)
Population analysis         ....       0.000 sec  (  0.0%)
Initial guess               ....       0.000 sec  (  0.1%)
Orbital Transformation      ....       0.000 sec  (  0.0%)
Orbital Orthonormalization  ....       0.000 sec  (  0.0%)
DIIS solution               ....       0.031 sec  (  5.0%)

-------------------------   --------------------
FINAL SINGLE POINT ENERGY       -94.066590934440
-------------------------   --------------------


                            ***************************************
                            *     ORCA property calculations      *
                            ***************************************

                                    ---------------------
                                    Active property flags
                                    ---------------------
   (+) Dipole Moment


------------------------------------------------------------------------------
                       ORCA ELECTRIC PROPERTIES CALCULATION
------------------------------------------------------------------------------

Dipole Moment Calculation                       ... on
Quadrupole Moment Calculation                   ... off
Polarizability Calculation                      ... off
GBWName                                         ... 44_Ru_atom44.gbw
Electron density file                           ... 44_Ru_atom44.scfp
The origin for moment calculation is the CENTER OF MASS  = ( 0.000000,  0.000000  0.000000)

-------------
DIPOLE MOMENT
-------------
                                X             Y             Z
Electronic contribution:      0.00000       0.00000      -0.00000
Nuclear contribution   :      0.00000       0.00000       0.00000
                        -----------------------------------------
Total Dipole Moment    :      0.00000       0.00000      -0.00000
                        -----------------------------------------
Magnitude (a.u.)       :      0.00000
Magnitude (Debye)      :      0.00000



--------------------
Rotational spectrum 
--------------------
 
Rotational constants in cm-1:     0.000000     0.000000     0.000000 
Rotational constants in MHz :     0.000000     0.000000     0.000000 

 Dipole components along the rotational axes: 
x,y,z [a.u.] :     0.000000     0.000000    -0.000000 
x,y,z [Debye]:     0.000000     0.000000    -0.000000 

 

Timings for individual modules:

Sum of individual times         ...        0.916 sec (=   0.015 min)
GTO integral calculation        ...        0.284 sec (=   0.005 min)  31.0 %
SCF iterations                  ...        0.632 sec (=   0.011 min)  69.0 %
                             ****ORCA TERMINATED NORMALLY****
TOTAL RUN TIME: 0 days 0 hours 0 minutes 1 seconds 177 msec
