
                                 *****************
                                 * O   R   C   A *
                                 *****************

           --- An Ab Initio, DFT and Semiempirical electronic structure package ---

                  #######################################################
                  #                        -***-                        #
                  #          Department of theory and spectroscopy      #
                  #               Directorship: Frank Neese             #
                  #        Max Planck Institute fuer Kohlenforschung    #
                  #                Kaiser Wilhelm Platz 1               #
                  #                 D-45470 Muelheim/Ruhr               #
                  #                      Germany                        #
                  #                                                     #
                  #                  All rights reserved                #
                  #                        -***-                        #
                  #######################################################


                         Program Version 4.2.0 -  RELEASE  -


 With contributions from (in alphabetic order):
   Daniel Aravena         : Magnetic Suceptibility
   Michael Atanasov       : Ab Initio Ligand Field Theory (pilot matlab implementation)
   Alexander A. Auer      : GIAO ZORA, VPT2
   Ute Becker             : Parallelization
   Giovanni Bistoni       : ED, misc. LED, open-shell LED, HFLED
   Martin Brehm           : Molecular dynamics
   Dmytro Bykov           : SCF Hessian
   Vijay G. Chilkuri      : MRCI spin determinant printing, contributions to CSF-ICE
   Dipayan Datta          : RHF DLPNO-CCSD density
   Achintya Kumar Dutta   : EOM-CC, STEOM-CC
   Dmitry Ganyushin       : Spin-Orbit,Spin-Spin,Magnetic field MRCI
   Miquel Garcia          : C-PCM Hessian, Gaussian charge scheme
   Yang Guo               : DLPNO-NEVPT2, CIM, IAO-localization
   Andreas Hansen         : Spin unrestricted coupled pair/coupled cluster methods
   Benjamin Helmich-Paris : CASSCF linear response (MC-RPA)
   Lee Huntington         : MR-EOM, pCC
   Robert Izsak           : Overlap fitted RIJCOSX, COSX-SCS-MP3, EOM
   Christian Kollmar      : KDIIS, OOCD, Brueckner-CCSD(T), CCSD density
   Simone Kossmann        : Meta GGA functionals, TD-DFT gradient, OOMP2, MP2 Hessian
   Martin Krupicka        : AUTO-CI
   Lucas Lang             : DCDCAS
   Dagmar Lenk            : GEPOL surface, SMD
   Dimitrios Liakos       : Extrapolation schemes; Compound Job, initial MDCI parallelization
   Dimitrios Manganas     : Further ROCIS development; embedding schemes
   Dimitrios Pantazis     : SARC Basis sets
   Taras Petrenko         : DFT Hessian,TD-DFT gradient, ASA, ECA, R-Raman, ABS, FL, XAS/XES, NRVS
   Peter Pinski           : DLPNO-MP2, DLPNO-MP2 Gradient
   Christoph Reimann      : Effective Core Potentials
   Marius Retegan         : Local ZFS, SOC
   Christoph Riplinger    : Optimizer, TS searches, QM/MM, DLPNO-CCSD(T), (RO)-DLPNO pert. Triples
   Tobias Risthaus        : Range-separated hybrids, TD-DFT gradient, RPA, STAB
   Michael Roemelt        : Original ROCIS implementation
   Masaaki Saitow         : Open-shell DLPNO-CCSD energy and density
   Barbara Sandhoefer     : DKH picture change effects
   Avijit Sen             : IP-ROCIS
   Kantharuban Sivalingam : CASSCF convergence, NEVPT2, FIC-MRCI
   Bernardo de Souza      : ESD, SOC TD-DFT
   Georgi Stoychev        : AutoAux, RI-MP2 NMR
   Willem Van den Heuvel  : Paramagnetic NMR
   Boris Wezisla          : Elementary symmetry handling
   Frank Wennmohs         : Technical directorship


 We gratefully acknowledge several colleagues who have allowed us to
 interface, adapt or use parts of their codes:
   Stefan Grimme, W. Hujo, H. Kruse,             : VdW corrections, initial TS optimization,
                  C. Bannwarth                     DFT functionals, gCP, sTDA/sTD-DF
   Ed Valeev, F. Pavosevic, A. Kumar             : LibInt (2-el integral package), F12 methods
   Garnet Chan, S. Sharma, J. Yang, R. Olivares  : DMRG
   Ulf Ekstrom                                   : XCFun DFT Library
   Mihaly Kallay                                 : mrcc  (arbitrary order and MRCC methods)
   Andreas Klamt, Michael Diedenhofen            : otool_cosmo (COSMO solvation model)
   Jiri Pittner, Ondrej Demel                    : Mk-CCSD
   Frank Weinhold                                : gennbo (NPA and NBO analysis)
   Christopher J. Cramer and Donald G. Truhlar   : smd solvation model
   Lars Goerigk                                  : TD-DFT with DH, B97 family of functionals
   V. Asgeirsson, H. Jonsson                     : NEB implementation
   FAccTs GmbH                                   : IRC, NEB, NEB-TS, Multilevel, MM, QM/MM, CI optimization
   S Lehtola, MJT Oliveira, MAL Marques          : LibXC Library


 Your calculation uses the libint2 library for the computation of 2-el integrals
 For citations please refer to: http://libint.valeyev.net

 Your ORCA version has been built with support for libXC version: 4.2.3
 For citations please refer to: https://tddft.org/programs/libxc/

 This ORCA versions uses:
   CBLAS   interface :  Fast vector & matrix operations
   LAPACKE interface :  Fast linear algebra routines
   SCALAPACK package :  Parallel linear algebra routines


----- Orbital basis set information -----
Your calculation utilizes the basis: def2-SVP
   F. Weigend and R. Ahlrichs, Phys. Chem. Chem. Phys. 7, 3297 (2005).

cite the ECPs for Ru [Def2-ECP] as follows:
Ce-Yb(ecp-28): M. Dolg, H. Stoll, H.Preuss, J. Chem. Phys., 1989, 90, 1730-1734.
Y-Cd(ecp-28), Hf-Hg(ecp-46): D. Andrae,U. Haeussermann, M. Dolg, H. Stoll, H. Preuss, Theor. Chim. Acta, 1990, 77, 123-141.
In-Sb(ecp-28), Tl-Bi(ecp-46): B. Metz, H. Stoll, M. Dolg, J. Chem. Phys., 2000, 113, 2563-2569.
Te-Xe(ecp-28), Po-Rn(ecp-46): K. A. Peterson, D. Figgen, E. Goll, H. Stoll, M. Dolg, J. Chem. Phys., 2003, 119, 11113-11123.
Rb(ecp-28), Cs(ecp-46): T. Leininger, A. Nicklass, W. Kuechle, H. Stoll, M. Dolg, A. Bergner, Chem. Phys. Lett., 1996, 255, 274-280.
Sr(ecp-28), Ba(ecp-46): M. Kaupp, P. V. Schleyer, H. Stoll and H. Preuss, J. Chem. Phys., 1991, 94, 1360-1366.
La(ecp-46): M. Dolg, H. Stoll, A. Savin, H. Preuss, Theor. Chim. Acta, 1989, 75, 173-194.
Lu(ecp-28): X. Cao, M. Dolg, J. Chem. Phys., 2001, 115, 7348-7355.

ECP parameters for Ru [Def2-ECP] have been obtained from:
TURBOMOLE (7.0.2)

================================================================================
                                        WARNINGS
                       Please study these warnings very carefully!
================================================================================


WARNING: your system is open-shell and RHF/RKS was chosen
  ===> : WILL SWITCH to UHF/UKS


WARNING: MDCI localization with Augmented Hessian Foster-Boys
  ===> : Switching off randomization!

WARNING: Post HF methods need fully converged wavefunctions
  ===> : Setting SCFConvForced true
         You can overwrite this default with %scf ConvForced false 


INFO   : the flag for use of LIBINT has been found!

================================================================================
                                       INPUT FILE
================================================================================
NAME = 44_Ru.in
|  1> #
|  2> # 44_Ru CCSD(T)/Def2-SVP
|  3> #
|  4> ! CCSD(T) Def2-SVP tightscf
|  5> 
|  6> *xyz 0 5
|  7>  Ru 0.0 0.0 0.0
|  8> *
|  9> 
| 10> %maxcore 5000 
| 11> 
| 12> %pal
| 13> nprocs 24
| 14> end
| 15> 
| 16> 
| 17>                          ****END OF INPUT****
================================================================================

                       ****************************
                       * Single Point Calculation *
                       ****************************

---------------------------------
CARTESIAN COORDINATES (ANGSTROEM)
---------------------------------
  Ru     0.000000    0.000000    0.000000

----------------------------
CARTESIAN COORDINATES (A.U.)
----------------------------
  NO LB      ZA    FRAG     MASS         X           Y           Z
   0 Ru   16.0000*   0   101.070    0.000000    0.000000    0.000000
* core charge reduced due to ECP

--------------------------------
INTERNAL COORDINATES (ANGSTROEM)
--------------------------------
 Ru     0   0   0     0.000000000000     0.00000000     0.00000000

---------------------------
INTERNAL COORDINATES (A.U.)
---------------------------
 Ru     0   0   0     0.000000000000     0.00000000     0.00000000

---------------------
BASIS SET INFORMATION
---------------------
There are 1 groups of distinct atoms

 Group   1 Type Ru  : 7s6p5d1f contracted to 5s3p2d1f pattern {31111/411/41/1}

Atom   0Ru   basis set group =>   1
-------------------------
ECP PARAMETER INFORMATION
-------------------------

 Group 1, Type Ru ECP Def2-ECP (replacing 28 core electrons, lmax=3)

Atom   0Ru   ECP group =>   1



           ************************************************************
           *        Program running with 24 parallel MPI-processes    *
           *              working on a common directory               *
           ************************************************************
------------------------------------------------------------------------------
                           ORCA GTO INTEGRAL CALCULATION
------------------------------------------------------------------------------

                         BASIS SET STATISTICS AND STARTUP INFO

 # of primitive gaussian shells          ...   19
 # of primitive gaussian functions       ...   57
 # of contracted shells                  ...   11
 # of contracted basis functions         ...   31
 Highest angular momentum                ...    3
 Maximum contraction depth               ...    4
 Integral package used                   ... LIBINT
 Integral threshhold            Thresh   ...  2.500e-11
 Primitive cut-off              TCut     ...  2.500e-12


------------------------------ INTEGRAL EVALUATION ----------------------------


 * One electron integrals 

   ECP integrals                         ... done
 Pre-screening matrix                    ... done
 Shell pair data                         ... done (   0.000 sec)



           ************************************************************
           *        Program running with 24 parallel MPI-processes    *
           *              working on a common directory               *
           ************************************************************
-------------------------------------------------------------------------------
                                 ORCA SCF
-------------------------------------------------------------------------------

------------
SCF SETTINGS
------------
Hamiltonian:
 Ab initio Hamiltonian  Method          .... Hartree-Fock(GTOs)


General Settings:
 Integral files         IntName         .... 44_Ru
 Hartree-Fock type      HFTyp           .... UHF
 Total Charge           Charge          ....    0
 Multiplicity           Mult            ....    5
 Number of Electrons    NEL             ....   16
 Basis Dimension        Dim             ....   31
 Nuclear Repulsion      ENuc            ....      0.0000000000 Eh

Convergence Acceleration:
 DIIS                   CNVDIIS         .... on
   Start iteration      DIISMaxIt       ....    12
   Startup error        DIISStart       ....  0.200000
   # of expansion vecs  DIISMaxEq       ....     5
   Bias factor          DIISBfac        ....   1.050
   Max. coefficient     DIISMaxC        ....  10.000
 Newton-Raphson         CNVNR           .... off
 SOSCF                  CNVSOSCF        .... off
 Level Shifting         CNVShift        .... on
   Level shift para.    LevelShift      ....    0.2500
   Turn off err/grad.   ShiftErr        ....    0.0010
 Zerner damping         CNVZerner       .... off
 Static damping         CNVDamp         .... on
   Fraction old density DampFac         ....    0.7000
   Max. Damping (<1)    DampMax         ....    0.9800
   Min. Damping (>=0)   DampMin         ....    0.0000
   Turn off err/grad.   DampErr         ....    0.1000
 Fernandez-Rico         CNVRico         .... off

SCF Procedure:
 Maximum # iterations   MaxIter         ....   125
 SCF integral mode      SCFMode         .... Direct
   Integral package                     .... LIBINT
 Reset frequency        DirectResetFreq ....    20
 Integral Threshold     Thresh          ....  2.500e-11 Eh
 Primitive CutOff       TCut            ....  2.500e-12 Eh

Convergence Tolerance:
 Convergence Check Mode ConvCheckMode   .... Total+1el-Energy
 Convergence forced     ConvForced      .... 1
 Energy Change          TolE            ....  1.000e-08 Eh
 1-El. energy change                    ....  1.000e-05 Eh
 DIIS Error             TolErr          ....  5.000e-07


Diagonalization of the overlap matrix:
Smallest eigenvalue                        ... 2.539e-02
Time for diagonalization                   ...    0.001 sec
Threshold for overlap eigenvalues          ... 1.000e-08
Number of eigenvalues below threshold      ... 0
Time for construction of square roots      ...    0.010 sec
Total time needed                          ...    0.011 sec

-------------------
DFT GRID GENERATION
-------------------

General Integration Accuracy     IntAcc      ...  4.340
Radial Grid Type                 RadialGrid  ... Gauss-Chebyshev
Angular Grid (max. acc.)         AngularGrid ... Lebedev-110
Angular grid pruning method      GridPruning ... 3 (G Style)
Weight generation scheme         WeightScheme... Becke
Basis function cutoff            BFCut       ...    1.0000e-11
Integration weight cutoff        WCut        ...    1.0000e-14
Grids for H and He will be reduced by one unit

# of grid points (after initial pruning)     ...   3280 (   0.0 sec)
# of grid points (after weights+screening)   ...   3280 (   0.0 sec)
Grid point division into batches done        ...    0.0 sec
Reduced shell lists constructed in    0.0 sec

Total number of grid points                  ...     3280
Total number of batches                      ...       52
Average number of points per batch           ...       63
Average number of grid points per atom       ...     3280
Average number of shells per batch           ...     4.00 (36.36%)
Average number of basis functions per batch  ...    11.00 (35.48%)
Average number of large shells per batch     ...     3.75 (93.75%)
Average number of large basis fcns per batch ...     9.75 (88.64%)
Maximum spatial batch extension              ...  19.06, 29.99, 29.99 au
Average spatial batch extension              ...   1.10,  1.53,  1.73 au

Time for grid setup =    0.051 sec

------------------------------
INITIAL GUESS: MODEL POTENTIAL
------------------------------
Loading Hartree-Fock densities                     ... done
  calling /sw/apps/orca/orca_4_2_0_linux_x86-64_openmpi314/orca 44_Ru_atom44.inp > 44_Ru_atom44.out in order to generate an atomic fitting density for atom 0 (Ru with ECP) on-the-fly... 
    atom 0 (Ru), assumed electronic state with S=5: 1s2 2s2 2p6 3s2 3p6 4s2 3d10 4p6 5s2 4d6           ... done
Calculating cut-offs                               ... done
Setting up the integral package                    ... done
Initializing the effective Hamiltonian             ... done
Starting the Coulomb interaction                   ... done (   0.0 sec)
Reading the grid                                   ... done
Mapping shells                                     ... done
Starting the XC term evaluation                    ... done (   0.0 sec)
Transforming the Hamiltonian                       ... done (   0.0 sec)
Diagonalizing the Hamiltonian                      ... done (   0.0 sec)
Back transforming the eigenvectors                 ... done (   0.0 sec)
Now organizing SCF variables                       ... done
                      ------------------
                      INITIAL GUESS DONE (   1.4 sec)
                      ------------------
--------------
SCF ITERATIONS
--------------
ITER       Energy         Delta-E        Max-DP      RMS-DP      [F,P]     Damp
               ***  Starting incremental Fock matrix formation  ***
  0    -94.0601216769   0.000000000000 0.07580473  0.00254657  0.4666896 0.7000
  1    -94.0675857541  -0.007464077191 0.05894615  0.00202410  0.3308135 0.7000
  2    -94.0729889549  -0.005403200757 0.04274073  0.00150898  0.2335625 0.7000
                               ***Turning on DIIS***
  3    -94.0769264671  -0.003937512188 0.03109422  0.00113883  0.1652565 0.7000
  4    -94.1155903125  -0.038663845432 0.02435486  0.00096868  0.1172295 0.7000
  5    -94.1062259293   0.009364383230 0.06286447  0.00275514  0.0829071 0.0000
  6    -94.0877925286   0.018433400670 0.01626691  0.00055532  0.0017159 0.0000
  7    -94.0902010897  -0.002408561137 0.01292603  0.00043406  0.0011707 0.0000
  8    -94.0890959522   0.001105137483 0.01408217  0.00047265  0.0007050 0.0000
  9    -94.0874998711   0.001596081147 0.00303389  0.00010421  0.0002862 0.0000
 10    -94.0875337639  -0.000033892777 0.00077940  0.00003078  0.0002795 0.0000
 11    -94.0871679462   0.000365817636 0.00011715  0.00000407  0.0002925 0.0000
 12    -94.0873767352  -0.000208788930 0.00005853  0.00000289  0.0002933 0.0000
 13    -94.0873510798   0.000025655411 0.00005844  0.00000218  0.0002951 0.0000
 14    -94.0873914576  -0.000040377872 0.00016349  0.00000624  0.0002943 0.0000
 15    -94.0875516018  -0.000160144150 0.00037295  0.00001744  0.0002966 0.0000
 16    -94.0873648516   0.000186750198 0.00072722  0.00003091  0.0003096 0.0000
 17    -94.0874163615  -0.000051509920 0.00049887  0.00002002  0.0002837 0.0000
 18    -94.0874149779   0.000001383605 0.00135109  0.00005432  0.0002713 0.0000
 19    -94.0874925395  -0.000077561644 0.00209031  0.00008444  0.0002602 0.0000
               *** Restarting incremental Fock matrix formation ***
                                   *** Resetting DIIS ***
 20    -94.0875652129  -0.000072673354 0.00032466  0.00001281  0.0002335 0.0000
 21    -94.0876130207  -0.000047807784 0.00050215  0.00001682  0.0002191 0.0000
 22    -94.0876235795  -0.000010558823 0.00073020  0.00002377  0.0001987 0.0000
 23    -94.0875693937   0.000054185808 0.00018578  0.00000719  0.0001722 0.0000
 24    -94.0875707439  -0.000001350222 0.00011207  0.00000355  0.0001687 0.0000
 25    -94.0875658088   0.000004935144 0.00002901  0.00000101  0.0001733 0.0000
 26    -94.0875713048  -0.000005496060 0.00002775  0.00000089  0.0001747 0.0000
 27    -94.0875790557  -0.000007750879 0.00027472  0.00000942  0.0001736 0.0000
 28    -94.0875659079   0.000013147785 0.00008286  0.00000260  0.0001657 0.0000
 29    -94.0875697476  -0.000003839693 0.00004225  0.00000170  0.0001696 0.0000
 30    -94.0875714799  -0.000001732314 0.00007673  0.00000268  0.0001691 0.0000
 31    -94.0875704676   0.000001012327 0.00000511  0.00000017  0.0001670 0.0000
 32    -94.0875689978   0.000001469766 0.00018913  0.00000737  0.0001674 0.0000
 33    -94.0875684900   0.000000507873 0.00026841  0.00001064  0.0001667 0.0000
 34    -94.0875677861   0.000000703848 0.00001768  0.00000056  0.0001683 0.0000
 35    -94.0875676430   0.000000143136 0.00003034  0.00000112  0.0001676 0.0000
 36    -94.0875669099   0.000000733119 0.00010554  0.00000422  0.0001670 0.0000
 37    -94.0875658379   0.000001071978 0.00023862  0.00000955  0.0001669 0.0000
 38    -94.0875655134   0.000000324443 0.00008626  0.00000276  0.0001664 0.0000
 39    -94.0875635376   0.000001975889 0.00048332  0.00001741  0.0001603 0.0000
               *** Restarting incremental Fock matrix formation ***
                                   *** Resetting DIIS ***
 40    -94.0875662322  -0.000002694601 0.00021046  0.00000767  0.0001497 0.0000
 41    -94.0875656615   0.000000570696 0.00011052  0.00000425  0.0001450 0.0000
 42    -94.0875652171   0.000000444366 0.00005398  0.00000208  0.0001430 0.0000
 43    -94.0875652274  -0.000000010351 0.00000556  0.00000022  0.0001440 0.0000
 44    -94.0875652400  -0.000000012538 0.00000690  0.00000028  0.0001440 0.0000
 45    -94.0875664677  -0.000001227732 0.00019987  0.00000779  0.0001441 0.0000
 46    -94.0875663378   0.000000129870 0.00015143  0.00000608  0.0001409 0.0000
 47    -94.0875664247  -0.000000086840 0.00002228  0.00000089  0.0001425 0.0000
 48    -94.0875663472   0.000000077458 0.00001740  0.00000053  0.0001424 0.0000
 49    -94.0875662980   0.000000049181 0.00003533  0.00000115  0.0001417 0.0000
 50    -94.0875663591  -0.000000061048 0.00008143  0.00000282  0.0001406 0.0000
 51    -94.0875664726  -0.000000113516 0.00018949  0.00000725  0.0001386 0.0000
 52    -94.0875664832  -0.000000010565 0.00007382  0.00000297  0.0001352 0.0000
 53    -94.0875662812   0.000000201962 0.00014686  0.00000530  0.0001352 0.0000
 54    -94.0875663418  -0.000000060584 0.00001175  0.00000041  0.0001378 0.0000
 55    -94.0875664082  -0.000000066419 0.00001870  0.00000057  0.0001375 0.0000
 56    -94.0875664974  -0.000000089167 0.00014041  0.00000563  0.0001367 0.0000
 57    -94.0875666020  -0.000000104576 0.00003131  0.00000125  0.0001360 0.0000
                 **** Energy Check signals convergence ****

               *****************************************************
               *                     SUCCESS                       *
               *           SCF CONVERGED AFTER  58 CYCLES          *
               *****************************************************


----------------
TOTAL SCF ENERGY
----------------

Total Energy       :          -94.08756659 Eh           -2560.25285 eV

Components:
Nuclear Repulsion  :            0.00000000 Eh               0.00000 eV
Electronic Energy  :          -94.08756659 Eh           -2560.25285 eV
One Electron Energy:         -165.15371959 Eh           -4494.06118 eV
Two Electron Energy:           71.06615300 Eh            1933.80834 eV

Virial components:
Potential Energy   :         -128.71134137 Eh           -3502.41366 eV
Kinetic Energy     :           34.62377478 Eh             942.16081 eV
Virial Ratio       :            3.71742660


---------------
SCF CONVERGENCE
---------------

  Last Energy change         ...    9.4647e-09  Tolerance :   1.0000e-08
  Last MAX-Density change    ...    2.7631e-06  Tolerance :   1.0000e-07
  Last RMS-Density change    ...    9.4886e-08  Tolerance :   5.0000e-09
  Last DIIS Error            ...    1.3529e-04  Tolerance :   5.0000e-07

             **** THE GBW FILE WAS UPDATED (44_Ru.gbw) ****
             **** DENSITY FILE WAS UPDATED (44_Ru.scfp) ****
             **** ENERGY FILE WAS UPDATED (44_Ru.en.tmp) ****
----------------------
UHF SPIN CONTAMINATION
----------------------

Expectation value of <S**2>     :     6.002750
Ideal value S*(S+1) for S=2.0   :     6.000000
Deviation                       :     0.002750

             **** THE GBW FILE WAS UPDATED (44_Ru.gbw) ****
             **** DENSITY FILE WAS UPDATED (44_Ru.scfp) ****
----------------
ORBITAL ENERGIES
----------------
                 SPIN UP ORBITALS
  NO   OCC          E(Eh)            E(eV) 
   0   1.0000      -3.578424       -97.3739 
   1   1.0000      -2.313202       -62.9454 
   2   1.0000      -2.313201       -62.9454 
   3   1.0000      -2.256146       -61.3929 
   4   1.0000      -0.450795       -12.2668 
   5   1.0000      -0.450795       -12.2667 
   6   1.0000      -0.423280       -11.5180 
   7   1.0000      -0.393029       -10.6949 
   8   1.0000      -0.393029       -10.6949 
   9   1.0000      -0.238274        -6.4838 
  10   0.0000       0.041651         1.1334 
  11   0.0000       0.041651         1.1334 
  12   0.0000       0.049733         1.3533 
  13   0.0000       0.194509         5.2929 
  14   0.0000       0.423790        11.5319 
  15   0.0000       0.423791        11.5319 
  16   0.0000       0.446053        12.1377 
  17   0.0000       0.529168        14.3994 
  18   0.0000       0.529168        14.3994 
  19   0.0000       0.543058        14.7774 
  20   0.0000       0.553148        15.0519 
  21   0.0000       0.553148        15.0519 
  22   0.0000       1.917113        52.1673 
  23   0.0000       2.122362        57.7524 
  24   0.0000       2.122362        57.7524 
  25   0.0000       2.167016        58.9675 
  26   0.0000       2.175182        59.1897 
  27   0.0000       2.175189        59.1899 
  28   0.0000       2.178980        59.2931 
  29   0.0000       2.178987        59.2932 
  30   0.0000      45.801892      1246.3328 

                 SPIN DOWN ORBITALS
  NO   OCC          E(Eh)            E(eV) 
   0   1.0000      -3.392737       -92.3211 
   1   1.0000      -2.089083       -56.8468 
   2   1.0000      -2.049701       -55.7752 
   3   1.0000      -2.049700       -55.7752 
   4   1.0000      -0.315009        -8.5718 
   5   1.0000      -0.315009        -8.5718 
   6   0.0000       0.024415         0.6644 
   7   0.0000       0.087290         2.3753 
   8   0.0000       0.087290         2.3753 
   9   0.0000       0.089957         2.4479 
  10   0.0000       0.173833         4.7302 
  11   0.0000       0.173834         4.7303 
  12   0.0000       0.209784         5.7085 
  13   0.0000       0.264471         7.1966 
  14   0.0000       0.507528        13.8106 
  15   0.0000       0.507529        13.8106 
  16   0.0000       0.512265        13.9394 
  17   0.0000       0.590852        16.0779 
  18   0.0000       0.590852        16.0779 
  19   0.0000       0.652865        17.7654 
  20   0.0000       0.652866        17.7654 
  21   0.0000       0.677868        18.4457 
  22   0.0000       1.994815        54.2817 
  23   0.0000       2.274313        61.8872 
  24   0.0000       2.274315        61.8872 
  25   0.0000       2.311172        62.8902 
  26   0.0000       2.311173        62.8902 
  27   0.0000       2.338180        63.6251 
  28   0.0000       2.349751        63.9400 
  29   0.0000       2.349765        63.9403 
  30   0.0000      45.812948      1246.6337 

                    ********************************
                    * MULLIKEN POPULATION ANALYSIS *
                    ********************************

--------------------------------------------
MULLIKEN ATOMIC CHARGES AND SPIN POPULATIONS
--------------------------------------------
   0 Ru:   -0.000000    4.000000
Sum of atomic charges         :   -0.0000000
Sum of atomic spin populations:    4.0000000

-----------------------------------------------------
MULLIKEN REDUCED ORBITAL CHARGES AND SPIN POPULATIONS
-----------------------------------------------------
CHARGE
  0 Rus       :     3.000028  s :     3.000028
      pz      :     1.999644  p :     5.998650
      px      :     1.999362
      py      :     1.999644
      dz2     :     0.999994  d :     6.999972
      dxz     :     1.999985
      dyz     :     1.000061
      dx2y2   :     0.999990
      dxy     :     1.999943
      f0      :     0.000134  f :     0.001350
      f+1     :     0.000239
      f-1     :     0.000022
      f+2     :     0.000223
      f-2     :     0.000000
      f+3     :     0.000399
      f-3     :     0.000334

SPIN
  0 Rus       :     1.000031  s :     1.000031
      pz      :     0.000142  p :     0.000916
      px      :     0.000632
      py      :     0.000142
      dz2     :     0.999991  d :     2.999969
      dxz     :     0.000015
      dyz     :     0.999939
      dx2y2   :     0.999966
      dxy     :     0.000057
      f0      :    -0.000053  f :    -0.000916
      f+1     :    -0.000237
      f-1     :    -0.000009
      f+2     :    -0.000089
      f-2     :    -0.000000
      f+3     :    -0.000395
      f-3     :    -0.000133


                     *******************************
                     * LOEWDIN POPULATION ANALYSIS *
                     *******************************

-------------------------------------------
LOEWDIN ATOMIC CHARGES AND SPIN POPULATIONS
-------------------------------------------
   0 Ru:   -0.000000    4.000000

----------------------------------------------------
LOEWDIN REDUCED ORBITAL CHARGES AND SPIN POPULATIONS
----------------------------------------------------
CHARGE
  0 Rus       :     3.000028  s :     3.000028
      pz      :     1.999644  p :     5.998650
      px      :     1.999362
      py      :     1.999644
      dz2     :     0.999994  d :     6.999972
      dxz     :     1.999985
      dyz     :     1.000061
      dx2y2   :     0.999990
      dxy     :     1.999943
      f0      :     0.000134  f :     0.001350
      f+1     :     0.000239
      f-1     :     0.000022
      f+2     :     0.000223
      f-2     :     0.000000
      f+3     :     0.000399
      f-3     :     0.000334

SPIN
  0 Rus       :     1.000031  s :     1.000031
      pz      :     0.000142  p :     0.000916
      px      :     0.000632
      py      :     0.000142
      dz2     :     0.999991  d :     2.999969
      dxz     :     0.000015
      dyz     :     0.999939
      dx2y2   :     0.999966
      dxy     :     0.000057
      f0      :    -0.000053  f :    -0.000916
      f+1     :    -0.000237
      f-1     :    -0.000009
      f+2     :    -0.000089
      f-2     :    -0.000000
      f+3     :    -0.000395
      f-3     :    -0.000133


                      *****************************
                      * MAYER POPULATION ANALYSIS *
                      *****************************

  NA   - Mulliken gross atomic population
  ZA   - Total nuclear charge
  QA   - Mulliken gross atomic charge
  VA   - Mayer's total valence
  BVA  - Mayer's bonded valence
  FA   - Mayer's free valence

  ATOM       NA         ZA         QA         VA         BVA        FA
  0 Ru    16.0000    16.0000    -0.0000     4.0055     0.0000     4.0055

  Mayer bond orders larger than 0.100000


-------
TIMINGS
-------

Total SCF time: 0 days 0 hours 0 min 11 sec 

Total time                  ....      11.299 sec
Sum of individual times     ....      10.242 sec  ( 90.6%)

Fock matrix formation       ....       7.554 sec  ( 66.9%)
Diagonalization             ....       0.212 sec  (  1.9%)
Density matrix formation    ....       0.005 sec  (  0.0%)
Population analysis         ....       0.349 sec  (  3.1%)
Initial guess               ....       1.356 sec  ( 12.0%)
Orbital Transformation      ....       0.000 sec  (  0.0%)
Orbital Orthonormalization  ....       0.000 sec  (  0.0%)
DIIS solution               ....       0.716 sec  (  6.3%)


           ************************************************************
           *        Program running with 24 parallel MPI-processes    *
           *              working on a common directory               *
           ************************************************************


------------------------------------------------------------------------------- 
                              ORCA-MATRIX DRIVEN CI                            
------------------------------------------------------------------------------- 

--------------------------------
AUTOMATIC CHOICE OF INCORE LEVEL
--------------------------------

Memory available                           ...   2500.00 MB
Memory needed for S+T                      ...      0.56 MB
Memory needed for J+K                      ...      1.13 MB
Memory needed for DIIS                     ...      7.77 MB
Memory needed for 3-ext                    ...      0.71 MB
Memory needed for 4-ext                    ...      0.78 MB
Memory needed for triples                  ...      0.35 MB
 -> Final InCoreLevel    ... 5
 -> check shows that triples correction can be computed


Wavefunction type
-----------------
Correlation treatment                      ...      CCSD     
Single excitations                         ... ON
Orbital optimization                       ... OFF
Calculation of Z vector                    ... OFF
Calculation of Brueckner orbitals          ... OFF
Perturbative triple excitations            ... ON
Calculation of F12 correction              ... OFF
Frozen core treatment                      ... chemical core (0 el)
Reference Wavefunction                     ... UHF
  Alpha-MOs occ    :     0 ...    9 ( 10 MO's/ 10 electrons)
  Beta-MOs occ     :     0 ...    5 (  6 MO's/  6 electrons)
  Alpha-MOs virt   :    10 ...   30 ( 21 MO's              )
  Beta-MOs virt    :     6 ...   30 ( 25 MO's              )
Number of AO's                             ...     31
Number of electrons                        ...     16
Number of correlated electrons             ...     16

Algorithmic settings
--------------------
Integral transformation                    ... AO direct full transformation
K(C) Formation                             ... FULL-MO TRAFO
Maximum number of iterations               ...        50
Convergence tolerance (max. residuum)      ... 1.000e-05
Level shift for amplitude update           ... 2.000e-01
Maximum number of DIIS vectors             ...         7
DIIS turned on at iteration                ...         0
Damping before turning on DIIS             ...     0.500
Damping after turning on DIIS              ...     0.000
Pair specific amplitude update             ... OFF
Natural orbital iterations                 ... OFF
Perturbative natural orbital generation    ... OFF
Printlevel                                 ... 2

Memory handling:
----------------
Maximum memory for working arrays          ...   2500 MB
Data storage in matrix containers          ... UNCOMPRESSED
Data type for integral storage             ... DOUBLE
In-Core Storage of quantities:
   Amplitudes+Sigma Vector      ... YES
   J+K operators                ... YES
   DIIS vectors                 ... YES
   3-external integrals         ... YES
   4-external integrals         ... YES


Initializing the integral package          ... done
Warning: reference  - re-canonicalizations have been set to INT 1 VIRT 1

--------------------------
UNRESTRICTED FOCK OPERATOR
--------------------------

<ss|ss>:          120 b            0 skpd (  0.0%)    0.000 s ( 0.000 ms/b)
<ss|sp>:          225 b            0 skpd (  0.0%)    0.000 s ( 0.000 ms/b)
<ss|sd>:          150 b            0 skpd (  0.0%)    0.000 s ( 0.000 ms/b)
<ss|sf>:           75 b            0 skpd (  0.0%)    0.000 s ( 0.000 ms/b)
<ss|pp>:           90 b            0 skpd (  0.0%)    0.000 s ( 0.001 ms/b)
<ss|pd>:           90 b            0 skpd (  0.0%)    0.000 s ( 0.001 ms/b)
<ss|pf>:           45 b            0 skpd (  0.0%)    0.000 s ( 0.001 ms/b)
<ss|dd>:           45 b            0 skpd (  0.0%)    0.000 s ( 0.003 ms/b)
<ss|df>:           30 b            0 skpd (  0.0%)    0.000 s ( 0.002 ms/b)
<ss|ff>:           15 b            0 skpd (  0.0%)    0.000 s ( 0.004 ms/b)
<sp|sp>:          120 b            0 skpd (  0.0%)    0.000 s ( 0.000 ms/b)
<sp|sd>:          150 b            0 skpd (  0.0%)    0.000 s ( 0.000 ms/b)
<sp|sf>:           75 b            0 skpd (  0.0%)    0.000 s ( 0.001 ms/b)
<sp|pp>:           90 b            0 skpd (  0.0%)    0.000 s ( 0.001 ms/b)
<sp|pd>:           90 b            0 skpd (  0.0%)    0.000 s ( 0.002 ms/b)
<sp|pf>:           45 b            0 skpd (  0.0%)    0.000 s ( 0.003 ms/b)
<sp|dd>:           45 b            0 skpd (  0.0%)    0.000 s ( 0.008 ms/b)
<sp|df>:           30 b            0 skpd (  0.0%)    0.000 s ( 0.007 ms/b)
<sp|ff>:           15 b            0 skpd (  0.0%)    0.000 s ( 0.011 ms/b)
<sd|sd>:           55 b            0 skpd (  0.0%)    0.000 s ( 0.001 ms/b)
<sd|sf>:           50 b            0 skpd (  0.0%)    0.000 s ( 0.003 ms/b)
<sd|pp>:           60 b            0 skpd (  0.0%)    0.000 s ( 0.003 ms/b)
<sd|pd>:           60 b            0 skpd (  0.0%)    0.000 s ( 0.006 ms/b)
<sd|pf>:           30 b            0 skpd (  0.0%)    0.000 s ( 0.006 ms/b)
<sd|dd>:           30 b            0 skpd (  0.0%)    0.001 s ( 0.022 ms/b)
<sd|df>:           20 b            0 skpd (  0.0%)    0.000 s ( 0.019 ms/b)
<sd|ff>:           10 b            0 skpd (  0.0%)    0.000 s ( 0.026 ms/b)
<sf|sf>:           15 b            0 skpd (  0.0%)    0.000 s ( 0.002 ms/b)
<sf|pp>:           30 b            0 skpd (  0.0%)    0.000 s ( 0.004 ms/b)
<sf|pd>:           30 b            0 skpd (  0.0%)    0.000 s ( 0.006 ms/b)
<sf|pf>:           15 b            0 skpd (  0.0%)    0.000 s ( 0.008 ms/b)
<sf|dd>:           15 b            0 skpd (  0.0%)    0.000 s ( 0.021 ms/b)
<sf|df>:           10 b            0 skpd (  0.0%)    0.000 s ( 0.023 ms/b)
<sf|ff>:            5 b            0 skpd (  0.0%)    0.000 s ( 0.035 ms/b)
<pp|pp>:           21 b            0 skpd (  0.0%)    0.000 s ( 0.008 ms/b)
<pp|pd>:           36 b            0 skpd (  0.0%)    0.000 s ( 0.009 ms/b)
<pp|pf>:           18 b            0 skpd (  0.0%)    0.000 s ( 0.009 ms/b)
<pp|dd>:           18 b            0 skpd (  0.0%)    0.001 s ( 0.032 ms/b)
<pp|df>:           12 b            0 skpd (  0.0%)    0.000 s ( 0.027 ms/b)
<pp|ff>:            6 b            0 skpd (  0.0%)    0.000 s ( 0.035 ms/b)
<pd|pd>:           21 b            0 skpd (  0.0%)    0.001 s ( 0.035 ms/b)
<pd|pf>:           18 b            0 skpd (  0.0%)    0.000 s ( 0.021 ms/b)
<pd|dd>:           18 b            0 skpd (  0.0%)    0.001 s ( 0.075 ms/b)
<pd|df>:           12 b            0 skpd (  0.0%)    0.001 s ( 0.068 ms/b)
<pd|ff>:            6 b            0 skpd (  0.0%)    0.001 s ( 0.084 ms/b)
<pf|pf>:            6 b            0 skpd (  0.0%)    0.000 s ( 0.036 ms/b)
<pf|dd>:            9 b            0 skpd (  0.0%)    0.001 s ( 0.062 ms/b)
<pf|df>:            6 b            0 skpd (  0.0%)    0.000 s ( 0.070 ms/b)
<pf|ff>:            3 b            0 skpd (  0.0%)    0.000 s ( 0.099 ms/b)
<dd|dd>:            6 b            0 skpd (  0.0%)    0.002 s ( 0.303 ms/b)
<dd|df>:            6 b            0 skpd (  0.0%)    0.001 s ( 0.171 ms/b)
<dd|ff>:            3 b            0 skpd (  0.0%)    0.001 s ( 0.195 ms/b)
<df|df>:            3 b            0 skpd (  0.0%)    0.001 s ( 0.193 ms/b)
<df|ff>:            2 b            0 skpd (  0.0%)    0.000 s ( 0.220 ms/b)
<ff|ff>:            1 b            0 skpd (  0.0%)    0.000 s ( 0.305 ms/b)
Recanonicalizing the internal orbitals
Recanonicalizing the virtual orbitals
Time needed for Fock operator              ...            0.157 sec
Reference energy                           ...    -94.087566620
Warning: for UHF the TrafoType has to be JK
Warning: for UHF the K(C)-option cannot be MO but must be AOX

-------------------------------
PARTIAL EXCHANGE TRANSFORMATION
-------------------------------

Transformation type                        ... two-operators
Generation of integrals (i,mue|j,nue)      ... ON
Generation of integrals (mue,kappa|nue,tau)... ON
Generation of integrals (i,mue|a,nue)      ... ON
Dimension of the basis                     ...   31
Number of internal alpha-MOs               ...   10 (   0-   9)
Number of internal beta-MOs                ...    6 (   0-   5)
Number of external alpha-MOs               ...   21 (  10-  30)
Number of external beta-MOs                ...   25 (   6-  30)
Pair cutoff                                ... 0.000e+00 Eh
Number of AO pairs in the trafo            ...  496
Total Number of distinct AO pairs          ...  496
Memory devoted for trafo                   ... 2500.0 MB 
Max. Number of MO pairs treated together   ... 340978      
Number Format for Storage                  ... Double (8 Byte)
Integral package used                      ... LIBINT

Starting integral evaluation:
    ... done with AO integral generation
Closing buffer AOK[aa] ( 0.00 GB; CompressionRatio= 0.00)
Closing buffer AOK[bb] ( 0.00 GB; CompressionRatio= 0.00)
Closing buffer AOK[ab] ( 0.00 GB; CompressionRatio= 0.00)
Closing buffer AOK[ba] ( 0.00 GB; CompressionRatio= 0.00)
Collecting buffer AOK 
Closing buffer IAAO1[aa] ( 0.00 GB; CompressionRatio= 0.00)
Closing buffer IAAO1[bb] ( 0.00 GB; CompressionRatio= 0.00)
Closing buffer IAAO1[ab] ( 0.00 GB; CompressionRatio= 0.00)
Closing buffer IAAO1[ba] ( 0.00 GB; CompressionRatio= 0.00)
Closing buffer IAAO2[aa] ( 0.00 GB; CompressionRatio= 0.00)
Closing buffer IAAO2[bb] ( 0.00 GB; CompressionRatio= 0.00)
Closing buffer IAAO2[ab] ( 0.00 GB; CompressionRatio= 0.00)
Closing buffer IAAO2[ba] ( 0.00 GB; CompressionRatio= 0.00)
Collecting buffer IAAO 
Closing buffer PRQS    ( 0.00 GB; CompressionRatio= 0.00)
Collecting buffer PRQS 
Number of alpha/alpha MO pairs in trafo    ...   55
Number of beta /beta  MO pairs in trafo    ...   21
Number of alpha/ beta MO pairs in trafo    ...   60
------------------------
SORTING OF (i,mue|j,nue)
------------------------

SORTING OF ALPHA/ALPHA PAIRS
IBATCH = 1 of  1
Closing buffer KAO[aa] ( 0.00 GB; CompressionRatio= 1.00)
Collecting buffer KAO 
SORTING OF BETA /BETA  PAIRS
IBATCH = 1 of  1
Closing buffer KAO[bb] ( 0.00 GB; CompressionRatio= 1.00)
Collecting buffer KAO 
SORTING OF ALPHA/BETA  PAIRS
IBATCH = 1 of  1
Closing buffer KAO[ab] ( 0.00 GB; CompressionRatio= 0.998441558442)
Collecting buffer KAO[ab] 
------------------------
SORTING OF (i,mue|a,nue)
------------------------

Number of alpha/alpha (i,a) pairs in trafo  ...  210
Number of beta /beta  (i,a) pairs in trafo  ...  150
Number of alpha/ beta (i,a) pairs in trafo  ...  250
Number of beta /alpha (i,a) pairs in trafo  ...  126
Setting up the alpha/alpha list             ... done
Setting up the beta /beta  list             ... done
Setting up the alpha/beta  list             ... done
Setting up the beta /alpha list             ... done
    ... Now sorting (i,mue|a,nue)integrals
    ... Integrals (i,b|a,c) will be made on the fly
SORTING OF ALPHA/ALPHA PAIRS
IBATCH = 1 of  1
Closing buffer IPAQ[aa]  0.00 GB; CompressionRatio= 1.00)
SORTING OF BETA /BETA  PAIRS
IBATCH = 1 of  1
Closing buffer IPAQ[bb]( 0.00 GB; CompressionRatio= 1.00)
SORTING OF ALPHA/BETA  PAIRS (NMatSort_ab=11)
IBATCH = 1 of  1
Closing buffer IPAQ[ab]( 0.00 GB; CompressionRatio= 1.00)
SORTING OF BETA/ALPHA  PAIRS
IBATCH = 1 of  1
Closing buffer IPAQ[ba]( 0.00 GB; CompressionRatio= 1.00)
N(AO-Batches) Done                         ...         0 
N(AO-Batches) Skipped                      ...         0 
N(IJ)-pairs Skipped                        ...         0 
TOTAL TIME for half transformation         ...     1.420 sec
AO-integral generation                     ...     0.000 sec
Half transformation                        ...     0.000 sec
K-integral sorting                         ...     0.594 sec
<ss|**>: 
------------------------------
PARTIAL COULOMB TRANSFORMATION
------------------------------

Transformation type                        ... two-operators
Dimension of the basis                     ...   31
Number of internal alpha-MOs               ...   10 (0-9)
Number of internal beta-MOs                ...    6 (0-5)
Pair cutoff                                ... 0.000e+00 Eh
Number of AO pairs included in the trafo   ...  496
Total Number of distinct AO pairs          ...  496
Memory devoted for trafo                   ... 2500.0 MB 
Max. Number of MO pairs treated together   ... 660645      
Max. Number of MOs treated per batch       ... 21311      
Number Format for Storage                  ... Double (8 Byte)
AO-integral source                         ... DIRECT
Integral package used                      ... LIBINT

Starting integral evaluation:
<sp|**>:          990 b        0 skpd     0.001 s (  0.001 ms/b)
<sd|**>:          990 b        0 skpd     0.007 s (  0.007 ms/b)
         660 b        0 skpd     0.007 s (  0.011 ms/b)
<sf|**>: <pp|**>:          330 b        0 skpd     0.006 s (  0.018 ms/b)
         396 b        0 skpd     0.007 s (  0.019 ms/b)
<pd|**>:          396 b        0 skpd     0.015 s (  0.038 ms/b)
<pf|**>: <dd|**>:          198 b        0 skpd     0.016 s (  0.081 ms/b)
         198 b        0 skpd     0.016 s (  0.080 ms/b)
<df|**>:          132 b        0 skpd     0.023 s (  0.177 ms/b)
<ff|**>:           66 b        0 skpd     0.014 s (  0.213 ms/b)
Closing buffer AOJ[aa] ( 0.00 GB; CompressionRatio= 0.97)
Closing buffer AOJ[bb] ( 0.00 GB; CompressionRatio= 0.00)
Collecting buffer AOJ 
    ... done with AO integral generation
Number of Alpha-MO pairs included          ...   55
Number of Beta-MO pairs included           ...   21
    ... Now sorting integrals
SORTING ALPHA/ALPHA PAIRS
IBATCH = 1 of  1
Closing buffer JAO[aa] ( 0.00 GB; CompressionRatio= 1.00)
SORTING BETA/BETA PAIRS
IBATCH = 1 of  1
Closing buffer JAO[bb] ( 0.00 GB; CompressionRatio= 1.00)
Collecting buffer JAO 
TOTAL TIME for half transformation         ...     0.222 sec
AO-integral generation                     ...     0.087 sec
Half transformation                        ...     0.026 sec
J-integral sorting                         ...     0.078 sec

-------------------------- SECOND HALF TRANSFORMATION -------------------------
Formation of (ij|kl),(ij|ka), (ij|ab)      ... ok (     0.097 sec)
Formation of (ik|jl),(ik|ja), (ia|jb)      ... ok (     0.160 sec)


-----------------------
SPIN UNRESTRICTED GUESS
-----------------------

Entering MDCI_UHF_Guess, Tailored=0
Spin-components of the MP2 energy:
EMP2(aa)=     -0.068584618
EMP2(bb)=     -0.027537598
EMP2(ab)=     -0.167115883

Initial guess performed in     0.004 sec
E(0)                                       ...    -94.087566620
E(MP2)                                     ...     -0.263238098
Initial E(tot)                             ...    -94.350804718
<T|T>                                      ...      0.068271335
Number of pairs included                   ... 120

------------------------------------------------
                  UHF COUPLED CLUSTER ITERATIONS
------------------------------------------------

Number of amplitudes to be optimized       ...        46260

Iter       E(tot)           E(Corr)          Delta-E          Residual     Time      <S|S>**1/2
  0    -94.350804821     -0.263238201     -0.000000103      0.022665821    0.07      0.000176173
                           *** Turning on DIIS ***
  1    -94.346272713     -0.258706093      0.004532108      0.011005024    0.05      0.031030593
  2    -94.350399761     -0.262833141     -0.004127048      0.009285226    0.05      0.040384579
  3    -94.351868017     -0.264301397     -0.001468256      0.007451690    0.05      0.048150968
  4    -94.352667963     -0.265101343     -0.000799946      0.005202644    0.05      0.053002548
  5    -94.352930280     -0.265363660     -0.000262317      0.003083966    0.05      0.054276377
  6    -94.353114192     -0.265547572     -0.000183911      0.000831530    0.05      0.053801383
  7    -94.353148038     -0.265581418     -0.000033846      0.000108435    0.06      0.053088532
  8    -94.353150844     -0.265584225     -0.000002807      0.000108833    0.05      0.052932931
  9    -94.353152647     -0.265586027     -0.000001803      0.000109379    0.05      0.052935832
 10    -94.353152679     -0.265586059     -0.000000032      0.000110017    0.05      0.052954286
 11    -94.353152702     -0.265586082     -0.000000023      0.000110247    0.05      0.052959789
 12    -94.353152319     -0.265585699      0.000000383      0.000105127    0.05      0.052874881
 13    -94.353149774     -0.265583154      0.000002545      0.000088013    0.05      0.052909773
 14    -94.353149312     -0.265582692      0.000000462      0.000072727    0.05      0.053233685
 15    -94.353150040     -0.265583421     -0.000000728      0.000063147    0.05      0.053467647
 16    -94.353152497     -0.265585878     -0.000002457      0.000049577    0.05      0.053716085
 17    -94.353155121     -0.265588502     -0.000002624      0.000022756    0.05      0.054177636
 18    -94.353154909     -0.265588289      0.000000212      0.000017621    0.05      0.054431367
 19    -94.353153933     -0.265587313      0.000000976      0.000014343    0.05      0.054502203
 20    -94.353153128     -0.265586508      0.000000805      0.000009379    0.07      0.054540383
               --- The Coupled-Cluster iterations have converged ---

----------------------
COUPLED CLUSTER ENERGY
----------------------

E(0)                                       ...    -94.087566620
E(CORR)                                    ...     -0.265586508
E(TOT)                                     ...    -94.353153128
Singles norm <S|S>**1/2                    ...      0.054540383 ( 0.038537313, 0.016003070)  
T1 diagnostic                              ...      0.013635096                              

------------------
LARGEST AMPLITUDES
------------------
   5b-> 11b   4b-> 10b       0.098644
   5b-> 10b   4b-> 11b       0.098644
   9a-> 13a  -1a-> -1a       0.047675
   7a-> 20a   5b-> 18b       0.034292
   8a-> 21a   4b-> 17b       0.034292
   5b-> 20b   4b-> 10b       0.027526
   5b-> 10b   4b-> 20b       0.027526
   5b-> 11b   4b-> 19b       0.027526
   5b-> 19b   4b-> 11b       0.027526
   6a-> 19a   5b-> 18b       0.027472
   6a-> 19a   4b-> 17b       0.027472
   8a-> 21a   5b-> 18b       0.026021
   7a-> 20a   4b-> 17b       0.026021
   5a-> 23a   4a-> 24a       0.026006
   5a-> 24a   4a-> 23a       0.026006
   9a-> 11a   4b->  9b       0.025691

----------------------
UHF TRIPLES CORRECTION (Algorithm 1)
----------------------

Multiplier for the singles contribution    ...      1.000000000

SPIN-CASE Alpha-Alpha-Alpha:
10% done
20% done
30% done
40% done
50% done
60% done
70% done
80% done
90% done


SPIN-CASE Beta-Beta-Beta:
10% done
20% done
30% done
40% done
50% done
60% done
70% done
80% done
90% done


SPIN-CASE Alpha-Alpha-Beta:
10% done
20% done
30% done
40% done
50% done
60% done
70% done
80% done
90% done


SPIN-CASE Beta-Beta-Alpha:
10% done
20% done
30% done
40% done
50% done
60% done
70% done
80% done
90% done


Triples Correction (T)                     ...     -0.007901202
    alpha-alpha-alpha ... -0.000676235 (  8.6%)
    alpha-alpha-beta  ... -0.004017359 ( 50.8%)
    alpha-beta -beta  ... -0.002945280 ( 37.3%)
    beta -beta -beta  ... -0.000262327 (  3.3%)
Scaling of triples based on CCSD energies (Peterson et al. Molecular Physics 113, 1551 (2015))
E(T*) = f*E(T) where f = E(F12-CCSD)/E(CCSD) 
f = CCSD (with F12)/ CCSD (without F12)    ...      1.000000000
Scaled triples correction (T)              ...     -0.007901202

Final correlation energy                   ...     -0.273487710
E(CCSD)                                    ...    -94.353153128
E(CCSD(T))                                 ...    -94.361054330



        !!!!!!!!!!!!!!!!!!!!!!!!!!!!!!!!!!!!!!!!!!!!!!!!!!!!!!!!!!!!!!!!!!!!!!!!!! 
        !  Warning: Densities are linearized densities                           !
        !!!!!!!!!!!!!!!!!!!!!!!!!!!!!!!!!!!!!!!!!!!!!!!!!!!!!!!!!!!!!!!!!!!!!!!!!! 

NORM  =      1.092284263 sqrt=     1.045124042
W(HF) =      0.915512595
------------------------------------------------------------------------------
                           ORCA POPULATION ANALYSIS
------------------------------------------------------------------------------
Input electron density              ... 44_Ru.mdcip
Input spin density                  ... 44_Ru.mdcir
BaseName (.gbw .S,...)              ... 44_Ru

                    ********************************
                    * MULLIKEN POPULATION ANALYSIS *
                    ********************************

------------------------------------------
MULLIKEN ATOMIC CHARGES AND SPIN DENSITIES
------------------------------------------
   0 Ru:   -0.000000    4.000000
Sum of atomic charges       :   -0.0000000
Sum of atomic spin densities:    4.0000000

---------------------------------------------------
MULLIKEN REDUCED ORBITAL CHARGES AND SPIN DENSITIES
---------------------------------------------------
CHARGE
  0 Rus       :     2.987225  s :     2.987225
      pz      :     1.999150  p :     6.004048
      px      :     2.005748
      py      :     1.999150
      dz2     :     1.009030  d :     6.961449
      dxz     :     1.968817
      dyz     :     1.011973
      dx2y2   :     1.002676
      dxy     :     1.968953
      f0      :     0.005995  f :     0.047278
      f+1     :     0.007407
      f-1     :     0.005392
      f+2     :     0.006478
      f-2     :     0.007737
      f+3     :     0.007187
      f-3     :     0.007082

SPIN
  0 Rus       :     0.986692  s :     0.986692
      pz      :     0.008919  p :     0.023071
      px      :     0.005233
      py      :     0.008919
      dz2     :     0.978320  d :     2.972022
      dxz     :     0.016898
      dyz     :     0.975386
      dx2y2   :     0.984657
      dxy     :     0.016761
      f0      :     0.003533  f :     0.018214
      f+1     :     0.001759
      f-1     :     0.004175
      f+2     :     0.003020
      f-2     :     0.001251
      f+3     :     0.002098
      f-3     :     0.002378


                     *******************************
                     * LOEWDIN POPULATION ANALYSIS *
                     *******************************

-----------------------------------------
LOEWDIN ATOMIC CHARGES AND SPIN DENSITIES
-----------------------------------------
   0 Ru:   -0.000000    4.000000

--------------------------------------------------
LOEWDIN REDUCED ORBITAL CHARGES AND SPIN DENSITIES
--------------------------------------------------
CHARGE
  0 Rus       :     2.987225  s :     2.987225
      pz      :     1.999150  p :     6.004048
      px      :     2.005748
      py      :     1.999150
      dz2     :     1.009030  d :     6.961449
      dxz     :     1.968817
      dyz     :     1.011973
      dx2y2   :     1.002676
      dxy     :     1.968953
      f0      :     0.005995  f :     0.047278
      f+1     :     0.007407
      f-1     :     0.005392
      f+2     :     0.006478
      f-2     :     0.007737
      f+3     :     0.007187
      f-3     :     0.007082

SPIN
  0 Rus       :     0.986692  s :     0.986692
      pz      :     0.008919  p :     0.023071
      px      :     0.005233
      py      :     0.008919
      dz2     :     0.978320  d :     2.972022
      dxz     :     0.016898
      dyz     :     0.975386
      dx2y2   :     0.984657
      dxy     :     0.016761
      f0      :     0.003533  f :     0.018214
      f+1     :     0.001759
      f-1     :     0.004175
      f+2     :     0.003020
      f-2     :     0.001251
      f+3     :     0.002098
      f-3     :     0.002378


                      *****************************
                      * MAYER POPULATION ANALYSIS *
                      *****************************

  NA   - Mulliken gross atomic population
  ZA   - Total nuclear charge
  QA   - Mulliken gross atomic charge
  VA   - Mayer's total valence
  BVA  - Mayer's bonded valence
  FA   - Mayer's free valence

  ATOM       NA         ZA         QA         VA         BVA        FA
  0 Ru    16.0000    16.0000    -0.0000     4.5112     0.0000     4.5112





------------------------------------------------------------------------------- 
                                     TIMINGS                                   
------------------------------------------------------------------------------- 


Total execution time                   ...        3.563 sec

Fock Matrix Formation                  ...        0.157 sec (  4.4%)
Initial Guess                          ...        0.004 sec (  0.1%)
DIIS Solver                            ...        0.130 sec (  3.7%)
State Vector Update                    ...        0.011 sec (  0.3%)
Sigma-vector construction              ...        0.960 sec ( 26.9%)
  <D|H|D>(0-ext Fock)                  ...        0.002 sec (  0.2% of sigma)
  <D|H|D>(0-ext)                       ...        0.004 sec (  0.4% of sigma)
  <D|H|D>(2-ext)                       ...        0.014 sec (  1.4% of sigma)
  <D|H|D>(4-ext)                       ...        0.242 sec ( 25.2% of sigma)
  <S|H|0>                              ...        0.023 sec (  2.4% of sigma)
  <S|H|S>                              ...        0.001 sec (  0.1% of sigma)
  <D|H|S>(1-ext)                       ...        0.013 sec (  1.3% of sigma)
  Fock-dressing                        ...        0.286 sec ( 29.8% of sigma)
  (ik|jl)-dressing                     ...        0.007 sec (  0.7% of sigma)
  (ij|ab),(ia|jb)-dressing             ...        0.276 sec ( 28.7% of sigma)
  Pair energies                        ...        0.003 sec (  0.3% of sigma)
Total Time for computing (T)           ...        0.014 sec (  0.4% of ALL)
  I/O of integral and amplitudes       ...        0.004 sec ( 25.0% of (T))
  External N**7 contributions          ...        0.002 sec ( 12.7% of (T))
  N**6 triples energy contributions    ...        0.006 sec ( 44.9% of (T))


-------------------------   --------------------
FINAL SINGLE POINT ENERGY       -94.361054329554
-------------------------   --------------------


                            ***************************************
                            *     ORCA property calculations      *
                            ***************************************

                                    ---------------------
                                    Active property flags
                                    ---------------------
   (+) Dipole Moment


------------------------------------------------------------------------------
                       ORCA ELECTRIC PROPERTIES CALCULATION
------------------------------------------------------------------------------

Dipole Moment Calculation                       ... on
Quadrupole Moment Calculation                   ... off
Polarizability Calculation                      ... off
GBWName                                         ... 44_Ru.gbw
Electron density file                           ... 44_Ru.scfp
The origin for moment calculation is the CENTER OF MASS  = ( 0.000000,  0.000000  0.000000)

-------------
DIPOLE MOMENT
-------------
                                X             Y             Z
Electronic contribution:      0.00000      -0.00000       0.00000
Nuclear contribution   :      0.00000       0.00000       0.00000
                        -----------------------------------------
Total Dipole Moment    :      0.00000      -0.00000       0.00000
                        -----------------------------------------
Magnitude (a.u.)       :      0.00000
Magnitude (Debye)      :      0.00000



--------------------
Rotational spectrum 
--------------------
 
Rotational constants in cm-1:     0.000000     0.000000     0.000000 
Rotational constants in MHz :     0.000000     0.000000     0.000000 

 Dipole components along the rotational axes: 
x,y,z [a.u.] :     0.000000    -0.000000     0.000000 
x,y,z [Debye]:     0.000000    -0.000000     0.000000 

 

                           *** MDCI DENSITY ***

------------------------------------------------------------------------------
                       ORCA ELECTRIC PROPERTIES CALCULATION
------------------------------------------------------------------------------

Dipole Moment Calculation                       ... on
Quadrupole Moment Calculation                   ... off
Polarizability Calculation                      ... off
GBWName                                         ... 44_Ru.gbw
Electron density file                           ... 44_Ru.mdcip
The origin for moment calculation is the CENTER OF MASS  = ( 0.000000,  0.000000  0.000000)

-------------
DIPOLE MOMENT
-------------
                                X             Y             Z
Electronic contribution:      0.00000      -0.00000      -0.00000
Nuclear contribution   :      0.00000       0.00000       0.00000
                        -----------------------------------------
Total Dipole Moment    :      0.00000      -0.00000      -0.00000
                        -----------------------------------------
Magnitude (a.u.)       :      0.00000
Magnitude (Debye)      :      0.00000



--------------------
Rotational spectrum 
--------------------
 
Rotational constants in cm-1:     0.000000     0.000000     0.000000 
Rotational constants in MHz :     0.000000     0.000000     0.000000 

 Dipole components along the rotational axes: 
x,y,z [a.u.] :     0.000000    -0.000000    -0.000000 
x,y,z [Debye]:     0.000000    -0.000000    -0.000000 

 

Timings for individual modules:

Sum of individual times         ...       16.737 sec (=   0.279 min)
GTO integral calculation        ...        0.950 sec (=   0.016 min)   5.7 %
SCF iterations                  ...       11.744 sec (=   0.196 min)  70.2 %
MDCI module                     ...        4.043 sec (=   0.067 min)  24.2 %
                             ****ORCA TERMINATED NORMALLY****
TOTAL RUN TIME: 0 days 0 hours 0 minutes 17 seconds 580 msec
