
                                 *****************
                                 * O   R   C   A *
                                 *****************

           --- An Ab Initio, DFT and Semiempirical electronic structure package ---

                  #######################################################
                  #                        -***-                        #
                  #          Department of theory and spectroscopy      #
                  #               Directorship: Frank Neese             #
                  #        Max Planck Institute fuer Kohlenforschung    #
                  #                Kaiser Wilhelm Platz 1               #
                  #                 D-45470 Muelheim/Ruhr               #
                  #                      Germany                        #
                  #                                                     #
                  #                  All rights reserved                #
                  #                        -***-                        #
                  #######################################################


                         Program Version 4.2.0 -  RELEASE  -


 With contributions from (in alphabetic order):
   Daniel Aravena         : Magnetic Suceptibility
   Michael Atanasov       : Ab Initio Ligand Field Theory (pilot matlab implementation)
   Alexander A. Auer      : GIAO ZORA, VPT2
   Ute Becker             : Parallelization
   Giovanni Bistoni       : ED, misc. LED, open-shell LED, HFLED
   Martin Brehm           : Molecular dynamics
   Dmytro Bykov           : SCF Hessian
   Vijay G. Chilkuri      : MRCI spin determinant printing, contributions to CSF-ICE
   Dipayan Datta          : RHF DLPNO-CCSD density
   Achintya Kumar Dutta   : EOM-CC, STEOM-CC
   Dmitry Ganyushin       : Spin-Orbit,Spin-Spin,Magnetic field MRCI
   Miquel Garcia          : C-PCM Hessian, Gaussian charge scheme
   Yang Guo               : DLPNO-NEVPT2, CIM, IAO-localization
   Andreas Hansen         : Spin unrestricted coupled pair/coupled cluster methods
   Benjamin Helmich-Paris : CASSCF linear response (MC-RPA)
   Lee Huntington         : MR-EOM, pCC
   Robert Izsak           : Overlap fitted RIJCOSX, COSX-SCS-MP3, EOM
   Christian Kollmar      : KDIIS, OOCD, Brueckner-CCSD(T), CCSD density
   Simone Kossmann        : Meta GGA functionals, TD-DFT gradient, OOMP2, MP2 Hessian
   Martin Krupicka        : AUTO-CI
   Lucas Lang             : DCDCAS
   Dagmar Lenk            : GEPOL surface, SMD
   Dimitrios Liakos       : Extrapolation schemes; Compound Job, initial MDCI parallelization
   Dimitrios Manganas     : Further ROCIS development; embedding schemes
   Dimitrios Pantazis     : SARC Basis sets
   Taras Petrenko         : DFT Hessian,TD-DFT gradient, ASA, ECA, R-Raman, ABS, FL, XAS/XES, NRVS
   Peter Pinski           : DLPNO-MP2, DLPNO-MP2 Gradient
   Christoph Reimann      : Effective Core Potentials
   Marius Retegan         : Local ZFS, SOC
   Christoph Riplinger    : Optimizer, TS searches, QM/MM, DLPNO-CCSD(T), (RO)-DLPNO pert. Triples
   Tobias Risthaus        : Range-separated hybrids, TD-DFT gradient, RPA, STAB
   Michael Roemelt        : Original ROCIS implementation
   Masaaki Saitow         : Open-shell DLPNO-CCSD energy and density
   Barbara Sandhoefer     : DKH picture change effects
   Avijit Sen             : IP-ROCIS
   Kantharuban Sivalingam : CASSCF convergence, NEVPT2, FIC-MRCI
   Bernardo de Souza      : ESD, SOC TD-DFT
   Georgi Stoychev        : AutoAux, RI-MP2 NMR
   Willem Van den Heuvel  : Paramagnetic NMR
   Boris Wezisla          : Elementary symmetry handling
   Frank Wennmohs         : Technical directorship


 We gratefully acknowledge several colleagues who have allowed us to
 interface, adapt or use parts of their codes:
   Stefan Grimme, W. Hujo, H. Kruse,             : VdW corrections, initial TS optimization,
                  C. Bannwarth                     DFT functionals, gCP, sTDA/sTD-DF
   Ed Valeev, F. Pavosevic, A. Kumar             : LibInt (2-el integral package), F12 methods
   Garnet Chan, S. Sharma, J. Yang, R. Olivares  : DMRG
   Ulf Ekstrom                                   : XCFun DFT Library
   Mihaly Kallay                                 : mrcc  (arbitrary order and MRCC methods)
   Andreas Klamt, Michael Diedenhofen            : otool_cosmo (COSMO solvation model)
   Jiri Pittner, Ondrej Demel                    : Mk-CCSD
   Frank Weinhold                                : gennbo (NPA and NBO analysis)
   Christopher J. Cramer and Donald G. Truhlar   : smd solvation model
   Lars Goerigk                                  : TD-DFT with DH, B97 family of functionals
   V. Asgeirsson, H. Jonsson                     : NEB implementation
   FAccTs GmbH                                   : IRC, NEB, NEB-TS, Multilevel, MM, QM/MM, CI optimization
   S Lehtola, MJT Oliveira, MAL Marques          : LibXC Library


 Your calculation uses the libint2 library for the computation of 2-el integrals
 For citations please refer to: http://libint.valeyev.net

 Your ORCA version has been built with support for libXC version: 4.2.3
 For citations please refer to: https://tddft.org/programs/libxc/

 This ORCA versions uses:
   CBLAS   interface :  Fast vector & matrix operations
   LAPACKE interface :  Fast linear algebra routines
   SCALAPACK package :  Parallel linear algebra routines


----- Orbital basis set information -----
Your calculation utilizes the basis: def2-SVP
   F. Weigend and R. Ahlrichs, Phys. Chem. Chem. Phys. 7, 3297 (2005).

cite the ECPs for Pd [Def2-ECP] as follows:
Ce-Yb(ecp-28): M. Dolg, H. Stoll, H.Preuss, J. Chem. Phys., 1989, 90, 1730-1734.
Y-Cd(ecp-28), Hf-Hg(ecp-46): D. Andrae,U. Haeussermann, M. Dolg, H. Stoll, H. Preuss, Theor. Chim. Acta, 1990, 77, 123-141.
In-Sb(ecp-28), Tl-Bi(ecp-46): B. Metz, H. Stoll, M. Dolg, J. Chem. Phys., 2000, 113, 2563-2569.
Te-Xe(ecp-28), Po-Rn(ecp-46): K. A. Peterson, D. Figgen, E. Goll, H. Stoll, M. Dolg, J. Chem. Phys., 2003, 119, 11113-11123.
Rb(ecp-28), Cs(ecp-46): T. Leininger, A. Nicklass, W. Kuechle, H. Stoll, M. Dolg, A. Bergner, Chem. Phys. Lett., 1996, 255, 274-280.
Sr(ecp-28), Ba(ecp-46): M. Kaupp, P. V. Schleyer, H. Stoll and H. Preuss, J. Chem. Phys., 1991, 94, 1360-1366.
La(ecp-46): M. Dolg, H. Stoll, A. Savin, H. Preuss, Theor. Chim. Acta, 1989, 75, 173-194.
Lu(ecp-28): X. Cao, M. Dolg, J. Chem. Phys., 2001, 115, 7348-7355.

ECP parameters for Pd [Def2-ECP] have been obtained from:
TURBOMOLE (7.0.2)

================================================================================
                                        WARNINGS
                       Please study these warnings very carefully!
================================================================================


WARNING: MDCI localization with Augmented Hessian Foster-Boys
  ===> : Switching off randomization!

WARNING: Post HF methods need fully converged wavefunctions
  ===> : Setting SCFConvForced true
         You can overwrite this default with %scf ConvForced false 


INFO   : the flag for use of LIBINT has been found!

================================================================================
                                       INPUT FILE
================================================================================
NAME = 46_Pd.in
|  1> #
|  2> # 46_Pd CCSD(T)/Def2-SVP
|  3> #
|  4> ! CCSD(T) Def2-SVP tightscf
|  5> 
|  6> *xyz 0 1
|  7>  Pd 0.0 0.0 0.0
|  8> *
|  9> 
| 10> %maxcore 5000 
| 11> 
| 12> %pal
| 13> nprocs 24
| 14> end
| 15> 
| 16> 
| 17>                          ****END OF INPUT****
================================================================================

                       ****************************
                       * Single Point Calculation *
                       ****************************

---------------------------------
CARTESIAN COORDINATES (ANGSTROEM)
---------------------------------
  Pd     0.000000    0.000000    0.000000

----------------------------
CARTESIAN COORDINATES (A.U.)
----------------------------
  NO LB      ZA    FRAG     MASS         X           Y           Z
   0 Pd   18.0000*   0   106.400    0.000000    0.000000    0.000000
* core charge reduced due to ECP

--------------------------------
INTERNAL COORDINATES (ANGSTROEM)
--------------------------------
 Pd     0   0   0     0.000000000000     0.00000000     0.00000000

---------------------------
INTERNAL COORDINATES (A.U.)
---------------------------
 Pd     0   0   0     0.000000000000     0.00000000     0.00000000

---------------------
BASIS SET INFORMATION
---------------------
There are 1 groups of distinct atoms

 Group   1 Type Pd  : 7s6p5d1f contracted to 5s3p2d1f pattern {31111/411/41/1}

Atom   0Pd   basis set group =>   1
-------------------------
ECP PARAMETER INFORMATION
-------------------------

 Group 1, Type Pd ECP Def2-ECP (replacing 28 core electrons, lmax=3)

Atom   0Pd   ECP group =>   1



           ************************************************************
           *        Program running with 24 parallel MPI-processes    *
           *              working on a common directory               *
           ************************************************************
------------------------------------------------------------------------------
                           ORCA GTO INTEGRAL CALCULATION
------------------------------------------------------------------------------

                         BASIS SET STATISTICS AND STARTUP INFO

 # of primitive gaussian shells          ...   19
 # of primitive gaussian functions       ...   57
 # of contracted shells                  ...   11
 # of contracted basis functions         ...   31
 Highest angular momentum                ...    3
 Maximum contraction depth               ...    4
 Integral package used                   ... LIBINT
 Integral threshhold            Thresh   ...  2.500e-11
 Primitive cut-off              TCut     ...  2.500e-12


------------------------------ INTEGRAL EVALUATION ----------------------------


 * One electron integrals 

   ECP integrals                         ... done
 Pre-screening matrix                    ... done
 Shell pair data                         ... done (   0.000 sec)



           ************************************************************
           *        Program running with 24 parallel MPI-processes    *
           *              working on a common directory               *
           ************************************************************
-------------------------------------------------------------------------------
                                 ORCA SCF
-------------------------------------------------------------------------------

------------
SCF SETTINGS
------------
Hamiltonian:
 Ab initio Hamiltonian  Method          .... Hartree-Fock(GTOs)


General Settings:
 Integral files         IntName         .... 46_Pd
 Hartree-Fock type      HFTyp           .... RHF
 Total Charge           Charge          ....    0
 Multiplicity           Mult            ....    1
 Number of Electrons    NEL             ....   18
 Basis Dimension        Dim             ....   31
 Nuclear Repulsion      ENuc            ....      0.0000000000 Eh

Convergence Acceleration:
 DIIS                   CNVDIIS         .... on
   Start iteration      DIISMaxIt       ....    12
   Startup error        DIISStart       ....  0.200000
   # of expansion vecs  DIISMaxEq       ....     5
   Bias factor          DIISBfac        ....   1.050
   Max. coefficient     DIISMaxC        ....  10.000
 Newton-Raphson         CNVNR           .... off
 SOSCF                  CNVSOSCF        .... off
 Level Shifting         CNVShift        .... on
   Level shift para.    LevelShift      ....    0.2500
   Turn off err/grad.   ShiftErr        ....    0.0010
 Zerner damping         CNVZerner       .... off
 Static damping         CNVDamp         .... on
   Fraction old density DampFac         ....    0.7000
   Max. Damping (<1)    DampMax         ....    0.9800
   Min. Damping (>=0)   DampMin         ....    0.0000
   Turn off err/grad.   DampErr         ....    0.1000
 Fernandez-Rico         CNVRico         .... off

SCF Procedure:
 Maximum # iterations   MaxIter         ....   125
 SCF integral mode      SCFMode         .... Direct
   Integral package                     .... LIBINT
 Reset frequency        DirectResetFreq ....    20
 Integral Threshold     Thresh          ....  2.500e-11 Eh
 Primitive CutOff       TCut            ....  2.500e-12 Eh

Convergence Tolerance:
 Convergence Check Mode ConvCheckMode   .... Total+1el-Energy
 Convergence forced     ConvForced      .... 1
 Energy Change          TolE            ....  1.000e-08 Eh
 1-El. energy change                    ....  1.000e-05 Eh
 DIIS Error             TolErr          ....  5.000e-07


Diagonalization of the overlap matrix:
Smallest eigenvalue                        ... 2.921e-02
Time for diagonalization                   ...    0.001 sec
Threshold for overlap eigenvalues          ... 1.000e-08
Number of eigenvalues below threshold      ... 0
Time for construction of square roots      ...    0.011 sec
Total time needed                          ...    0.012 sec

-------------------
DFT GRID GENERATION
-------------------

General Integration Accuracy     IntAcc      ...  4.340
Radial Grid Type                 RadialGrid  ... Gauss-Chebyshev
Angular Grid (max. acc.)         AngularGrid ... Lebedev-110
Angular grid pruning method      GridPruning ... 3 (G Style)
Weight generation scheme         WeightScheme... Becke
Basis function cutoff            BFCut       ...    1.0000e-11
Integration weight cutoff        WCut        ...    1.0000e-14
Grids for H and He will be reduced by one unit

# of grid points (after initial pruning)     ...   3244 (   0.0 sec)
# of grid points (after weights+screening)   ...   3244 (   0.0 sec)
Grid point division into batches done        ...    0.0 sec
Reduced shell lists constructed in    0.0 sec

Total number of grid points                  ...     3244
Total number of batches                      ...       51
Average number of points per batch           ...       63
Average number of grid points per atom       ...     3244
Average number of shells per batch           ...     3.75 (34.09%)
Average number of basis functions per batch  ...     9.75 (31.45%)
Average number of large shells per batch     ...     3.75 (100.00%)
Average number of large basis fcns per batch ...     9.75 (100.00%)
Maximum spatial batch extension              ...  21.54, 32.49, 32.49 au
Average spatial batch extension              ...   1.19,  1.70,  1.91 au

Time for grid setup =    0.056 sec

------------------------------
INITIAL GUESS: MODEL POTENTIAL
------------------------------
Loading Hartree-Fock densities                     ... done
  calling /sw/apps/orca/orca_4_2_0_linux_x86-64_openmpi314/orca 46_Pd_atom46.inp > 46_Pd_atom46.out in order to generate an atomic fitting density for atom 0 (Pd with ECP) on-the-fly... 
    atom 0 (Pd), assumed electronic state with S=3: 1s2 2s2 2p6 3s2 3p6 4s2 3d10 4p6 5s2 4d8           ... done
Calculating cut-offs                               ... done
Setting up the integral package                    ... done
Initializing the effective Hamiltonian             ... done
Starting the Coulomb interaction                   ... done (   0.0 sec)
Reading the grid                                   ... done
Mapping shells                                     ... done
Starting the XC term evaluation                    ... done (   0.0 sec)
Transforming the Hamiltonian                       ... done (   0.0 sec)
Diagonalizing the Hamiltonian                      ... done (   0.0 sec)
Back transforming the eigenvectors                 ... done (   0.0 sec)
Now organizing SCF variables                       ... done
                      ------------------
                      INITIAL GUESS DONE (   1.3 sec)
                      ------------------
--------------
SCF ITERATIONS
--------------
ITER       Energy         Delta-E        Max-DP      RMS-DP      [F,P]     Damp
               ***  Starting incremental Fock matrix formation  ***
  0   -126.8343600281   0.000000000000 0.14581010  0.00984816  0.5930269 0.7000
  1   -126.9022818126  -0.067921784484 0.09411858  0.00676628  0.3965877 0.7000
  2   -126.9361122646  -0.033830452019 0.05572820  0.00358705  0.2622498 0.7000
                               ***Turning on DIIS***
  3   -126.9559147754  -0.019802510757 0.03395969  0.00180976  0.1765110 0.7000
  4   -127.1624136100  -0.206498834652 0.01961825  0.00078799  0.1211861 0.7000
  5   -127.0919968908   0.070416719189 0.05021238  0.00197013  0.0862155 0.0000
  6   -127.0077369970   0.084259893798 0.00532545  0.00035198  0.0033520 0.0000
  7   -126.9935424279   0.014194569172 0.00095364  0.00008094  0.0009320 0.0000
  8   -127.0011888452  -0.007646417333 0.00009679  0.00000738  0.0000968 0.0000
  9   -127.0003662560   0.000822589220 0.00000144  0.00000012  0.0000032 0.0000
                            ***DIIS convergence achieved***

               *****************************************************
               *                     SUCCESS                       *
               *           SCF CONVERGED AFTER  10 CYCLES          *
               *****************************************************


----------------
TOTAL SCF ENERGY
----------------

Total Energy       :         -127.00035332 Eh           -3455.85531 eV

Components:
Nuclear Repulsion  :            0.00000000 Eh               0.00000 eV
Electronic Energy  :         -127.00035332 Eh           -3455.85531 eV
One Electron Energy:         -228.44556395 Eh           -6216.31983 eV
Two Electron Energy:          101.44521063 Eh            2760.46452 eV

Virial components:
Potential Energy   :         -176.20449236 Eh           -4794.76800 eV
Kinetic Energy     :           49.20413905 Eh            1338.91269 eV
Virial Ratio       :            3.58109085


---------------
SCF CONVERGENCE
---------------

  Last Energy change         ...    1.2939e-05  Tolerance :   1.0000e-08
  Last MAX-Density change    ...    1.8897e-07  Tolerance :   1.0000e-07
  Last RMS-Density change    ...    2.2532e-08  Tolerance :   5.0000e-09
  Last DIIS Error            ...    3.9436e-07  Tolerance :   5.0000e-07

             **** THE GBW FILE WAS UPDATED (46_Pd.gbw) ****
             **** DENSITY FILE WAS UPDATED (46_Pd.scfp) ****
             **** ENERGY FILE WAS UPDATED (46_Pd.en.tmp) ****
             **** THE GBW FILE WAS UPDATED (46_Pd.gbw) ****
             **** DENSITY FILE WAS UPDATED (46_Pd.scfp) ****
----------------
ORBITAL ENERGIES
----------------

  NO   OCC          E(Eh)            E(eV) 
   0   2.0000      -3.882858      -105.6579 
   1   2.0000      -2.429140       -66.1003 
   2   2.0000      -2.429140       -66.1003 
   3   2.0000      -2.429140       -66.1003 
   4   2.0000      -0.321458        -8.7473 
   5   2.0000      -0.321458        -8.7473 
   6   2.0000      -0.321458        -8.7473 
   7   2.0000      -0.321458        -8.7473 
   8   2.0000      -0.321458        -8.7473 
   9   0.0000       0.029168         0.7937 
  10   0.0000       0.081202         2.2096 
  11   0.0000       0.081202         2.2096 
  12   0.0000       0.081202         2.2096 
  13   0.0000       0.259832         7.0704 
  14   0.0000       0.583456        15.8766 
  15   0.0000       0.583456        15.8766 
  16   0.0000       0.583456        15.8766 
  17   0.0000       0.615998        16.7622 
  18   0.0000       0.615998        16.7622 
  19   0.0000       0.615998        16.7622 
  20   0.0000       0.615998        16.7622 
  21   0.0000       0.615998        16.7622 
  22   0.0000       2.407614        65.5145 
  23   0.0000       2.885844        78.5278 
  24   0.0000       2.885844        78.5278 
  25   0.0000       2.885844        78.5278 
  26   0.0000       2.885844        78.5278 
  27   0.0000       2.885844        78.5278 
  28   0.0000       2.885844        78.5278 
  29   0.0000       2.885844        78.5278 
  30   0.0000      51.815713      1409.9772 

                    ********************************
                    * MULLIKEN POPULATION ANALYSIS *
                    ********************************

-----------------------
MULLIKEN ATOMIC CHARGES
-----------------------
   0 Pd:   -0.000000
Sum of atomic charges:   -0.0000000

--------------------------------
MULLIKEN REDUCED ORBITAL CHARGES
--------------------------------
  0 Pds       :     2.000000  s :     2.000000
      pz      :     2.000000  p :     6.000000
      px      :     2.000000
      py      :     2.000000
      dz2     :     2.000000  d :    10.000000
      dxz     :     2.000000
      dyz     :     2.000000
      dx2y2   :     2.000000
      dxy     :     2.000000
      f0      :     0.000000  f :     0.000000
      f+1     :     0.000000
      f-1     :     0.000000
      f+2     :     0.000000
      f-2     :     0.000000
      f+3     :     0.000000
      f-3     :     0.000000


                     *******************************
                     * LOEWDIN POPULATION ANALYSIS *
                     *******************************

----------------------
LOEWDIN ATOMIC CHARGES
----------------------
   0 Pd:   -0.000000

-------------------------------
LOEWDIN REDUCED ORBITAL CHARGES
-------------------------------
  0 Pds       :     2.000000  s :     2.000000
      pz      :     2.000000  p :     6.000000
      px      :     2.000000
      py      :     2.000000
      dz2     :     2.000000  d :    10.000000
      dxz     :     2.000000
      dyz     :     2.000000
      dx2y2   :     2.000000
      dxy     :     2.000000
      f0      :     0.000000  f :     0.000000
      f+1     :     0.000000
      f-1     :     0.000000
      f+2     :     0.000000
      f-2     :     0.000000
      f+3     :     0.000000
      f-3     :     0.000000


                      *****************************
                      * MAYER POPULATION ANALYSIS *
                      *****************************

  NA   - Mulliken gross atomic population
  ZA   - Total nuclear charge
  QA   - Mulliken gross atomic charge
  VA   - Mayer's total valence
  BVA  - Mayer's bonded valence
  FA   - Mayer's free valence

  ATOM       NA         ZA         QA         VA         BVA        FA
  0 Pd    18.0000    18.0000    -0.0000    -0.0000     0.0000    -0.0000

  Mayer bond orders larger than 0.100000


--------------------------
ATOM BASIS FOR ELEMENT Pd
--------------------------
 NewGTO Pd
 S 7
    1          8.475640000000        -1.229212533398
    2          7.165717000000         1.642909930965
    3          3.182110000000         0.130719920168
    4          1.397364419600        -0.864420480847
    5          0.605329558700        -0.483619703855
    6          0.102295142100        -0.016518528727
    7          0.037338972900         0.004791957171
 S 7
    1          8.475640000000        -0.221159892512
    2          7.165717000000         0.295592319365
    3          3.182110000000         0.023519125219
    4          1.397364419600        -0.210017758806
    5          0.605329558700        -0.087347839948
    6          0.102295142100        -0.190296898845
    7          0.037338972900         1.173961040365
 S 7
    1          8.475640000000        -0.367813310539
    2          7.165717000000         0.491602651460
    3          3.182110000000         0.039114901031
    4          1.397364419600        -0.218060264956
    5          0.605329558700        -0.632011639672
    6          0.102295142100         2.246676150974
    7          0.037338972900        -1.565247419375
 S 7
    1          8.475640000000        -2.108206885509
    2          7.165717000000         2.817734065206
    3          3.182110000000         0.224196083495
    4          1.397364419600        -3.671112855243
    5          0.605329558700         3.440279082265
    6          0.102295142100        -1.339342077755
    7          0.037338972900         0.591756973110
 S 7
    1          8.475640000000        -3.743208999548
    2          7.165717000000         5.003004014316
    3          3.182110000000         0.398069469923
    4          1.397364419600        -1.620309751153
    5          0.605329558700         0.876489855726
    6          0.102295142100        -0.231428217154
    7          0.037338972900         0.102415810909
 P 6
    1          4.246097000000         0.818259999274
    2          3.392594000000        -0.865577509735
    3          1.197589126400        -0.631279427183
    4          0.526737505900        -0.270606108307
    5          0.206070941000        -0.037131936564
    6          0.037000000000         0.001260409555
 P 6
    1          4.246097000000         0.078960982468
    2          3.392594000000        -0.083527058187
    3          1.197589126400        -0.060917610328
    4          0.526737505900        -0.026113123204
    5          0.206070941000        -0.030360373259
    6          0.037000000000         1.016194286692
 P 6
    1          4.246097000000         0.550936386077
    2          3.392594000000        -0.582795377394
    3          1.197589126400        -0.425041926192
    4          0.526737505900        -0.182199730518
    5          0.206070941000         1.311644975108
    6          0.037000000000        -0.490479276868
 D 5
    1          7.361329098500        -0.016516368963
    2          2.629103725800         0.223872660221
    3          1.129274463400         0.427665270491
    4          0.444716599000         0.377321358770
    5          0.155448938400         0.235452604590
 D 5
    1          7.361329098500        -0.011862230072
    2          2.629103725800         0.160787701477
    3          1.129274463400         0.307153699679
    4          0.444716599000         0.270996172266
    5          0.155448938400        -1.062084464077
 F 1
    1          1.246290000000         1.000000000000
 end
  // -----------------------------------------------
  // The basis set
  // -----------------------------------------------
  BAS[ATNO] = new BFNGauss[NSH];
  // Basis function   1 L = s
  InitBFNGauss(BAS[ATNO][  0]);
  BAS[ATNO][  0].l  = 0;
  BAS[ATNO][  0].ng = 7;
  BAS[ATNO][  0].a[  0] =         8.475640000000;     BAS[ATNO][  0].d[  0] =        -1.229212533398;
  BAS[ATNO][  0].a[  1] =         7.165717000000;     BAS[ATNO][  0].d[  1] =         1.642909930965;
  BAS[ATNO][  0].a[  2] =         3.182110000000;     BAS[ATNO][  0].d[  2] =         0.130719920168;
  BAS[ATNO][  0].a[  3] =         1.397364419600;     BAS[ATNO][  0].d[  3] =        -0.864420480847;
  BAS[ATNO][  0].a[  4] =         0.605329558700;     BAS[ATNO][  0].d[  4] =        -0.483619703855;
  BAS[ATNO][  0].a[  5] =         0.102295142100;     BAS[ATNO][  0].d[  5] =        -0.016518528727;
  BAS[ATNO][  0].a[  6] =         0.037338972900;     BAS[ATNO][  0].d[  6] =         0.004791957171;

  // Basis function   2 L = s
  InitBFNGauss(BAS[ATNO][  1]);
  BAS[ATNO][  1].l  = 0;
  BAS[ATNO][  1].ng = 7;
  BAS[ATNO][  1].a[  0] =         8.475640000000;     BAS[ATNO][  1].d[  0] =        -0.221159892512;
  BAS[ATNO][  1].a[  1] =         7.165717000000;     BAS[ATNO][  1].d[  1] =         0.295592319365;
  BAS[ATNO][  1].a[  2] =         3.182110000000;     BAS[ATNO][  1].d[  2] =         0.023519125219;
  BAS[ATNO][  1].a[  3] =         1.397364419600;     BAS[ATNO][  1].d[  3] =        -0.210017758806;
  BAS[ATNO][  1].a[  4] =         0.605329558700;     BAS[ATNO][  1].d[  4] =        -0.087347839948;
  BAS[ATNO][  1].a[  5] =         0.102295142100;     BAS[ATNO][  1].d[  5] =        -0.190296898845;
  BAS[ATNO][  1].a[  6] =         0.037338972900;     BAS[ATNO][  1].d[  6] =         1.173961040365;

  // Basis function   3 L = s
  InitBFNGauss(BAS[ATNO][  2]);
  BAS[ATNO][  2].l  = 0;
  BAS[ATNO][  2].ng = 7;
  BAS[ATNO][  2].a[  0] =         8.475640000000;     BAS[ATNO][  2].d[  0] =        -0.367813310539;
  BAS[ATNO][  2].a[  1] =         7.165717000000;     BAS[ATNO][  2].d[  1] =         0.491602651460;
  BAS[ATNO][  2].a[  2] =         3.182110000000;     BAS[ATNO][  2].d[  2] =         0.039114901031;
  BAS[ATNO][  2].a[  3] =         1.397364419600;     BAS[ATNO][  2].d[  3] =        -0.218060264956;
  BAS[ATNO][  2].a[  4] =         0.605329558700;     BAS[ATNO][  2].d[  4] =        -0.632011639672;
  BAS[ATNO][  2].a[  5] =         0.102295142100;     BAS[ATNO][  2].d[  5] =         2.246676150974;
  BAS[ATNO][  2].a[  6] =         0.037338972900;     BAS[ATNO][  2].d[  6] =        -1.565247419375;

  // Basis function   4 L = s
  InitBFNGauss(BAS[ATNO][  3]);
  BAS[ATNO][  3].l  = 0;
  BAS[ATNO][  3].ng = 7;
  BAS[ATNO][  3].a[  0] =         8.475640000000;     BAS[ATNO][  3].d[  0] =         2.108206885509;
  BAS[ATNO][  3].a[  1] =         7.165717000000;     BAS[ATNO][  3].d[  1] =        -2.817734065206;
  BAS[ATNO][  3].a[  2] =         3.182110000000;     BAS[ATNO][  3].d[  2] =        -0.224196083495;
  BAS[ATNO][  3].a[  3] =         1.397364419600;     BAS[ATNO][  3].d[  3] =         3.671112855243;
  BAS[ATNO][  3].a[  4] =         0.605329558700;     BAS[ATNO][  3].d[  4] =        -3.440279082265;
  BAS[ATNO][  3].a[  5] =         0.102295142100;     BAS[ATNO][  3].d[  5] =         1.339342077755;
  BAS[ATNO][  3].a[  6] =         0.037338972900;     BAS[ATNO][  3].d[  6] =        -0.591756973110;

  // Basis function   5 L = s
  InitBFNGauss(BAS[ATNO][  4]);
  BAS[ATNO][  4].l  = 0;
  BAS[ATNO][  4].ng = 7;
  BAS[ATNO][  4].a[  0] =         8.475640000000;     BAS[ATNO][  4].d[  0] =        -3.743208999548;
  BAS[ATNO][  4].a[  1] =         7.165717000000;     BAS[ATNO][  4].d[  1] =         5.003004014316;
  BAS[ATNO][  4].a[  2] =         3.182110000000;     BAS[ATNO][  4].d[  2] =         0.398069469923;
  BAS[ATNO][  4].a[  3] =         1.397364419600;     BAS[ATNO][  4].d[  3] =        -1.620309751153;
  BAS[ATNO][  4].a[  4] =         0.605329558700;     BAS[ATNO][  4].d[  4] =         0.876489855726;
  BAS[ATNO][  4].a[  5] =         0.102295142100;     BAS[ATNO][  4].d[  5] =        -0.231428217154;
  BAS[ATNO][  4].a[  6] =         0.037338972900;     BAS[ATNO][  4].d[  6] =         0.102415810909;

  // Basis function   6 L = p
  InitBFNGauss(BAS[ATNO][  5]);
  BAS[ATNO][  5].l  = 1;
  BAS[ATNO][  5].ng = 6;
  BAS[ATNO][  5].a[  0] =         4.246097000000;     BAS[ATNO][  5].d[  0] =        -0.818259999274;
  BAS[ATNO][  5].a[  1] =         3.392594000000;     BAS[ATNO][  5].d[  1] =         0.865577509735;
  BAS[ATNO][  5].a[  2] =         1.197589126400;     BAS[ATNO][  5].d[  2] =         0.631279427183;
  BAS[ATNO][  5].a[  3] =         0.526737505900;     BAS[ATNO][  5].d[  3] =         0.270606108307;
  BAS[ATNO][  5].a[  4] =         0.206070941000;     BAS[ATNO][  5].d[  4] =         0.037131936564;
  BAS[ATNO][  5].a[  5] =         0.037000000000;     BAS[ATNO][  5].d[  5] =        -0.001260409555;

  // Basis function   7 L = p
  InitBFNGauss(BAS[ATNO][  6]);
  BAS[ATNO][  6].l  = 1;
  BAS[ATNO][  6].ng = 6;
  BAS[ATNO][  6].a[  0] =         4.246097000000;     BAS[ATNO][  6].d[  0] =         0.078960982468;
  BAS[ATNO][  6].a[  1] =         3.392594000000;     BAS[ATNO][  6].d[  1] =        -0.083527058187;
  BAS[ATNO][  6].a[  2] =         1.197589126400;     BAS[ATNO][  6].d[  2] =        -0.060917610328;
  BAS[ATNO][  6].a[  3] =         0.526737505900;     BAS[ATNO][  6].d[  3] =        -0.026113123204;
  BAS[ATNO][  6].a[  4] =         0.206070941000;     BAS[ATNO][  6].d[  4] =        -0.030360373259;
  BAS[ATNO][  6].a[  5] =         0.037000000000;     BAS[ATNO][  6].d[  5] =         1.016194286692;

  // Basis function   8 L = p
  InitBFNGauss(BAS[ATNO][  7]);
  BAS[ATNO][  7].l  = 1;
  BAS[ATNO][  7].ng = 6;
  BAS[ATNO][  7].a[  0] =         4.246097000000;     BAS[ATNO][  7].d[  0] =         0.550936386077;
  BAS[ATNO][  7].a[  1] =         3.392594000000;     BAS[ATNO][  7].d[  1] =        -0.582795377394;
  BAS[ATNO][  7].a[  2] =         1.197589126400;     BAS[ATNO][  7].d[  2] =        -0.425041926192;
  BAS[ATNO][  7].a[  3] =         0.526737505900;     BAS[ATNO][  7].d[  3] =        -0.182199730518;
  BAS[ATNO][  7].a[  4] =         0.206070941000;     BAS[ATNO][  7].d[  4] =         1.311644975108;
  BAS[ATNO][  7].a[  5] =         0.037000000000;     BAS[ATNO][  7].d[  5] =        -0.490479276868;

  // Basis function   9 L = d
  InitBFNGauss(BAS[ATNO][  8]);
  BAS[ATNO][  8].l  = 2;
  BAS[ATNO][  8].ng = 5;
  BAS[ATNO][  8].a[  0] =         7.361329098500;     BAS[ATNO][  8].d[  0] =        -0.016516368963;
  BAS[ATNO][  8].a[  1] =         2.629103725800;     BAS[ATNO][  8].d[  1] =         0.223872660221;
  BAS[ATNO][  8].a[  2] =         1.129274463400;     BAS[ATNO][  8].d[  2] =         0.427665270491;
  BAS[ATNO][  8].a[  3] =         0.444716599000;     BAS[ATNO][  8].d[  3] =         0.377321358770;
  BAS[ATNO][  8].a[  4] =         0.155448938400;     BAS[ATNO][  8].d[  4] =         0.235452604590;

  // Basis function  10 L = d
  InitBFNGauss(BAS[ATNO][  9]);
  BAS[ATNO][  9].l  = 2;
  BAS[ATNO][  9].ng = 5;
  BAS[ATNO][  9].a[  0] =         7.361329098500;     BAS[ATNO][  9].d[  0] =         0.011862230072;
  BAS[ATNO][  9].a[  1] =         2.629103725800;     BAS[ATNO][  9].d[  1] =        -0.160787701477;
  BAS[ATNO][  9].a[  2] =         1.129274463400;     BAS[ATNO][  9].d[  2] =        -0.307153699679;
  BAS[ATNO][  9].a[  3] =         0.444716599000;     BAS[ATNO][  9].d[  3] =        -0.270996172266;
  BAS[ATNO][  9].a[  4] =         0.155448938400;     BAS[ATNO][  9].d[  4] =         1.062084464077;

  // Basis function  11 L = f
  InitBFNGauss(BAS[ATNO][ 10]);
  BAS[ATNO][ 10].l  = 3;
  BAS[ATNO][ 10].ng = 1;
  BAS[ATNO][ 10].a[  0] =         1.246290000000;     BAS[ATNO][ 10].d[  0] =         1.000000000000;

-------------------------------------------
RADIAL EXPECTATION VALUES <R**-3> TO <R**3>
-------------------------------------------
   0 :     0.000000     1.415254     1.131751     0.974346     1.046643     1.240168
   1 :     0.000000     0.089511     0.258143     4.587776    23.826934   136.957431
   2 :     0.000000     0.184453     0.349208     4.063085    21.684176   137.713488
   3 :     0.000000     0.897602     0.804896     1.812997     5.127649    22.439613
   4 :     0.000000    17.041196     3.359807     0.418430     0.332498     0.790602
   5 :     1.604284     1.221787     1.044714     1.070895     1.284203     1.727391
   6 :     1.604284     1.221787     1.044714     1.070895     1.284203     1.727391
   7 :     1.604284     1.221787     1.044714     1.070895     1.284203     1.727391
   8 :     0.018952     0.049010     0.200451     5.614082    34.574277   230.437248
   9 :     0.018952     0.049010     0.200451     5.614082    34.574277   230.437248
  10 :     0.018952     0.049010     0.200451     5.614082    34.574277   230.437248
  11 :     0.299646     0.304164     0.461781     2.905818    11.357831    59.226963
  12 :     0.299646     0.304164     0.461781     2.905818    11.357831    59.226963
  13 :     0.299646     0.304164     0.461781     2.905818    11.357831    59.226963
  14 :     0.901654     0.767255     0.793319     1.550102     2.966728    34.740433
  15 :     0.901654     0.767255     0.793319     1.550102     2.966728    34.740433
  16 :     0.901654     0.767255     0.793319     1.550102     2.966728    34.740433
  17 :     0.901654     0.767255     0.793319     1.550102     2.966728    34.740433
  18 :     0.901654     0.767255     0.793319     1.550102     2.966728    34.740433
  19 :     0.355312     0.316681     0.441148     3.082474    10.962948   209.892354
  20 :     0.355312     0.316681     0.441148     3.082474    10.962948   209.892354
  21 :     0.355312     0.316681     0.441148     3.082474    10.962948   209.892354
  22 :     0.355312     0.316681     0.441148     3.082474    10.962948   209.892354
  23 :     0.355312     0.316681     0.441148     3.082474    10.962948   209.892354
  24 :     0.676643     0.712166     0.814388     1.306900     1.805358    18.351069
  25 :     0.676643     0.712166     0.814388     1.306900     1.805358    18.351069
  26 :     0.676643     0.712166     0.814388     1.306900     1.805358    18.351069
  27 :     0.676643     0.712166     0.814388     1.306900     1.805358    18.351069
  28 :     0.676643     0.712166     0.814388     1.306900     1.805358    18.351069
  29 :     0.676643     0.712166     0.814388     1.306900     1.805358    18.351069
  30 :     0.676643     0.712166     0.814388     1.306900     1.805358    18.351069
-------
TIMINGS
-------

Total SCF time: 0 days 0 hours 0 min 3 sec 

Total time                  ....       3.405 sec
Sum of individual times     ....       2.935 sec  ( 86.2%)

Fock matrix formation       ....       1.383 sec  ( 40.6%)
Diagonalization             ....       0.031 sec  (  0.9%)
Density matrix formation    ....       0.001 sec  (  0.0%)
Population analysis         ....       0.023 sec  (  0.7%)
Initial guess               ....       1.246 sec  ( 36.6%)
Orbital Transformation      ....       0.000 sec  (  0.0%)
Orbital Orthonormalization  ....       0.000 sec  (  0.0%)
DIIS solution               ....       0.195 sec  (  5.7%)


           ************************************************************
           *        Program running with 24 parallel MPI-processes    *
           *              working on a common directory               *
           ************************************************************


------------------------------------------------------------------------------- 
                              ORCA-MATRIX DRIVEN CI                            
------------------------------------------------------------------------------- 

--------------------------------
AUTOMATIC CHOICE OF INCORE LEVEL
--------------------------------

Memory available                           ...   2500.00 MB
Memory needed for S+T                      ...      0.50 MB
Memory needed for J+K                      ...      1.01 MB
Memory needed for DIIS                     ...      6.98 MB
Memory needed for 3-ext                    ...      0.73 MB
Memory needed for 4-ext                    ...      0.93 MB
Memory needed for triples                  ...      0.41 MB
 -> Final InCoreLevel    ... 5
 -> check shows that triples correction can be computed


Wavefunction type
-----------------
Correlation treatment                      ...      CCSD     
Single excitations                         ... ON
Orbital optimization                       ... OFF
Calculation of Z vector                    ... OFF
Calculation of Brueckner orbitals          ... OFF
Perturbative triple excitations            ... ON
Calculation of F12 correction              ... OFF
Frozen core treatment                      ... chemical core (0 el)
Reference Wavefunction                     ... RHF
  Internal Orbitals:     0 ...    8 (  9 MO's/ 18 electrons)
  Virtual  Orbitals:     9 ...   30 ( 22 MO's              )
Number of AO's                             ...     31
Number of electrons                        ...     18
Number of correlated electrons             ...     18

Algorithmic settings
--------------------
Integral transformation                    ... AO direct full transformation
K(C) Formation                             ... FULL-MO TRAFO
Maximum number of iterations               ...        50
Convergence tolerance (max. residuum)      ... 1.000e-05
Level shift for amplitude update           ... 2.000e-01
Maximum number of DIIS vectors             ...         7
DIIS turned on at iteration                ...         0
Damping before turning on DIIS             ...     0.500
Damping after turning on DIIS              ...     0.000
Pair specific amplitude update             ... OFF
Natural orbital iterations                 ... OFF
Perturbative natural orbital generation    ... OFF
Printlevel                                 ... 2

Memory handling:
----------------
Maximum memory for working arrays          ...   2500 MB
Data storage in matrix containers          ... UNCOMPRESSED
Data type for integral storage             ... DOUBLE
In-Core Storage of quantities:
   Amplitudes+Sigma Vector      ... YES
   J+K operators                ... YES
   DIIS vectors                 ... YES
   3-external integrals         ... YES
   4-external integrals         ... YES


Initializing the integral package          ... done
Warning: reference  - re-canonicalizations have been set to INT 1 VIRT 1

--------------------------
CLOSED-SHELL FOCK OPERATOR
--------------------------

<ss|ss>:          120 b            0 skpd (  0.0%)    0.000 s ( 0.000 ms/b)
<ss|sp>:          225 b            0 skpd (  0.0%)    0.000 s ( 0.000 ms/b)
<ss|sd>:          150 b            0 skpd (  0.0%)    0.000 s ( 0.000 ms/b)
<ss|sf>:           75 b            0 skpd (  0.0%)    0.000 s ( 0.000 ms/b)
<ss|pp>:           90 b            0 skpd (  0.0%)    0.000 s ( 0.001 ms/b)
<ss|pd>:           90 b            0 skpd (  0.0%)    0.000 s ( 0.001 ms/b)
<ss|pf>:           45 b            0 skpd (  0.0%)    0.000 s ( 0.001 ms/b)
<ss|dd>:           45 b            0 skpd (  0.0%)    0.000 s ( 0.003 ms/b)
<ss|df>:           30 b            0 skpd (  0.0%)    0.000 s ( 0.002 ms/b)
<ss|ff>:           15 b            0 skpd (  0.0%)    0.000 s ( 0.003 ms/b)
<sp|sp>:          120 b            0 skpd (  0.0%)    0.000 s ( 0.000 ms/b)
<sp|sd>:          150 b            0 skpd (  0.0%)    0.000 s ( 0.000 ms/b)
<sp|sf>:           75 b            0 skpd (  0.0%)    0.000 s ( 0.001 ms/b)
<sp|pp>:           90 b            0 skpd (  0.0%)    0.000 s ( 0.002 ms/b)
<sp|pd>:           90 b            0 skpd (  0.0%)    0.000 s ( 0.003 ms/b)
<sp|pf>:           45 b            0 skpd (  0.0%)    0.000 s ( 0.003 ms/b)
<sp|dd>:           45 b            0 skpd (  0.0%)    0.000 s ( 0.009 ms/b)
<sp|df>: done
<sp|ff>: done
<sd|sd>:           55 b            0 skpd (  0.0%)    0.000 s ( 0.001 ms/b)
<sd|sf>:           50 b            0 skpd (  0.0%)    0.000 s ( 0.003 ms/b)
<sd|pp>:           60 b            0 skpd (  0.0%)    0.000 s ( 0.004 ms/b)
<sd|pd>:           60 b            0 skpd (  0.0%)    0.000 s ( 0.007 ms/b)
<sd|pf>: done
<sd|dd>:           30 b            0 skpd (  0.0%)    0.001 s ( 0.025 ms/b)
<sd|df>:           20 b            0 skpd (  0.0%)    0.000 s ( 0.020 ms/b)
<sd|ff>: done
<sf|sf>:           15 b            0 skpd (  0.0%)    0.000 s ( 0.002 ms/b)
<sf|pp>:           30 b            0 skpd (  0.0%)    0.000 s ( 0.003 ms/b)
<sf|pd>: done
<sf|pf>: done
<sf|dd>:           15 b            0 skpd (  0.0%)    0.000 s ( 0.023 ms/b)
<sf|df>: done
<sf|ff>: done
<pp|pp>:           21 b            0 skpd (  0.0%)    0.000 s ( 0.009 ms/b)
<pp|pd>:           36 b            0 skpd (  0.0%)    0.000 s ( 0.009 ms/b)
<pp|pf>:           18 b            0 skpd (  0.0%)    0.000 s ( 0.009 ms/b)
<pp|dd>:           18 b            0 skpd (  0.0%)    0.001 s ( 0.032 ms/b)
<pp|df>:           12 b            0 skpd (  0.0%)    0.000 s ( 0.027 ms/b)
<pp|ff>:            6 b            0 skpd (  0.0%)    0.000 s ( 0.033 ms/b)
<pd|pd>:           21 b            0 skpd (  0.0%)    0.001 s ( 0.038 ms/b)
<pd|pf>:           18 b            0 skpd (  0.0%)    0.000 s ( 0.021 ms/b)
<pd|dd>:           18 b            0 skpd (  0.0%)    0.001 s ( 0.081 ms/b)
<pd|df>:           12 b            0 skpd (  0.0%)    0.001 s ( 0.066 ms/b)
<pd|ff>: done
<pf|pf>:            6 b            0 skpd (  0.0%)    0.000 s ( 0.032 ms/b)
<pf|dd>:            9 b            0 skpd (  0.0%)    0.001 s ( 0.067 ms/b)
<pf|df>: done
<pf|ff>: done
<dd|dd>:            6 b            0 skpd (  0.0%)    0.002 s ( 0.335 ms/b)
<dd|df>:            6 b            0 skpd (  0.0%)    0.001 s ( 0.182 ms/b)
<dd|ff>:            3 b            0 skpd (  0.0%)    0.001 s ( 0.202 ms/b)
<df|df>:            3 b            0 skpd (  0.0%)    0.001 s ( 0.185 ms/b)
<df|ff>: done
<ff|ff>: done
Recanonicalizing the internal orbitals
Recanonicalizing the virtual orbitals
Time needed for Fock operator              ...            0.040 sec
Reference energy                           ...   -127.000351010
<ss|**>: 
------------------------------
PARTIAL COULOMB TRANSFORMATION
------------------------------

Transformation type                        ... one-operator
Dimension of the basis                     ...   31
Number of internal MOs                     ...   31 (0-30)
Pair cutoff                                ... 0.000e+00 Eh
Number of AO pairs included in the trafo   ...  496
Total Number of distinct AO pairs          ...  496
Memory devoted for trafo                   ... 2500.0 MB 
Max. Number of MO pairs treated together   ... 660645      
Max. Number of MOs treated per batch       ... 21311      
Number Format for Storage                  ... Double (8 Byte)
AO-integral source                         ... DIRECT
Integral package used                      ... LIBINT

Starting integral evaluation:
<sp|**>:          990 b        0 skpd     0.005 s (  0.005 ms/b)
<sd|**>:          990 b        0 skpd     0.004 s (  0.004 ms/b)
<sf|**>:          660 b        0 skpd     0.004 s (  0.006 ms/b)
<pp|**>:          330 b        0 skpd     0.004 s (  0.012 ms/b)
<pd|**>:          396 b        0 skpd     0.005 s (  0.012 ms/b)
<pf|**>:          396 b        0 skpd     0.010 s (  0.025 ms/b)
<dd|**>:          198 b        0 skpd     0.010 s (  0.053 ms/b)
<df|**>:          198 b        0 skpd     0.012 s (  0.060 ms/b)
         132 b        0 skpd     0.016 s (  0.121 ms/b)
<ff|**>:           66 b        0 skpd     0.011 s (  0.168 ms/b)
Closing buffer AOJ ( 0.00 GB; CompressionRatio= 1.00)
Collecting buffer AOJ 
    ... done with AO integral generation
Number of MO pairs included in the trafo   ...  496
    ... Now sorting integrals
IBATCH = 1 of  1
Closing buffer JAO ( 0.00 GB; CompressionRatio= 1.00)
Collecting buffer JAO 
TOTAL TIME for half transformation         ...     0.206 sec
AO-integral generation                     ...     0.067 sec
Half transformation                        ...     0.015 sec
J-integral sorting                         ...     0.094 sec

-------------------------- SECOND HALF TRANSFORMATION -------------------------
Formation of (pq|rs)                       ... ok (     0.088 sec)
Integral sorting                           ... ok (     0.073 sec)

------------------
CLOSED SHELL GUESS
------------------

Initial guess performed in     0.002 sec
E(0)                                       ...   -127.000351010
E(MP2)                                     ...     -0.328485230
Initial E(tot)                             ...   -127.328836240
<T|T>                                      ...      0.082644608
Number of pairs included                   ... 45
Total number of pairs                      ... 45

------------------------------------------------
                  RHF COUPLED CLUSTER ITERATIONS
------------------------------------------------

Number of amplitudes to be optimized       ... 21978

Iter       E(tot)           E(Corr)          Delta-E          Residual     Time
  0   -127.328836240     -0.328485230      0.000000000      0.023594006    0.02
                           *** Turning on DIIS ***
  1   -127.303524159     -0.303173149      0.025312081      0.007125867    0.03
  2   -127.309378508     -0.309027499     -0.005854350      0.001644731    0.03
  3   -127.310057225     -0.309706215     -0.000678716      0.000468718    0.03
  4   -127.310330874     -0.309979864     -0.000273649      0.000170225    0.03
  5   -127.310352437     -0.310001427     -0.000021563      0.000063721    0.03
  6   -127.310354068     -0.310003058     -0.000001631      0.000015216    0.03
  7   -127.310354637     -0.310003627     -0.000000569      0.000002215    0.03
               --- The Coupled-Cluster iterations have converged ---

----------------------
COUPLED CLUSTER ENERGY
----------------------

E(0)                                       ...   -127.000351010
E(CORR)                                    ...     -0.310003627
E(TOT)                                     ...   -127.310354637
Singles Norm <S|S>**1/2                    ...      0.048457885  
T1 diagnostic                              ...      0.011421633  

------------------
LARGEST AMPLITUDES
------------------
   6-> 19   6-> 19       0.031284
   5-> 18   5-> 18       0.026174
   4-> 17   4-> 17       0.025718
   8-> 21   8-> 21       0.025681
   7-> 20   7-> 20       0.025681
   7-> 20   6-> 19       0.021610
   8-> 21   6-> 19       0.021417
   6-> 19  -1-> -1       0.021266
   6-> 19   5-> 18       0.020842
   6-> 19   4-> 17       0.020544
   7-> 20   5-> 18       0.020333
   8-> 21   4-> 17       0.020224
   7-> 28   7-> 28       0.019692
   5-> 18  -1-> -1       0.019222
   4-> 17  -1-> -1       0.019029
   8-> 21  -1-> -1       0.018939


        !!!!!!!!!!!!!!!!!!!!!!!!!!!!!!!!!!!!!!!!!!!!!!!!!!!!!!!!!!!!!!!!!!!!!!!!!! 
        !  Warning: Densities are linearized densities !                         !
        !!!!!!!!!!!!!!!!!!!!!!!!!!!!!!!!!!!!!!!!!!!!!!!!!!!!!!!!!!!!!!!!!!!!!!!!!! 

Trace of internal density part =     -0.156763752
Trace of external density part =      0.156763752
----------------------
RHF TRIPLES CORRECTION (Algorithm 1)
----------------------

Multiplier for the singles contribution    ...      1.000000000

10% done
20% done
30% done
40% done
50% done
60% done
70% done
80% done

Triples Correction (T)                     ...     -0.011325151
Scaling of triples based on CCSD energies (Peterson et al. Molecular Physics 113, 1551 (2015))
E(T*) = f*E(T) where f = E(F12-CCSD)/E(CCSD) 
f = CCSD (with F12)/ CCSD (without F12)    ...      1.000000000
Scaled triples correction (T)              ...     -0.011325151

Final correlation energy                   ...     -0.321328778
E(CCSD)                                    ...   -127.310354637
E(CCSD(T))                                 ...   -127.321679787

NORM  =      1.080730042 sqrt=     1.039581667
W(HF) =      0.925300455
------------------------------------------------------------------------------
                           ORCA POPULATION ANALYSIS
------------------------------------------------------------------------------
Input electron density              ... 46_Pd.mdcip
BaseName (.gbw .S,...)              ... 46_Pd

                    ********************************
                    * MULLIKEN POPULATION ANALYSIS *
                    ********************************

-----------------------
MULLIKEN ATOMIC CHARGES
-----------------------
   0 Pd:   -0.000000
Sum of atomic charges:   -0.0000000

--------------------------------
MULLIKEN REDUCED ORBITAL CHARGES
--------------------------------
  0 Pds       :     2.007489  s :     2.007489
      pz      :     2.002834  p :     6.008502
      px      :     2.002834
      py      :     2.002834
      dz2     :     1.986692  d :     9.933462
      dxz     :     1.986692
      dyz     :     1.986692
      dx2y2   :     1.986692
      dxy     :     1.986692
      f0      :     0.007221  f :     0.050547
      f+1     :     0.007221
      f-1     :     0.007221
      f+2     :     0.007221
      f-2     :     0.007221
      f+3     :     0.007221
      f-3     :     0.007221


                     *******************************
                     * LOEWDIN POPULATION ANALYSIS *
                     *******************************

----------------------
LOEWDIN ATOMIC CHARGES
----------------------
   0 Pd:   -0.000000

-------------------------------
LOEWDIN REDUCED ORBITAL CHARGES
-------------------------------
  0 Pds       :     2.007489  s :     2.007489
      pz      :     2.002834  p :     6.008502
      px      :     2.002834
      py      :     2.002834
      dz2     :     1.986692  d :     9.933462
      dxz     :     1.986692
      dyz     :     1.986692
      dx2y2   :     1.986692
      dxy     :     1.986692
      f0      :     0.007221  f :     0.050547
      f+1     :     0.007221
      f-1     :     0.007221
      f+2     :     0.007221
      f-2     :     0.007221
      f+3     :     0.007221
      f-3     :     0.007221


                      *****************************
                      * MAYER POPULATION ANALYSIS *
                      *****************************

  NA   - Mulliken gross atomic population
  ZA   - Total nuclear charge
  QA   - Mulliken gross atomic charge
  VA   - Mayer's total valence
  BVA  - Mayer's bonded valence
  FA   - Mayer's free valence

  ATOM       NA         ZA         QA         VA         BVA        FA
  0 Pd    18.0000    18.0000    -0.0000     0.6096     0.0000     0.6096





------------------------------------------------------------------------------- 
                                     TIMINGS                                   
------------------------------------------------------------------------------- 


Total execution time                   ...        0.896 sec

Fock Matrix Formation                  ...        0.040 sec (  4.4%)
Initial Guess                          ...        0.002 sec (  0.2%)
DIIS Solver                            ...        0.010 sec (  1.1%)
State Vector Update                    ...        0.001 sec (  0.1%)
Sigma-vector construction              ...        0.185 sec ( 20.6%)
  <D|H|D>(0-ext)                       ...        0.001 sec (  0.6% of sigma)
  <D|H|D>(2-ext)                       ...        0.001 sec (  0.8% of sigma)
  <D|H|D>(4-ext)                       ...        0.013 sec (  7.2% of sigma)
  <D|H|D>(4-ext-corr)                  ...        0.006 sec (  3.3% of sigma)
  <S|H|D>(3-ext)                       ...        0.012 sec (  6.6% of sigma)
  Fock-dressing                        ...        0.091 sec ( 49.1% of sigma)
  (ik|jl)-dressing                     ...        0.001 sec (  0.8% of sigma)
  (ij|ab),(ia|jb)-dressing             ...        0.038 sec ( 20.6% of sigma)
Total Time for computing (T)           ...        0.002 sec (  0.3% of ALL)
  I/O of integral and amplitudes       ...        0.001 sec ( 43.0% of (T))


-------------------------   --------------------
FINAL SINGLE POINT ENERGY      -127.321679787359
-------------------------   --------------------


                            ***************************************
                            *     ORCA property calculations      *
                            ***************************************

                                    ---------------------
                                    Active property flags
                                    ---------------------
   (+) Dipole Moment


------------------------------------------------------------------------------
                       ORCA ELECTRIC PROPERTIES CALCULATION
------------------------------------------------------------------------------

Dipole Moment Calculation                       ... on
Quadrupole Moment Calculation                   ... off
Polarizability Calculation                      ... off
GBWName                                         ... 46_Pd.gbw
Electron density file                           ... 46_Pd.scfp
The origin for moment calculation is the CENTER OF MASS  = ( 0.000000,  0.000000  0.000000)

-------------
DIPOLE MOMENT
-------------
                                X             Y             Z
Electronic contribution:      0.00000       0.00000       0.00000
Nuclear contribution   :      0.00000       0.00000       0.00000
                        -----------------------------------------
Total Dipole Moment    :      0.00000       0.00000       0.00000
                        -----------------------------------------
Magnitude (a.u.)       :      0.00000
Magnitude (Debye)      :      0.00000



--------------------
Rotational spectrum 
--------------------
 
Rotational constants in cm-1:     0.000000     0.000000     0.000000 
Rotational constants in MHz :     0.000000     0.000000     0.000000 

 Dipole components along the rotational axes: 
x,y,z [a.u.] :     0.000000     0.000000     0.000000 
x,y,z [Debye]:     0.000000     0.000000     0.000000 

 

                           *** MDCI DENSITY ***

------------------------------------------------------------------------------
                       ORCA ELECTRIC PROPERTIES CALCULATION
------------------------------------------------------------------------------

Dipole Moment Calculation                       ... on
Quadrupole Moment Calculation                   ... off
Polarizability Calculation                      ... off
GBWName                                         ... 46_Pd.gbw
Electron density file                           ... 46_Pd.mdcip
The origin for moment calculation is the CENTER OF MASS  = ( 0.000000,  0.000000  0.000000)

-------------
DIPOLE MOMENT
-------------
                                X             Y             Z
Electronic contribution:     -0.00000       0.00000      -0.00000
Nuclear contribution   :      0.00000       0.00000       0.00000
                        -----------------------------------------
Total Dipole Moment    :     -0.00000       0.00000      -0.00000
                        -----------------------------------------
Magnitude (a.u.)       :      0.00000
Magnitude (Debye)      :      0.00000



--------------------
Rotational spectrum 
--------------------
 
Rotational constants in cm-1:     0.000000     0.000000     0.000000 
Rotational constants in MHz :     0.000000     0.000000     0.000000 

 Dipole components along the rotational axes: 
x,y,z [a.u.] :    -0.000000     0.000000    -0.000000 
x,y,z [Debye]:    -0.000000     0.000000    -0.000000 

 

Timings for individual modules:

Sum of individual times         ...        6.170 sec (=   0.103 min)
GTO integral calculation        ...        1.022 sec (=   0.017 min)  16.6 %
SCF iterations                  ...        3.847 sec (=   0.064 min)  62.3 %
MDCI module                     ...        1.301 sec (=   0.022 min)  21.1 %
                             ****ORCA TERMINATED NORMALLY****
TOTAL RUN TIME: 0 days 0 hours 0 minutes 6 seconds 977 msec
