
                                 *****************
                                 * O   R   C   A *
                                 *****************

           --- An Ab Initio, DFT and Semiempirical electronic structure package ---

                  #######################################################
                  #                        -***-                        #
                  #          Department of theory and spectroscopy      #
                  #               Directorship: Frank Neese             #
                  #        Max Planck Institute fuer Kohlenforschung    #
                  #                Kaiser Wilhelm Platz 1               #
                  #                 D-45470 Muelheim/Ruhr               #
                  #                      Germany                        #
                  #                                                     #
                  #                  All rights reserved                #
                  #                        -***-                        #
                  #######################################################


                         Program Version 4.2.0 -  RELEASE  -


 With contributions from (in alphabetic order):
   Daniel Aravena         : Magnetic Suceptibility
   Michael Atanasov       : Ab Initio Ligand Field Theory (pilot matlab implementation)
   Alexander A. Auer      : GIAO ZORA, VPT2
   Ute Becker             : Parallelization
   Giovanni Bistoni       : ED, misc. LED, open-shell LED, HFLED
   Martin Brehm           : Molecular dynamics
   Dmytro Bykov           : SCF Hessian
   Vijay G. Chilkuri      : MRCI spin determinant printing, contributions to CSF-ICE
   Dipayan Datta          : RHF DLPNO-CCSD density
   Achintya Kumar Dutta   : EOM-CC, STEOM-CC
   Dmitry Ganyushin       : Spin-Orbit,Spin-Spin,Magnetic field MRCI
   Miquel Garcia          : C-PCM Hessian, Gaussian charge scheme
   Yang Guo               : DLPNO-NEVPT2, CIM, IAO-localization
   Andreas Hansen         : Spin unrestricted coupled pair/coupled cluster methods
   Benjamin Helmich-Paris : CASSCF linear response (MC-RPA)
   Lee Huntington         : MR-EOM, pCC
   Robert Izsak           : Overlap fitted RIJCOSX, COSX-SCS-MP3, EOM
   Christian Kollmar      : KDIIS, OOCD, Brueckner-CCSD(T), CCSD density
   Simone Kossmann        : Meta GGA functionals, TD-DFT gradient, OOMP2, MP2 Hessian
   Martin Krupicka        : AUTO-CI
   Lucas Lang             : DCDCAS
   Dagmar Lenk            : GEPOL surface, SMD
   Dimitrios Liakos       : Extrapolation schemes; Compound Job, initial MDCI parallelization
   Dimitrios Manganas     : Further ROCIS development; embedding schemes
   Dimitrios Pantazis     : SARC Basis sets
   Taras Petrenko         : DFT Hessian,TD-DFT gradient, ASA, ECA, R-Raman, ABS, FL, XAS/XES, NRVS
   Peter Pinski           : DLPNO-MP2, DLPNO-MP2 Gradient
   Christoph Reimann      : Effective Core Potentials
   Marius Retegan         : Local ZFS, SOC
   Christoph Riplinger    : Optimizer, TS searches, QM/MM, DLPNO-CCSD(T), (RO)-DLPNO pert. Triples
   Tobias Risthaus        : Range-separated hybrids, TD-DFT gradient, RPA, STAB
   Michael Roemelt        : Original ROCIS implementation
   Masaaki Saitow         : Open-shell DLPNO-CCSD energy and density
   Barbara Sandhoefer     : DKH picture change effects
   Avijit Sen             : IP-ROCIS
   Kantharuban Sivalingam : CASSCF convergence, NEVPT2, FIC-MRCI
   Bernardo de Souza      : ESD, SOC TD-DFT
   Georgi Stoychev        : AutoAux, RI-MP2 NMR
   Willem Van den Heuvel  : Paramagnetic NMR
   Boris Wezisla          : Elementary symmetry handling
   Frank Wennmohs         : Technical directorship


 We gratefully acknowledge several colleagues who have allowed us to
 interface, adapt or use parts of their codes:
   Stefan Grimme, W. Hujo, H. Kruse,             : VdW corrections, initial TS optimization,
                  C. Bannwarth                     DFT functionals, gCP, sTDA/sTD-DF
   Ed Valeev, F. Pavosevic, A. Kumar             : LibInt (2-el integral package), F12 methods
   Garnet Chan, S. Sharma, J. Yang, R. Olivares  : DMRG
   Ulf Ekstrom                                   : XCFun DFT Library
   Mihaly Kallay                                 : mrcc  (arbitrary order and MRCC methods)
   Andreas Klamt, Michael Diedenhofen            : otool_cosmo (COSMO solvation model)
   Jiri Pittner, Ondrej Demel                    : Mk-CCSD
   Frank Weinhold                                : gennbo (NPA and NBO analysis)
   Christopher J. Cramer and Donald G. Truhlar   : smd solvation model
   Lars Goerigk                                  : TD-DFT with DH, B97 family of functionals
   V. Asgeirsson, H. Jonsson                     : NEB implementation
   FAccTs GmbH                                   : IRC, NEB, NEB-TS, Multilevel, MM, QM/MM, CI optimization
   S Lehtola, MJT Oliveira, MAL Marques          : LibXC Library


 Your calculation uses the libint2 library for the computation of 2-el integrals
 For citations please refer to: http://libint.valeyev.net

 Your ORCA version has been built with support for libXC version: 4.2.3
 For citations please refer to: https://tddft.org/programs/libxc/

 This ORCA versions uses:
   CBLAS   interface :  Fast vector & matrix operations
   LAPACKE interface :  Fast linear algebra routines
   SCALAPACK package :  Parallel linear algebra routines


----- Orbital basis set information -----
Your calculation utilizes the basis: def2-SVP
   F. Weigend and R. Ahlrichs, Phys. Chem. Chem. Phys. 7, 3297 (2005).

----- AuxJ basis set information -----
Your calculation utilizes the auxiliary basis: def2/J
   F. Weigend, Phys. Chem. Chem. Phys. 8, 1057 (2006).

================================================================================
                                        WARNINGS
                       Please study these warnings very carefully!
================================================================================


INFO   : the flag for use of LIBINT has been found!

================================================================================
                                       INPUT FILE
================================================================================
NAME = 46_Pd_atom46.inp
|  1> # input to generate an atomic fitting density for Pd
|  2> # this file is use internally by ORCA
|  3> #
|  4> # atomic ground state (S=3): 1s2 2s2 2p6 3s2 3p6 4s2 3d10 4p6 5s2 4d8 
|  5> #
|  6> ! RHF AllowRHF def2-SVP def2/J  NoMulliken NoLoewdin NoMayer NoPrintMOs 
|  7> 
|  8> %output print[p_atomdensfit] 2 end
|  9> 
| 10> %scf
| 11>   guess hcore
| 12>   maxiter 1000
| 13>   maxdisk 500000
| 14>   SCFMode Conventional
| 15>   lshift 1.000000
| 16>   hftyp rohf
| 17>   rohf_case sahf
| 18>   rohf_numop   2
| 19>   rohf_norb[1] 5
| 20>   rohf_nel[1]  8
| 21> end
| 22> 
| 23> %basis
| 24>   NewECP 46
| 25>     N_core 28
| 26>     lmax f
| 27>     s 4
| 28>       1      12.4300000000    240.2290403000  2
| 29>       2       6.1707594000     35.1719435000  2
| 30>       3      13.2700000000     31.9295543000  2
| 31>       4       6.6300000000      5.3982169000  2
| 32>     p 4
| 33>       1      11.0800000000    170.4172760000  2
| 34>       2       5.8295541000     28.4721329000  2
| 35>       3      13.2700000000     31.9295543000  2
| 36>       4       6.6300000000      5.3982169000  2
| 37>     d 4
| 38>       1       9.5100000000     69.0138449000  2
| 39>       2       4.1397811000     11.7508616000  2
| 40>       3      13.2700000000     31.9295543000  2
| 41>       4       6.6300000000      5.3982169000  2
| 42>     f 2
| 43>       1      13.2700000000    -31.9295543000  2
| 44>       2       6.6300000000     -5.3982169000  2
| 45>   end
| 46>   NewGTO 46
| 47>     s 3 
| 48>      1       8.4756400000      2.1727229431
| 49>      2       7.1657170000     -2.9039633126
| 50>      3       3.1821100000     -0.2310570076
| 51>     s 1 
| 52>      1       1.3973644196      1.0000000000
| 53>     s 1 
| 54>      1       0.6053295587      1.0000000000
| 55>     s 1 
| 56>      1       0.1022951421      1.0000000000
| 57>     s 1 
| 58>      1       0.0373389729      1.0000000000
| 59>     p 4 
| 60>      1       4.2460970000     -0.8346018694
| 61>      2       3.3925940000      0.8828643810
| 62>      3       1.1975891264      0.6438870170
| 63>      4       0.5267375059      0.2760105151
| 64>     p 1 
| 65>      1       0.2060709410      1.0000000000
| 66>     p 1 
| 67>      1       0.0370000000      1.0000000000
| 68>     d 4 
| 69>      1       7.3613290985     -0.0186922795
| 70>      2       2.6291037258      0.2533662423
| 71>      3       1.1292744634      0.4840070353
| 72>      4       0.4447165990      0.4270306822
| 73>     d 1 
| 74>      1       0.1554489384      1.0000000000
| 75>   end
| 76>   NewAuxGTO 46
| 77>     S 1
| 78>      1 1310.72 1.0
| 79>     S 1
| 80>      1  655.36 1.0
| 81>     S 1
| 82>      1  327.68 1.0
| 83>     S 1
| 84>      1  163.84 1.0
| 85>     S 1
| 86>      1   81.82 1.0
| 87>     S 1
| 88>      1   40.96 1.0
| 89>     S 1
| 90>      1   20.48 1.0
| 91>     S 1
| 92>      1   10.24 1.0
| 93>     S 1
| 94>      1    5.12 1.0
| 95>     S 1
| 96>      1    2.56 1.0
| 97>     S 1
| 98>      1    1.28 1.0
| 99>     S 1
|100>      1    0.64 1.0
|101>     S 1
|102>      1    0.32 1.0
|103>     S 1
|104>      1    0.16 1.0
|105>     S 1
|106>      1    0.08 1.0
|107>     S 1
|108>      1    0.04 1.0
|109>     S 1
|110>      1    0.02 1.0
|111>     S 1
|112>      1    0.01 1.0
|113>   end
|114> end
|115> 
|116> * xyz 0 3
|117> 46  0.0 0.0 0.0
|118> *
|119> 
|120> 
|121>                          ****END OF INPUT****
================================================================================

                       ****************************
                       * Single Point Calculation *
                       ****************************

---------------------------------
CARTESIAN COORDINATES (ANGSTROEM)
---------------------------------
  Pd     0.000000    0.000000    0.000000

----------------------------
CARTESIAN COORDINATES (A.U.)
----------------------------
  NO LB      ZA    FRAG     MASS         X           Y           Z
   0 Pd   18.0000*   0   106.400    0.000000    0.000000    0.000000
* core charge reduced due to ECP

--------------------------------
INTERNAL COORDINATES (ANGSTROEM)
--------------------------------
 Pd     0   0   0     0.000000000000     0.00000000     0.00000000

---------------------------
INTERNAL COORDINATES (A.U.)
---------------------------
 Pd     0   0   0     0.000000000000     0.00000000     0.00000000

---------------------
BASIS SET INFORMATION
---------------------
There are 1 groups of distinct atoms

 Group   1 Type Pd  : 7s6p5d contracted to 5s3p2d pattern {31111/411/41}

Atom   0Pd   basis set group =>   1
---------------------------------
AUXILIARY/J BASIS SET INFORMATION
---------------------------------
There are 1 groups of distinct atoms

 Group   1 Type Pd  : 18s contracted to 18s pattern {111111111111111111}

Atom   0Pd   basis set group =>   1
-------------------------
ECP PARAMETER INFORMATION
-------------------------

 Group 1, Type Pd ECP (replacing 28 core electrons, lmax=3)

Atom   0Pd   ECP group =>   1

------------------------------------------------------------------------------
                           ORCA GTO INTEGRAL CALCULATION
------------------------------------------------------------------------------

                         BASIS SET STATISTICS AND STARTUP INFO

 # of primitive gaussian shells          ...   18
 # of primitive gaussian functions       ...   50
 # of contracted shells                  ...   10
 # of contracted basis functions         ...   24
 Highest angular momentum                ...    2
 Maximum contraction depth               ...    4
 Integral package used                   ... LIBINT
 Integral threshhold            Thresh   ...  1.000e-10
 Primitive cut-off              TCut     ...  1.000e-11
 Storage cut-off                TCutStore... -1.000e+00
 Buffer length                           ... 1048576 integrals/buffer
 Generate file with integrals 4 distinct ...false


------------------------------ INTEGRAL EVALUATION ----------------------------


 * One electron integrals 

   ECP integrals                         ... done
 Pre-screening matrix                    ... done
 Shell pair data                         ... done (   0.000 sec)
 Statistics run                          ... done
 Maximum amount of storage needed        ...     0 MB
 Maximum amount of storage dedicated     ... 500000 MB
 Beginning two electron integral evaluation:
 Starting repulsion integrals
  <ss|ss>  ...          120 b.         0 skpd (  0.0%)     0.000 s. (  0.000 ms/b)
  <ss|sp>  ...          225 b.         0 skpd (  0.0%)     0.000 s. (  0.000 ms/b)
  <ss|sd>  ...          150 b.         0 skpd (  0.0%)     0.000 s. (  0.001 ms/b)
  <ss|pp>  ...           90 b.         0 skpd (  0.0%)     0.000 s. (  0.001 ms/b)
  <ss|pd>  ...           90 b.         0 skpd (  0.0%)     0.000 s. (  0.001 ms/b)
  <ss|dd>  ...           45 b.         0 skpd (  0.0%)     0.000 s. (  0.003 ms/b)
  <sp|sp>  ...          120 b.         0 skpd (  0.0%)     0.000 s. (  0.001 ms/b)
  <sp|sd>  ...          150 b.         0 skpd (  0.0%)     0.000 s. (  0.001 ms/b)
  <sp|pp>  ...           90 b.         0 skpd (  0.0%)     0.000 s. (  0.002 ms/b)
  <sp|pd>  ...           90 b.         0 skpd (  0.0%)     0.000 s. (  0.004 ms/b)
  <sp|dd>  ...           45 b.         0 skpd (  0.0%)     0.000 s. (  0.008 ms/b)
  <sd|sd>  ...           55 b.         0 skpd (  0.0%)     0.000 s. (  0.003 ms/b)
  <sd|pp>  ...           60 b.         0 skpd (  0.0%)     0.000 s. (  0.005 ms/b)
  <sd|pd>  ...           60 b.         0 skpd (  0.0%)     0.001 s. (  0.009 ms/b)
  <sd|dd>  ...           30 b.         0 skpd (  0.0%)     0.001 s. (  0.023 ms/b)
  <pp|pp>  ...           21 b.         0 skpd (  0.0%)     0.000 s. (  0.008 ms/b)
  <pp|pd>  ...           36 b.         0 skpd (  0.0%)     0.000 s. (  0.013 ms/b)
  <pp|dd>  ...           18 b.         0 skpd (  0.0%)     0.001 s. (  0.033 ms/b)
  <pd|pd>  ...           21 b.         0 skpd (  0.0%)     0.001 s. (  0.037 ms/b)
  <pd|dd>  ...           18 b.         0 skpd (  0.0%)     0.001 s. (  0.079 ms/b)
  <dd|dd>  ...            6 b.         0 skpd (  0.0%)     0.002 s. (  0.268 ms/b)


                                      INTEGRAL STATISTICS

Integral type statistics:
 Number of integrals retained            ...      45150 
 One   Center Integrals retained         ...      45150 (100.0%)
 Two   Center Integrals retained         ...          0 (  0.0%)
 Three Center Integrals retained         ...          0 (  0.0%)
 Four  Center Integrals retained         ...          0 (  0.0%)

Storage statistics:
 Number of char integrals                ...          0 (  0.0%)
 Number of short int integrals           ...          0 (  0.0%)
 Number of double/float integrals        ...      45150 (100.0%)
 Amount of memory used                   ...          0 MB
 Amount of memory estimated              ...          0 MB ( 92.6%)

Prescreening statistics:
 Total number of shell quadruples        ...       1540 
 Number of skipped shell quadruples      ...          0 (  0.0%)
 # of negligible batches done            ...          0 (  0.0%)

Timings:
 Total evaluation time               ...     0.165 sec (   0.003 min)
 One electron matrix time            ...     0.013 sec (   0.000 min) =  7.9%
 Schwartz matrix evaluation time     ...     0.072 sec (   0.001 min) = 43.5%
 Statistics run                      ...     0.000 sec (   0.000 min) =  0.2%
 Repulsion integral time             ...     0.008 sec (   0.000 min) =  5.1%

-------------------------------------------------------------------------------
                                 ORCA SCF
-------------------------------------------------------------------------------

------------
SCF SETTINGS
------------
Hamiltonian:
 Ab initio Hamiltonian  Method          .... Hartree-Fock(GTOs)


General Settings:
 Integral files         IntName         .... 46_Pd_atom46
 Hartree-Fock type      HFTyp           .... ROHF
 Total Charge           Charge          ....    0
 Multiplicity           Mult            ....    3
 Number of Electrons    NEL             ....   18
 Basis Dimension        Dim             ....   24
 Nuclear Repulsion      ENuc            ....      0.0000000000 Eh

Convergence Acceleration:
 DIIS                   CNVDIIS         .... on
   Start iteration      DIISMaxIt       ....    12
   Startup error        DIISStart       ....  0.200000
   # of expansion vecs  DIISMaxEq       ....     5
   Bias factor          DIISBfac        ....   1.050
   Max. coefficient     DIISMaxC        ....  10.000
 Newton-Raphson         CNVNR           .... off
 SOSCF                  CNVSOSCF        .... off
 Level Shifting         CNVShift        .... on
   Level shift para.    LevelShift      ....    1.0000
   Turn off err/grad.   ShiftErr        ....    0.0010
 Zerner damping         CNVZerner       .... off
 Static damping         CNVDamp         .... on
   Fraction old density DampFac         ....    0.7000
   Max. Damping (<1)    DampMax         ....    0.9800
   Min. Damping (>=0)   DampMin         ....    0.0000
   Turn off err/grad.   DampErr         ....    0.1000
 Fernandez-Rico         CNVRico         .... off

SCF Procedure:
 Maximum # iterations   MaxIter         ....  1000
 SCF integral mode      SCFMode         .... Conventional
 Integral Threshold     Thresh          ....  1.000e-10 Eh
 Primitive CutOff       TCut            ....  1.000e-11 Eh
 Integral Buffer length BufferLength    .... 1048576
 Integral index format  IndFormat       ....     0
 Integral value format  ValFormat       ....     0
 Integral Storage       Thresh          ....  1.000e-10 Eh

Convergence Tolerance:
 Convergence Check Mode ConvCheckMode   .... Total+1el-Energy
 Convergence forced     ConvForced      .... 0
 Energy Change          TolE            ....  1.000e-06 Eh
 1-El. energy change                    ....  1.000e-03 Eh
 DIIS Error             TolErr          ....  1.000e-06


Diagonalization of the overlap matrix:
Smallest eigenvalue                        ... 2.921e-02
Time for diagonalization                   ...    0.000 sec
Threshold for overlap eigenvalues          ... 1.000e-08
Number of eigenvalues below threshold      ... 0
Time for construction of square roots      ...    0.002 sec
Total time needed                          ...    0.002 sec

--------------------
INITIAL GUESS: HCORE
--------------------
AVERAGE-CONFIGURATION (SAHF) CASE FOUND

-------------------
FINAL ROHF SETTINGS
-------------------
Number of operators             ... 2
  operator   0:   5 orbitals  10 electrons n(mue)= 2.000
  operator   1:   5 orbitals   8 electrons n(mue)= 1.600
Vector coupling coefficients a and b (Zerner convention):
   1.000    1.000           1.000    1.000 
   1.000    0.977           1.000    1.016 

                      -----------------
                      INTIAL GUESS DONE 
                      -----------------

 InCore treatment chosen:
   Memory dedicated               ...    1024 MB
   Memory needed                  ...      0 MB
   Number of tiny    integrals    ...       0
   Number of small   integrals    ...       0
   Number of regular integrals    ...   45150

--------------
SCF ITERATIONS
--------------
ITER       Energy         Delta-E        Max-DP      RMS-DP      [F,P]     Damp
  0   -122.7894688484   0.000000000000 2.11104360  0.10229152  0.8253990 0.7000
  1   -124.9755183582  -2.186049509763 1.73027119  0.08160242  0.6338396 0.7000
  2   -125.8046749894  -0.829156631264 1.28940343  0.05981295  0.2179178 0.7000
                            ****Activating DIIS****
  3   -126.1889065359  -0.384231546441 3.09909050  0.14186345  0.0943567 0.0000
  4   -126.8605467165  -0.671640180577 0.06084309  0.00477825  0.0753071 0.0000
  5   -126.8959948662  -0.035448149704 0.02364183  0.00225428  0.0616839 0.0000
  6   -126.9073847883  -0.011389922171 0.07280507  0.00493858  0.0538352 0.0000
  7   -126.9147589647  -0.007374176395 0.09228209  0.00414523  0.0380353 0.0000
  8   -126.9199570425  -0.005198077740 0.08104441  0.00321723  0.0241906 0.0000
  9   -126.9250189591  -0.005061916657 0.03955772  0.00147915  0.0132465 0.0000
 10   -126.9253905854  -0.000371626305 0.01747271  0.00098102  0.0090167 0.0000
 11   -126.9255624206  -0.000171835125 0.00349745  0.00020609  0.0028814 0.0000
 12   -126.9255849917  -0.000022571142 0.00340586  0.00015321  0.0019210 0.0000
 13   -126.9255983848  -0.000013393091 0.00284269  0.00011202  0.0007595 0.0000
 14   -126.9256016471  -0.000003262330 0.00136046  0.00005294  0.0003854 0.0000
                 **** Energy Check signals convergence ****

               *****************************************************
               *                     SUCCESS                       *
               *           SCF CONVERGED AFTER  15 CYCLES          *
               *****************************************************


----------------
TOTAL SCF ENERGY
----------------

Total Energy       :         -126.92560221 Eh           -3453.82122 eV

Components:
Nuclear Repulsion  :            0.00000000 Eh               0.00000 eV
Electronic Energy  :         -126.92560221 Eh           -3453.82122 eV
One Electron Energy:         -224.51857048 Eh           -6109.46090 eV
Two Electron Energy:           97.59296827 Eh            2655.63968 eV

Virial components:
Potential Energy   :         -174.74305194 Eh           -4755.00018 eV
Kinetic Energy     :           47.81744973 Eh            1301.17896 eV
Virial Ratio       :            3.65437833


---------------
SCF CONVERGENCE
---------------

  Last Energy change         ...   -5.6218e-07  Tolerance :   1.0000e-06
  Last MAX-Density change    ...    7.9170e-04  Tolerance :   1.0000e-05
  Last RMS-Density change    ...    2.9815e-05  Tolerance :   1.0000e-06
  Last DIIS Error            ...    1.8287e-04  Tolerance :   1.0000e-06

             **** THE GBW FILE WAS UPDATED (46_Pd_atom46.gbw) ****
             **** DENSITY FILE WAS UPDATED (46_Pd_atom46.scfp) ****
             **** ENERGY FILE WAS UPDATED (46_Pd_atom46.en.tmp) ****
             **** THE GBW FILE WAS UPDATED (46_Pd_atom46.gbw) ****
             **** DENSITY FILE WAS UPDATED (46_Pd_atom46.scfp) ****
----------------
ORBITAL ENERGIES
----------------

  NO   OCC          E(Eh)            E(eV) 
   0   2.0000      -4.146919      -112.8434 
   1   2.0000      -2.671172       -72.6863 
   2   2.0000      -2.668722       -72.6196 
   3   2.0000      -2.665736       -72.5384 
   4   2.0000      -0.540828       -14.7167 
   5   1.6000      -0.557822       -15.1791 
   6   1.6000      -0.556820       -15.1519 
   7   1.6000      -0.548047       -14.9131 
   8   1.6000      -0.540817       -14.7164 
   9   1.6000      -0.263421        -7.1680 
  10   0.0000       0.009250         0.2517 
  11   0.0000       0.010382         0.2825 
  12   0.0000       0.011748         0.3197 
  13   0.0000       0.127554         3.4709 
  14   0.0000       0.391012        10.6400 
  15   0.0000       0.394897        10.7457 
  16   0.0000       0.399628        10.8744 
  17   0.0000       0.463429        12.6105 
  18   0.0000       0.463726        12.6186 
  19   0.0000       0.464981        12.6528 
  20   0.0000       0.466507        12.6943 
  21   0.0000       0.468799        12.7567 
  22   0.0000       2.102739        57.2184 
  23   0.0000      51.390344      1398.4024 
CleanUpVectors: The p-vectors have cracked symmetry
CleanUpVectors: The p-vectors have cracked symmetry
CleanUpVectors: The p-vectors have cracked symmetry
CleanUpVectors: The d-vectors have cracked symmetry at i=4
CleanUpVectors: The d-vectors have cracked symmetry at i=5
CleanUpVectors: The d-vectors have cracked symmetry at i=6
CleanUpVectors: The d-vectors have cracked symmetry at i=7
CleanUpVectors: The d-vectors have cracked symmetry at i=8
CleanUpVectors: The p-vectors have cracked symmetry
CleanUpVectors: The p-vectors have cracked symmetry
CleanUpVectors: The p-vectors have cracked symmetry
CleanUpVectors: The p-vectors have cracked symmetry
CleanUpVectors: The p-vectors have cracked symmetry
CleanUpVectors: The p-vectors have cracked symmetry
CleanUpVectors: The d-vectors have cracked symmetry at i=17
CleanUpVectors: The d-vectors have cracked symmetry at i=18
CleanUpVectors: The d-vectors have cracked symmetry at i=19
--------------------------
ATOM BASIS FOR ELEMENT Pd
--------------------------
 NewGTO Pd
 S 7
    1          8.475640000000        -1.245338587723
    2          7.165717000000         1.664463286494
    3          3.182110000000         0.132434836407
    4          1.397364419600        -0.890325850064
    5          0.605329558700        -0.463915967355
    6          0.102295142100        -0.012898366265
    7          0.037338972900        -0.000250243818
 P 18
    1          4.246097000000        -0.108337593225
    2          3.392594000000         0.114602429839
    3          1.197589126400         0.083581372494
    4          0.526737505900         0.035828238597
    5          4.246097000000         0.819799127984
    6          3.392594000000        -0.867205641646
    7          1.197589126400        -0.632466849656
    8          0.526737505900        -0.271115112354
    9          4.246097000000         0.014594253286
   10          3.392594000000        -0.015438194984
   11          1.197589126400        -0.011259320831
   12          0.526737505900        -0.004826453803
   13          0.206070941000         0.002225924106
   14          0.206070941000        -0.016843743590
   15          0.206070941000        -0.000299856211
   16          0.037000000000         0.000181315189
   17          0.037000000000        -0.001372026363
   18          0.037000000000        -0.000024425130
 D 18
    1          8.475640000000         0.000104657549
    2          7.165717000000        -0.000165451301
    3          3.182110000000        -0.000029644400
    4          1.397364419600         0.000722903848
    5          0.605329558700        -0.000597495152
    6          0.102295142100        -0.002163794677
    7          0.037338972900         0.016534655075
    8          7.361329098500        -0.016635825623
    9          2.629103725800         0.225491846818
   10          1.129274463400         0.430758412297
   11          0.444716599000         0.380050382021
   12          7.361329098500        -0.003321468907
   13          2.629103725800         0.045021159458
   14          1.129274463400         0.086004187919
   15          0.444716599000         0.075879944630
   16          7.361329098500         0.001090048690
   17          2.629103725800        -0.014775166426
   18          1.129274463400        -0.028225088051
 D 18
    1          7.361329098500         0.003943478903
    2          2.629103725800        -0.053452251843
    3          1.129274463400        -0.102110153704
    4          0.444716599000        -0.090089947905
    5          7.361329098500        -0.016926293180
    6          2.629103725800         0.229429016355
    7          1.129274463400         0.438279610614
    8          0.444716599000         0.386686199714
    9          7.361329098500        -0.000380663982
   10          2.629103725800         0.005159745379
   11          1.129274463400         0.009856692197
   12          0.444716599000         0.008696381842
   13          7.361329098500        -0.002296694627
   14          2.629103725800         0.031130761090
   15          1.129274463400         0.059469277536
   16          0.444716599000         0.052468671536
   17          7.361329098500         0.000518940614
   18          2.629103725800        -0.007034028852
 P 18
    1          4.246097000000        -0.069296087327
    2          3.392594000000         0.073303271280
    3          1.197589126400         0.053461240137
    4          0.526737505900         0.022916853483
    5          4.246097000000         0.524368968082
    6          3.392594000000        -0.554691645675
    7          1.197589126400        -0.404545428239
    8          0.526737505900        -0.173413641029
    9          4.246097000000         0.009334937395
   10          3.392594000000        -0.009874748700
   11          1.197589126400        -0.007201811084
   12          0.526737505900        -0.003087149662
   13          0.206070941000        -0.171502693903
   14          0.206070941000         1.297774435676
   15          0.206070941000         0.023103280033
   16          0.037000000000         0.076248693638
   17          0.037000000000        -0.576979889384
   18          0.037000000000        -0.010271529159
 D 18
    1          8.475640000000         0.000108548541
    2          7.165717000000        -0.000171602502
    3          3.182110000000        -0.000030746529
    4          1.397364419600         0.000665637266
    5          0.605329558700         0.000463771854
    6          0.102295142100        -0.018583681714
    7          0.037338972900         0.019483888232
    8          7.361329098500        -0.001733985988
    9          2.629103725800         0.023503474463
   10          1.129274463400         0.044898826658
   11          0.444716599000         0.039613425383
   12          7.361329098500        -0.001734795713
   13          2.629103725800         0.023514449968
   14          1.129274463400         0.044919793230
   15          0.444716599000         0.039631923812
   16          7.361329098500        -0.000260492431
   17          2.629103725800         0.003530868906
   18          1.129274463400         0.006745039812
 S 18
    1          8.475640000000        -2.080687128850
    2          7.165717000000         2.780952401855
    3          3.182110000000         0.221269510349
    4          1.397364419600        -3.650884058692
    5          0.605329558700         3.463811204235
    6          0.102295142100        -1.412268307607
    7          0.037338972900         0.624775113068
    8          7.361329098500        -0.000597997263
    9          2.629103725800         0.002894924000
   10          1.129274463400         0.002375373339
   11          0.444716599000         0.000825321418
   12          7.361329098500        -0.000190896704
   13          2.629103725800         0.000924137091
   14          1.129274463400         0.000758282638
   15          0.444716599000         0.000263464649
   16          7.361329098500         0.000019919415
   17          2.629103725800        -0.000096430527
   18          1.129274463400        -0.000079124185
 S 18
    1          8.475640000000        -3.743920169877
    2          7.165717000000         5.003954532331
    3          3.182110000000         0.398145098938
    4          1.397364419600        -1.621569321108
    5          0.605329558700         0.877735149411
    6          0.102295142100        -0.232110057695
    7          0.037338972900         0.102742542792
    8          7.361329098500         0.000007918976
    9          2.629103725800        -0.000038336019
   10          1.129274463400        -0.000031455871
   11          0.444716599000        -0.000010929315
   12          7.361329098500         0.000002503367
   13          2.629103725800        -0.000012118881
   14          1.129274463400        -0.000009943911
   15          0.444716599000        -0.000003455003
   16          7.361329098500        -0.000000270405
   17          2.629103725800         0.000001309042
   18          1.129274463400         0.000001074109
 end
  // -----------------------------------------------
  // The basis set
  // -----------------------------------------------
  BAS[ATNO] = new BFNGauss[NSH];
  // Basis function   1 L = s
  InitBFNGauss(BAS[ATNO][  0]);
  BAS[ATNO][  0].l  = 0;
  BAS[ATNO][  0].ng = 7;
  BAS[ATNO][  0].a[  0] =         8.475640000000;     BAS[ATNO][  0].d[  0] =        -1.245338587723;
  BAS[ATNO][  0].a[  1] =         7.165717000000;     BAS[ATNO][  0].d[  1] =         1.664463286494;
  BAS[ATNO][  0].a[  2] =         3.182110000000;     BAS[ATNO][  0].d[  2] =         0.132434836407;
  BAS[ATNO][  0].a[  3] =         1.397364419600;     BAS[ATNO][  0].d[  3] =        -0.890325850064;
  BAS[ATNO][  0].a[  4] =         0.605329558700;     BAS[ATNO][  0].d[  4] =        -0.463915967355;
  BAS[ATNO][  0].a[  5] =         0.102295142100;     BAS[ATNO][  0].d[  5] =        -0.012898366265;
  BAS[ATNO][  0].a[  6] =         0.037338972900;     BAS[ATNO][  0].d[  6] =        -0.000250243818;

  // Basis function   2 L = p
  InitBFNGauss(BAS[ATNO][  1]);
  BAS[ATNO][  1].l  = 1;
  BAS[ATNO][  1].ng = 18;
  BAS[ATNO][  1].a[  0] =         4.246097000000;     BAS[ATNO][  1].d[  0] =         0.108337593225;
  BAS[ATNO][  1].a[  1] =         3.392594000000;     BAS[ATNO][  1].d[  1] =        -0.114602429839;
  BAS[ATNO][  1].a[  2] =         1.197589126400;     BAS[ATNO][  1].d[  2] =        -0.083581372494;
  BAS[ATNO][  1].a[  3] =         0.526737505900;     BAS[ATNO][  1].d[  3] =        -0.035828238597;
  BAS[ATNO][  1].a[  4] =         4.246097000000;     BAS[ATNO][  1].d[  4] =        -0.819799127984;
  BAS[ATNO][  1].a[  5] =         3.392594000000;     BAS[ATNO][  1].d[  5] =         0.867205641646;
  BAS[ATNO][  1].a[  6] =         1.197589126400;     BAS[ATNO][  1].d[  6] =         0.632466849656;
  BAS[ATNO][  1].a[  7] =         0.526737505900;     BAS[ATNO][  1].d[  7] =         0.271115112354;
  BAS[ATNO][  1].a[  8] =         4.246097000000;     BAS[ATNO][  1].d[  8] =        -0.014594253286;
  BAS[ATNO][  1].a[  9] =         3.392594000000;     BAS[ATNO][  1].d[  9] =         0.015438194984;
  BAS[ATNO][  1].a[ 10] =         1.197589126400;     BAS[ATNO][  1].d[ 10] =         0.011259320831;
  BAS[ATNO][  1].a[ 11] =         0.526737505900;     BAS[ATNO][  1].d[ 11] =         0.004826453803;
  BAS[ATNO][  1].a[ 12] =         0.206070941000;     BAS[ATNO][  1].d[ 12] =        -0.002225924106;
  BAS[ATNO][  1].a[ 13] =         0.206070941000;     BAS[ATNO][  1].d[ 13] =         0.016843743590;
  BAS[ATNO][  1].a[ 14] =         0.206070941000;     BAS[ATNO][  1].d[ 14] =         0.000299856211;
  BAS[ATNO][  1].a[ 15] =         0.037000000000;     BAS[ATNO][  1].d[ 15] =        -0.000181315189;
  BAS[ATNO][  1].a[ 16] =         0.037000000000;     BAS[ATNO][  1].d[ 16] =         0.001372026363;
  BAS[ATNO][  1].a[ 17] =         0.037000000000;     BAS[ATNO][  1].d[ 17] =         0.000024425130;

  // Basis function   3 L = d
  InitBFNGauss(BAS[ATNO][  2]);
  BAS[ATNO][  2].l  = 2;
  BAS[ATNO][  2].ng = 18;
  BAS[ATNO][  2].a[  0] =         8.475640000000;     BAS[ATNO][  2].d[  0] =         0.000104657549;
  BAS[ATNO][  2].a[  1] =         7.165717000000;     BAS[ATNO][  2].d[  1] =        -0.000165451301;
  BAS[ATNO][  2].a[  2] =         3.182110000000;     BAS[ATNO][  2].d[  2] =        -0.000029644400;
  BAS[ATNO][  2].a[  3] =         1.397364419600;     BAS[ATNO][  2].d[  3] =         0.000722903848;
  BAS[ATNO][  2].a[  4] =         0.605329558700;     BAS[ATNO][  2].d[  4] =        -0.000597495152;
  BAS[ATNO][  2].a[  5] =         0.102295142100;     BAS[ATNO][  2].d[  5] =        -0.002163794677;
  BAS[ATNO][  2].a[  6] =         0.037338972900;     BAS[ATNO][  2].d[  6] =         0.016534655075;
  BAS[ATNO][  2].a[  7] =         7.361329098500;     BAS[ATNO][  2].d[  7] =        -0.016635825623;
  BAS[ATNO][  2].a[  8] =         2.629103725800;     BAS[ATNO][  2].d[  8] =         0.225491846818;
  BAS[ATNO][  2].a[  9] =         1.129274463400;     BAS[ATNO][  2].d[  9] =         0.430758412297;
  BAS[ATNO][  2].a[ 10] =         0.444716599000;     BAS[ATNO][  2].d[ 10] =         0.380050382021;
  BAS[ATNO][  2].a[ 11] =         7.361329098500;     BAS[ATNO][  2].d[ 11] =        -0.003321468907;
  BAS[ATNO][  2].a[ 12] =         2.629103725800;     BAS[ATNO][  2].d[ 12] =         0.045021159458;
  BAS[ATNO][  2].a[ 13] =         1.129274463400;     BAS[ATNO][  2].d[ 13] =         0.086004187919;
  BAS[ATNO][  2].a[ 14] =         0.444716599000;     BAS[ATNO][  2].d[ 14] =         0.075879944630;
  BAS[ATNO][  2].a[ 15] =         7.361329098500;     BAS[ATNO][  2].d[ 15] =         0.001090048690;
  BAS[ATNO][  2].a[ 16] =         2.629103725800;     BAS[ATNO][  2].d[ 16] =        -0.014775166426;
  BAS[ATNO][  2].a[ 17] =         1.129274463400;     BAS[ATNO][  2].d[ 17] =        -0.028225088051;

  // Basis function   4 L = d
  InitBFNGauss(BAS[ATNO][  3]);
  BAS[ATNO][  3].l  = 2;
  BAS[ATNO][  3].ng = 18;
  BAS[ATNO][  3].a[  0] =         7.361329098500;     BAS[ATNO][  3].d[  0] =         0.003943478903;
  BAS[ATNO][  3].a[  1] =         2.629103725800;     BAS[ATNO][  3].d[  1] =        -0.053452251843;
  BAS[ATNO][  3].a[  2] =         1.129274463400;     BAS[ATNO][  3].d[  2] =        -0.102110153704;
  BAS[ATNO][  3].a[  3] =         0.444716599000;     BAS[ATNO][  3].d[  3] =        -0.090089947905;
  BAS[ATNO][  3].a[  4] =         7.361329098500;     BAS[ATNO][  3].d[  4] =        -0.016926293180;
  BAS[ATNO][  3].a[  5] =         2.629103725800;     BAS[ATNO][  3].d[  5] =         0.229429016355;
  BAS[ATNO][  3].a[  6] =         1.129274463400;     BAS[ATNO][  3].d[  6] =         0.438279610614;
  BAS[ATNO][  3].a[  7] =         0.444716599000;     BAS[ATNO][  3].d[  7] =         0.386686199714;
  BAS[ATNO][  3].a[  8] =         7.361329098500;     BAS[ATNO][  3].d[  8] =        -0.000380663982;
  BAS[ATNO][  3].a[  9] =         2.629103725800;     BAS[ATNO][  3].d[  9] =         0.005159745379;
  BAS[ATNO][  3].a[ 10] =         1.129274463400;     BAS[ATNO][  3].d[ 10] =         0.009856692197;
  BAS[ATNO][  3].a[ 11] =         0.444716599000;     BAS[ATNO][  3].d[ 11] =         0.008696381842;
  BAS[ATNO][  3].a[ 12] =         7.361329098500;     BAS[ATNO][  3].d[ 12] =        -0.002296694627;
  BAS[ATNO][  3].a[ 13] =         2.629103725800;     BAS[ATNO][  3].d[ 13] =         0.031130761090;
  BAS[ATNO][  3].a[ 14] =         1.129274463400;     BAS[ATNO][  3].d[ 14] =         0.059469277536;
  BAS[ATNO][  3].a[ 15] =         0.444716599000;     BAS[ATNO][  3].d[ 15] =         0.052468671536;
  BAS[ATNO][  3].a[ 16] =         7.361329098500;     BAS[ATNO][  3].d[ 16] =         0.000518940614;
  BAS[ATNO][  3].a[ 17] =         2.629103725800;     BAS[ATNO][  3].d[ 17] =        -0.007034028852;

  // Basis function   5 L = p
  InitBFNGauss(BAS[ATNO][  4]);
  BAS[ATNO][  4].l  = 1;
  BAS[ATNO][  4].ng = 18;
  BAS[ATNO][  4].a[  0] =         4.246097000000;     BAS[ATNO][  4].d[  0] =        -0.069296087327;
  BAS[ATNO][  4].a[  1] =         3.392594000000;     BAS[ATNO][  4].d[  1] =         0.073303271280;
  BAS[ATNO][  4].a[  2] =         1.197589126400;     BAS[ATNO][  4].d[  2] =         0.053461240137;
  BAS[ATNO][  4].a[  3] =         0.526737505900;     BAS[ATNO][  4].d[  3] =         0.022916853483;
  BAS[ATNO][  4].a[  4] =         4.246097000000;     BAS[ATNO][  4].d[  4] =         0.524368968082;
  BAS[ATNO][  4].a[  5] =         3.392594000000;     BAS[ATNO][  4].d[  5] =        -0.554691645675;
  BAS[ATNO][  4].a[  6] =         1.197589126400;     BAS[ATNO][  4].d[  6] =        -0.404545428239;
  BAS[ATNO][  4].a[  7] =         0.526737505900;     BAS[ATNO][  4].d[  7] =        -0.173413641029;
  BAS[ATNO][  4].a[  8] =         4.246097000000;     BAS[ATNO][  4].d[  8] =         0.009334937395;
  BAS[ATNO][  4].a[  9] =         3.392594000000;     BAS[ATNO][  4].d[  9] =        -0.009874748700;
  BAS[ATNO][  4].a[ 10] =         1.197589126400;     BAS[ATNO][  4].d[ 10] =        -0.007201811084;
  BAS[ATNO][  4].a[ 11] =         0.526737505900;     BAS[ATNO][  4].d[ 11] =        -0.003087149662;
  BAS[ATNO][  4].a[ 12] =         0.206070941000;     BAS[ATNO][  4].d[ 12] =        -0.171502693903;
  BAS[ATNO][  4].a[ 13] =         0.206070941000;     BAS[ATNO][  4].d[ 13] =         1.297774435676;
  BAS[ATNO][  4].a[ 14] =         0.206070941000;     BAS[ATNO][  4].d[ 14] =         0.023103280033;
  BAS[ATNO][  4].a[ 15] =         0.037000000000;     BAS[ATNO][  4].d[ 15] =         0.076248693638;
  BAS[ATNO][  4].a[ 16] =         0.037000000000;     BAS[ATNO][  4].d[ 16] =        -0.576979889384;
  BAS[ATNO][  4].a[ 17] =         0.037000000000;     BAS[ATNO][  4].d[ 17] =        -0.010271529159;

  // Basis function   6 L = d
  InitBFNGauss(BAS[ATNO][  5]);
  BAS[ATNO][  5].l  = 2;
  BAS[ATNO][  5].ng = 18;
  BAS[ATNO][  5].a[  0] =         8.475640000000;     BAS[ATNO][  5].d[  0] =         0.000108548541;
  BAS[ATNO][  5].a[  1] =         7.165717000000;     BAS[ATNO][  5].d[  1] =        -0.000171602502;
  BAS[ATNO][  5].a[  2] =         3.182110000000;     BAS[ATNO][  5].d[  2] =        -0.000030746529;
  BAS[ATNO][  5].a[  3] =         1.397364419600;     BAS[ATNO][  5].d[  3] =         0.000665637266;
  BAS[ATNO][  5].a[  4] =         0.605329558700;     BAS[ATNO][  5].d[  4] =         0.000463771854;
  BAS[ATNO][  5].a[  5] =         0.102295142100;     BAS[ATNO][  5].d[  5] =        -0.018583681714;
  BAS[ATNO][  5].a[  6] =         0.037338972900;     BAS[ATNO][  5].d[  6] =         0.019483888232;
  BAS[ATNO][  5].a[  7] =         7.361329098500;     BAS[ATNO][  5].d[  7] =        -0.001733985988;
  BAS[ATNO][  5].a[  8] =         2.629103725800;     BAS[ATNO][  5].d[  8] =         0.023503474463;
  BAS[ATNO][  5].a[  9] =         1.129274463400;     BAS[ATNO][  5].d[  9] =         0.044898826658;
  BAS[ATNO][  5].a[ 10] =         0.444716599000;     BAS[ATNO][  5].d[ 10] =         0.039613425383;
  BAS[ATNO][  5].a[ 11] =         7.361329098500;     BAS[ATNO][  5].d[ 11] =        -0.001734795713;
  BAS[ATNO][  5].a[ 12] =         2.629103725800;     BAS[ATNO][  5].d[ 12] =         0.023514449968;
  BAS[ATNO][  5].a[ 13] =         1.129274463400;     BAS[ATNO][  5].d[ 13] =         0.044919793230;
  BAS[ATNO][  5].a[ 14] =         0.444716599000;     BAS[ATNO][  5].d[ 14] =         0.039631923812;
  BAS[ATNO][  5].a[ 15] =         7.361329098500;     BAS[ATNO][  5].d[ 15] =        -0.000260492431;
  BAS[ATNO][  5].a[ 16] =         2.629103725800;     BAS[ATNO][  5].d[ 16] =         0.003530868906;
  BAS[ATNO][  5].a[ 17] =         1.129274463400;     BAS[ATNO][  5].d[ 17] =         0.006745039812;

  // Basis function   7 L = s
  InitBFNGauss(BAS[ATNO][  6]);
  BAS[ATNO][  6].l  = 0;
  BAS[ATNO][  6].ng = 18;
  BAS[ATNO][  6].a[  0] =         8.475640000000;     BAS[ATNO][  6].d[  0] =         2.080687128850;
  BAS[ATNO][  6].a[  1] =         7.165717000000;     BAS[ATNO][  6].d[  1] =        -2.780952401855;
  BAS[ATNO][  6].a[  2] =         3.182110000000;     BAS[ATNO][  6].d[  2] =        -0.221269510349;
  BAS[ATNO][  6].a[  3] =         1.397364419600;     BAS[ATNO][  6].d[  3] =         3.650884058692;
  BAS[ATNO][  6].a[  4] =         0.605329558700;     BAS[ATNO][  6].d[  4] =        -3.463811204235;
  BAS[ATNO][  6].a[  5] =         0.102295142100;     BAS[ATNO][  6].d[  5] =         1.412268307607;
  BAS[ATNO][  6].a[  6] =         0.037338972900;     BAS[ATNO][  6].d[  6] =        -0.624775113068;
  BAS[ATNO][  6].a[  7] =         7.361329098500;     BAS[ATNO][  6].d[  7] =         0.000597997263;
  BAS[ATNO][  6].a[  8] =         2.629103725800;     BAS[ATNO][  6].d[  8] =        -0.002894924000;
  BAS[ATNO][  6].a[  9] =         1.129274463400;     BAS[ATNO][  6].d[  9] =        -0.002375373339;
  BAS[ATNO][  6].a[ 10] =         0.444716599000;     BAS[ATNO][  6].d[ 10] =        -0.000825321418;
  BAS[ATNO][  6].a[ 11] =         7.361329098500;     BAS[ATNO][  6].d[ 11] =         0.000190896704;
  BAS[ATNO][  6].a[ 12] =         2.629103725800;     BAS[ATNO][  6].d[ 12] =        -0.000924137091;
  BAS[ATNO][  6].a[ 13] =         1.129274463400;     BAS[ATNO][  6].d[ 13] =        -0.000758282638;
  BAS[ATNO][  6].a[ 14] =         0.444716599000;     BAS[ATNO][  6].d[ 14] =        -0.000263464649;
  BAS[ATNO][  6].a[ 15] =         7.361329098500;     BAS[ATNO][  6].d[ 15] =        -0.000019919415;
  BAS[ATNO][  6].a[ 16] =         2.629103725800;     BAS[ATNO][  6].d[ 16] =         0.000096430527;
  BAS[ATNO][  6].a[ 17] =         1.129274463400;     BAS[ATNO][  6].d[ 17] =         0.000079124185;

  // Basis function   8 L = s
  InitBFNGauss(BAS[ATNO][  7]);
  BAS[ATNO][  7].l  = 0;
  BAS[ATNO][  7].ng = 18;
  BAS[ATNO][  7].a[  0] =         8.475640000000;     BAS[ATNO][  7].d[  0] =        -3.743920169877;
  BAS[ATNO][  7].a[  1] =         7.165717000000;     BAS[ATNO][  7].d[  1] =         5.003954532331;
  BAS[ATNO][  7].a[  2] =         3.182110000000;     BAS[ATNO][  7].d[  2] =         0.398145098938;
  BAS[ATNO][  7].a[  3] =         1.397364419600;     BAS[ATNO][  7].d[  3] =        -1.621569321108;
  BAS[ATNO][  7].a[  4] =         0.605329558700;     BAS[ATNO][  7].d[  4] =         0.877735149411;
  BAS[ATNO][  7].a[  5] =         0.102295142100;     BAS[ATNO][  7].d[  5] =        -0.232110057695;
  BAS[ATNO][  7].a[  6] =         0.037338972900;     BAS[ATNO][  7].d[  6] =         0.102742542792;
  BAS[ATNO][  7].a[  7] =         7.361329098500;     BAS[ATNO][  7].d[  7] =         0.000007918976;
  BAS[ATNO][  7].a[  8] =         2.629103725800;     BAS[ATNO][  7].d[  8] =        -0.000038336019;
  BAS[ATNO][  7].a[  9] =         1.129274463400;     BAS[ATNO][  7].d[  9] =        -0.000031455871;
  BAS[ATNO][  7].a[ 10] =         0.444716599000;     BAS[ATNO][  7].d[ 10] =        -0.000010929315;
  BAS[ATNO][  7].a[ 11] =         7.361329098500;     BAS[ATNO][  7].d[ 11] =         0.000002503367;
  BAS[ATNO][  7].a[ 12] =         2.629103725800;     BAS[ATNO][  7].d[ 12] =        -0.000012118881;
  BAS[ATNO][  7].a[ 13] =         1.129274463400;     BAS[ATNO][  7].d[ 13] =        -0.000009943911;
  BAS[ATNO][  7].a[ 14] =         0.444716599000;     BAS[ATNO][  7].d[ 14] =        -0.000003455003;
  BAS[ATNO][  7].a[ 15] =         7.361329098500;     BAS[ATNO][  7].d[ 15] =        -0.000000270405;
  BAS[ATNO][  7].a[ 16] =         2.629103725800;     BAS[ATNO][  7].d[ 16] =         0.000001309042;
  BAS[ATNO][  7].a[ 17] =         1.129274463400;     BAS[ATNO][  7].d[ 17] =         0.000001074109;

-------------------------------------------
RADIAL EXPECTATION VALUES <R**-3> TO <R**3>
-------------------------------------------
   0 :     0.000000     1.426036     1.136513     0.969392     1.035218     1.218879
   1 :     1.621485     1.232505     1.050365     1.061859     1.256872     1.657916
   2 :     1.620786     1.232071     1.050137     1.062220     1.257953     1.660621
   3 :     1.619931     1.231539     1.049857     1.062663     1.259282     1.663953
   4 :     0.990578     0.829575     0.833482     1.433441     2.456654    25.105253
   5 :     0.000000     0.188792     0.370329     3.269477    12.363060    53.298152
   6 :     0.000000     0.104795     0.250559     5.319543    32.763397   219.084608
   7 :     0.994748     0.832466     0.835318     1.428322     2.434807    24.703054
   8 :     0.994496     0.832288     0.835206     1.428633     2.436128    24.728462
   9 :     0.992021     0.830572     0.834116     1.431664     2.449043    24.966050
  10 :     0.989939     0.829127     0.833198     1.434225     2.459968    25.167347
  11 :     0.030007     0.061235     0.216327     5.378851    32.314059   212.326837
  12 :     0.029703     0.060883     0.215857     5.385822    32.380626   212.857439
  13 :     0.029344     0.060466     0.215299     5.394110    32.459823   213.488966
  14 :     0.271389     0.281220     0.440254     3.150086    13.645380    77.406849
  15 :     0.272392     0.282007     0.440953     3.142754    13.577732    76.873541
  16 :     0.273606     0.282956     0.441790     3.134023    13.497206    76.238683
  17 :     0.262191     0.251462     0.399144     3.204263    11.494895   219.926312
  18 :     0.262470     0.251649     0.399261     3.203943    11.493548   219.904326
  19 :     0.266363     0.254361     0.400985     3.199133    11.473027   219.521940
  20 :     0.264945     0.253365     0.400351     3.200911    11.480633   219.666738
  21 :     0.267027     0.254810     0.401269     3.198351    11.469708   219.465441
  22 :     0.000002     0.867918     0.786736     1.879413     5.522309    24.742405
  23 :     0.000000    17.040441     3.359626     0.418608     0.333251     0.794497
Making the total density                ... o.k.
o.k.
Initializing the integrals              ... done
Making exponents                        ... done
Making rho(0)                           ... done (         0.002615928)
Integral calculation                    ... Two index integrals                     ... done
Solving the equation system             ... done
atomic density will be written to file 46_Pd_atom46.adf

-------
TIMINGS
-------

Total SCF time: 0 days 0 hours 0 min 0 sec 

Total time                  ....       0.620 sec
Sum of individual times     ....       0.182 sec  ( 29.3%)

Fock matrix formation       ....       0.134 sec  ( 21.5%)
Diagonalization             ....       0.021 sec  (  3.4%)
Density matrix formation    ....       0.000 sec  (  0.0%)
Population analysis         ....       0.000 sec  (  0.0%)
Initial guess               ....       0.001 sec  (  0.1%)
Orbital Transformation      ....       0.000 sec  (  0.0%)
Orbital Orthonormalization  ....       0.000 sec  (  0.0%)
DIIS solution               ....       0.026 sec  (  4.3%)

-------------------------   --------------------
FINAL SINGLE POINT ENERGY      -126.925602209301
-------------------------   --------------------


                            ***************************************
                            *     ORCA property calculations      *
                            ***************************************

                                    ---------------------
                                    Active property flags
                                    ---------------------
   (+) Dipole Moment


------------------------------------------------------------------------------
                       ORCA ELECTRIC PROPERTIES CALCULATION
------------------------------------------------------------------------------

Dipole Moment Calculation                       ... on
Quadrupole Moment Calculation                   ... off
Polarizability Calculation                      ... off
GBWName                                         ... 46_Pd_atom46.gbw
Electron density file                           ... 46_Pd_atom46.scfp
The origin for moment calculation is the CENTER OF MASS  = ( 0.000000,  0.000000  0.000000)

-------------
DIPOLE MOMENT
-------------
                                X             Y             Z
Electronic contribution:     -0.00000      -0.00000      -0.00000
Nuclear contribution   :      0.00000       0.00000       0.00000
                        -----------------------------------------
Total Dipole Moment    :     -0.00000      -0.00000      -0.00000
                        -----------------------------------------
Magnitude (a.u.)       :      0.00000
Magnitude (Debye)      :      0.00000



--------------------
Rotational spectrum 
--------------------
 
Rotational constants in cm-1:     0.000000     0.000000     0.000000 
Rotational constants in MHz :     0.000000     0.000000     0.000000 

 Dipole components along the rotational axes: 
x,y,z [a.u.] :    -0.000000    -0.000000    -0.000000 
x,y,z [Debye]:    -0.000000    -0.000000    -0.000000 

 

Timings for individual modules:

Sum of individual times         ...        0.872 sec (=   0.015 min)
GTO integral calculation        ...        0.217 sec (=   0.004 min)  24.9 %
SCF iterations                  ...        0.654 sec (=   0.011 min)  75.1 %
                             ****ORCA TERMINATED NORMALLY****
TOTAL RUN TIME: 0 days 0 hours 0 minutes 1 seconds 109 msec
