
                                 *****************
                                 * O   R   C   A *
                                 *****************

           --- An Ab Initio, DFT and Semiempirical electronic structure package ---

                  #######################################################
                  #                        -***-                        #
                  #          Department of theory and spectroscopy      #
                  #               Directorship: Frank Neese             #
                  #        Max Planck Institute fuer Kohlenforschung    #
                  #                Kaiser Wilhelm Platz 1               #
                  #                 D-45470 Muelheim/Ruhr               #
                  #                      Germany                        #
                  #                                                     #
                  #                  All rights reserved                #
                  #                        -***-                        #
                  #######################################################


                         Program Version 4.2.0 -  RELEASE  -


 With contributions from (in alphabetic order):
   Daniel Aravena         : Magnetic Suceptibility
   Michael Atanasov       : Ab Initio Ligand Field Theory (pilot matlab implementation)
   Alexander A. Auer      : GIAO ZORA, VPT2
   Ute Becker             : Parallelization
   Giovanni Bistoni       : ED, misc. LED, open-shell LED, HFLED
   Martin Brehm           : Molecular dynamics
   Dmytro Bykov           : SCF Hessian
   Vijay G. Chilkuri      : MRCI spin determinant printing, contributions to CSF-ICE
   Dipayan Datta          : RHF DLPNO-CCSD density
   Achintya Kumar Dutta   : EOM-CC, STEOM-CC
   Dmitry Ganyushin       : Spin-Orbit,Spin-Spin,Magnetic field MRCI
   Miquel Garcia          : C-PCM Hessian, Gaussian charge scheme
   Yang Guo               : DLPNO-NEVPT2, CIM, IAO-localization
   Andreas Hansen         : Spin unrestricted coupled pair/coupled cluster methods
   Benjamin Helmich-Paris : CASSCF linear response (MC-RPA)
   Lee Huntington         : MR-EOM, pCC
   Robert Izsak           : Overlap fitted RIJCOSX, COSX-SCS-MP3, EOM
   Christian Kollmar      : KDIIS, OOCD, Brueckner-CCSD(T), CCSD density
   Simone Kossmann        : Meta GGA functionals, TD-DFT gradient, OOMP2, MP2 Hessian
   Martin Krupicka        : AUTO-CI
   Lucas Lang             : DCDCAS
   Dagmar Lenk            : GEPOL surface, SMD
   Dimitrios Liakos       : Extrapolation schemes; Compound Job, initial MDCI parallelization
   Dimitrios Manganas     : Further ROCIS development; embedding schemes
   Dimitrios Pantazis     : SARC Basis sets
   Taras Petrenko         : DFT Hessian,TD-DFT gradient, ASA, ECA, R-Raman, ABS, FL, XAS/XES, NRVS
   Peter Pinski           : DLPNO-MP2, DLPNO-MP2 Gradient
   Christoph Reimann      : Effective Core Potentials
   Marius Retegan         : Local ZFS, SOC
   Christoph Riplinger    : Optimizer, TS searches, QM/MM, DLPNO-CCSD(T), (RO)-DLPNO pert. Triples
   Tobias Risthaus        : Range-separated hybrids, TD-DFT gradient, RPA, STAB
   Michael Roemelt        : Original ROCIS implementation
   Masaaki Saitow         : Open-shell DLPNO-CCSD energy and density
   Barbara Sandhoefer     : DKH picture change effects
   Avijit Sen             : IP-ROCIS
   Kantharuban Sivalingam : CASSCF convergence, NEVPT2, FIC-MRCI
   Bernardo de Souza      : ESD, SOC TD-DFT
   Georgi Stoychev        : AutoAux, RI-MP2 NMR
   Willem Van den Heuvel  : Paramagnetic NMR
   Boris Wezisla          : Elementary symmetry handling
   Frank Wennmohs         : Technical directorship


 We gratefully acknowledge several colleagues who have allowed us to
 interface, adapt or use parts of their codes:
   Stefan Grimme, W. Hujo, H. Kruse,             : VdW corrections, initial TS optimization,
                  C. Bannwarth                     DFT functionals, gCP, sTDA/sTD-DF
   Ed Valeev, F. Pavosevic, A. Kumar             : LibInt (2-el integral package), F12 methods
   Garnet Chan, S. Sharma, J. Yang, R. Olivares  : DMRG
   Ulf Ekstrom                                   : XCFun DFT Library
   Mihaly Kallay                                 : mrcc  (arbitrary order and MRCC methods)
   Andreas Klamt, Michael Diedenhofen            : otool_cosmo (COSMO solvation model)
   Jiri Pittner, Ondrej Demel                    : Mk-CCSD
   Frank Weinhold                                : gennbo (NPA and NBO analysis)
   Christopher J. Cramer and Donald G. Truhlar   : smd solvation model
   Lars Goerigk                                  : TD-DFT with DH, B97 family of functionals
   V. Asgeirsson, H. Jonsson                     : NEB implementation
   FAccTs GmbH                                   : IRC, NEB, NEB-TS, Multilevel, MM, QM/MM, CI optimization
   S Lehtola, MJT Oliveira, MAL Marques          : LibXC Library


 Your calculation uses the libint2 library for the computation of 2-el integrals
 For citations please refer to: http://libint.valeyev.net

 Your ORCA version has been built with support for libXC version: 4.2.3
 For citations please refer to: https://tddft.org/programs/libxc/

 This ORCA versions uses:
   CBLAS   interface :  Fast vector & matrix operations
   LAPACKE interface :  Fast linear algebra routines
   SCALAPACK package :  Parallel linear algebra routines


----- Orbital basis set information -----
Your calculation utilizes the basis: def2-SVP
   F. Weigend and R. Ahlrichs, Phys. Chem. Chem. Phys. 7, 3297 (2005).

cite the ECPs for In [Def2-ECP] as follows:
Ce-Yb(ecp-28): M. Dolg, H. Stoll, H.Preuss, J. Chem. Phys., 1989, 90, 1730-1734.
Y-Cd(ecp-28), Hf-Hg(ecp-46): D. Andrae,U. Haeussermann, M. Dolg, H. Stoll, H. Preuss, Theor. Chim. Acta, 1990, 77, 123-141.
In-Sb(ecp-28), Tl-Bi(ecp-46): B. Metz, H. Stoll, M. Dolg, J. Chem. Phys., 2000, 113, 2563-2569.
Te-Xe(ecp-28), Po-Rn(ecp-46): K. A. Peterson, D. Figgen, E. Goll, H. Stoll, M. Dolg, J. Chem. Phys., 2003, 119, 11113-11123.
Rb(ecp-28), Cs(ecp-46): T. Leininger, A. Nicklass, W. Kuechle, H. Stoll, M. Dolg, A. Bergner, Chem. Phys. Lett., 1996, 255, 274-280.
Sr(ecp-28), Ba(ecp-46): M. Kaupp, P. V. Schleyer, H. Stoll and H. Preuss, J. Chem. Phys., 1991, 94, 1360-1366.
La(ecp-46): M. Dolg, H. Stoll, A. Savin, H. Preuss, Theor. Chim. Acta, 1989, 75, 173-194.
Lu(ecp-28): X. Cao, M. Dolg, J. Chem. Phys., 2001, 115, 7348-7355.

ECP parameters for In [Def2-ECP] have been obtained from:
TURBOMOLE (7.0.2)

================================================================================
                                        WARNINGS
                       Please study these warnings very carefully!
================================================================================


WARNING: your system is open-shell and RHF/RKS was chosen
  ===> : WILL SWITCH to UHF/UKS


WARNING: MDCI localization with Augmented Hessian Foster-Boys
  ===> : Switching off randomization!

WARNING: Post HF methods need fully converged wavefunctions
  ===> : Setting SCFConvForced true
         You can overwrite this default with %scf ConvForced false 


INFO   : the flag for use of LIBINT has been found!

================================================================================
                                       INPUT FILE
================================================================================
NAME = 49_In.in
|  1> #
|  2> # 49_In CCSD(T)/Def2-SVP
|  3> #
|  4> ! CCSD(T) Def2-SVP tightscf
|  5> 
|  6> *xyz 0 2
|  7>  In 0.0 0.0 0.0
|  8> *
|  9> 
| 10> %maxcore 5000 
| 11> 
| 12> %pal
| 13> nprocs 24
| 14> end
| 15> 
| 16> 
| 17>                          ****END OF INPUT****
================================================================================

                       ****************************
                       * Single Point Calculation *
                       ****************************

---------------------------------
CARTESIAN COORDINATES (ANGSTROEM)
---------------------------------
  In     0.000000    0.000000    0.000000

----------------------------
CARTESIAN COORDINATES (A.U.)
----------------------------
  NO LB      ZA    FRAG     MASS         X           Y           Z
   0 In   21.0000*   0   114.820    0.000000    0.000000    0.000000
* core charge reduced due to ECP

--------------------------------
INTERNAL COORDINATES (ANGSTROEM)
--------------------------------
 In     0   0   0     0.000000000000     0.00000000     0.00000000

---------------------------
INTERNAL COORDINATES (A.U.)
---------------------------
 In     0   0   0     0.000000000000     0.00000000     0.00000000

---------------------
BASIS SET INFORMATION
---------------------
There are 1 groups of distinct atoms

 Group   1 Type In  : 10s7p6d contracted to 4s4p2d pattern {6211/4111/51}

Atom   0In   basis set group =>   1
-------------------------
ECP PARAMETER INFORMATION
-------------------------

 Group 1, Type In ECP Def2-ECP (replacing 28 core electrons, lmax=3)

Atom   0In   ECP group =>   1



           ************************************************************
           *        Program running with 24 parallel MPI-processes    *
           *              working on a common directory               *
           ************************************************************
------------------------------------------------------------------------------
                           ORCA GTO INTEGRAL CALCULATION
------------------------------------------------------------------------------

                         BASIS SET STATISTICS AND STARTUP INFO

 # of primitive gaussian shells          ...   23
 # of primitive gaussian functions       ...   61
 # of contracted shells                  ...   10
 # of contracted basis functions         ...   26
 Highest angular momentum                ...    2
 Maximum contraction depth               ...    6
 Integral package used                   ... LIBINT
 Integral threshhold            Thresh   ...  2.500e-11
 Primitive cut-off              TCut     ...  2.500e-12


------------------------------ INTEGRAL EVALUATION ----------------------------


 * One electron integrals 

   ECP integrals                         ... done
 Pre-screening matrix                    ... done
 Shell pair data                         ... done (   0.000 sec)



           ************************************************************
           *        Program running with 24 parallel MPI-processes    *
           *              working on a common directory               *
           ************************************************************
-------------------------------------------------------------------------------
                                 ORCA SCF
-------------------------------------------------------------------------------

------------
SCF SETTINGS
------------
Hamiltonian:
 Ab initio Hamiltonian  Method          .... Hartree-Fock(GTOs)


General Settings:
 Integral files         IntName         .... 49_In
 Hartree-Fock type      HFTyp           .... UHF
 Total Charge           Charge          ....    0
 Multiplicity           Mult            ....    2
 Number of Electrons    NEL             ....   21
 Basis Dimension        Dim             ....   26
 Nuclear Repulsion      ENuc            ....      0.0000000000 Eh

Convergence Acceleration:
 DIIS                   CNVDIIS         .... on
   Start iteration      DIISMaxIt       ....    12
   Startup error        DIISStart       ....  0.200000
   # of expansion vecs  DIISMaxEq       ....     5
   Bias factor          DIISBfac        ....   1.050
   Max. coefficient     DIISMaxC        ....  10.000
 Newton-Raphson         CNVNR           .... off
 SOSCF                  CNVSOSCF        .... off
 Level Shifting         CNVShift        .... on
   Level shift para.    LevelShift      ....    0.2500
   Turn off err/grad.   ShiftErr        ....    0.0010
 Zerner damping         CNVZerner       .... off
 Static damping         CNVDamp         .... on
   Fraction old density DampFac         ....    0.7000
   Max. Damping (<1)    DampMax         ....    0.9800
   Min. Damping (>=0)   DampMin         ....    0.0000
   Turn off err/grad.   DampErr         ....    0.1000
 Fernandez-Rico         CNVRico         .... off

SCF Procedure:
 Maximum # iterations   MaxIter         ....   125
 SCF integral mode      SCFMode         .... Direct
   Integral package                     .... LIBINT
 Reset frequency        DirectResetFreq ....    20
 Integral Threshold     Thresh          ....  2.500e-11 Eh
 Primitive CutOff       TCut            ....  2.500e-12 Eh

Convergence Tolerance:
 Convergence Check Mode ConvCheckMode   .... Total+1el-Energy
 Convergence forced     ConvForced      .... 1
 Energy Change          TolE            ....  1.000e-08 Eh
 1-El. energy change                    ....  1.000e-05 Eh
 DIIS Error             TolErr          ....  5.000e-07


Diagonalization of the overlap matrix:
Smallest eigenvalue                        ... 3.636e-02
Time for diagonalization                   ...    0.001 sec
Threshold for overlap eigenvalues          ... 1.000e-08
Number of eigenvalues below threshold      ... 0
Time for construction of square roots      ...    0.011 sec
Total time needed                          ...    0.011 sec

-------------------
DFT GRID GENERATION
-------------------

General Integration Accuracy     IntAcc      ...  4.340
Radial Grid Type                 RadialGrid  ... Gauss-Chebyshev
Angular Grid (max. acc.)         AngularGrid ... Lebedev-110
Angular grid pruning method      GridPruning ... 3 (G Style)
Weight generation scheme         WeightScheme... Becke
Basis function cutoff            BFCut       ...    1.0000e-11
Integration weight cutoff        WCut        ...    1.0000e-14
Grids for H and He will be reduced by one unit

# of grid points (after initial pruning)     ...   3304 (   0.0 sec)
# of grid points (after weights+screening)   ...   3304 (   0.0 sec)
Grid point division into batches done        ...    0.0 sec
Reduced shell lists constructed in    0.0 sec

Total number of grid points                  ...     3304
Total number of batches                      ...       52
Average number of points per batch           ...       63
Average number of grid points per atom       ...     3304
Average number of shells per batch           ...     3.75 (37.50%)
Average number of basis functions per batch  ...     9.75 (37.50%)
Average number of large shells per batch     ...     3.75 (100.00%)
Average number of large basis fcns per batch ...     9.75 (100.00%)
Maximum spatial batch extension              ...  21.54, 32.49, 32.49 au
Average spatial batch extension              ...   1.17,  1.66,  1.87 au

Time for grid setup =    0.048 sec

------------------------------
INITIAL GUESS: MODEL POTENTIAL
------------------------------
Loading Hartree-Fock densities                     ... done
  calling /sw/apps/orca/orca_4_2_0_linux_x86-64_openmpi314/orca 49_In_atom49.inp > 49_In_atom49.out in order to generate an atomic fitting density for atom 0 (In with ECP) on-the-fly... 
    atom 0 (In), assumed electronic state with S=2: 1s2 2s2 2p6 3s2 3p6 4s2 3d10 4p6 5s2 4d10 5p1           ... done
Calculating cut-offs                               ... done
Setting up the integral package                    ... done
Initializing the effective Hamiltonian             ... done
Starting the Coulomb interaction                   ... done (   0.0 sec)
Reading the grid                                   ... done
Mapping shells                                     ... done
Starting the XC term evaluation                    ... done (   0.0 sec)
Transforming the Hamiltonian                       ... done (   0.0 sec)
Diagonalizing the Hamiltonian                      ... done (   0.0 sec)
Back transforming the eigenvectors                 ... done (   0.0 sec)
Now organizing SCF variables                       ... done
                      ------------------
                      INITIAL GUESS DONE (   1.2 sec)
                      ------------------
--------------
SCF ITERATIONS
--------------
ITER       Energy         Delta-E        Max-DP      RMS-DP      [F,P]     Damp
               ***  Starting incremental Fock matrix formation  ***
  0   -187.5650215393   0.000000000000 0.54491865  0.02693445  1.7509582 0.7000
  1   -188.0362108418  -0.471189302574 0.51910221  0.02491874  1.1917617 0.7000
  2   -188.3789025722  -0.342691730354 0.39950982  0.01907369  0.7931020 0.7000
  3   -188.6198573380  -0.240954765795 0.29037702  0.01393815  0.5273774 0.7000
  4   -188.7903627982  -0.170505460184 0.20866364  0.01008466  0.3520033 0.7000
  5   -188.9114365013  -0.121073703114 0.15351480  0.00731112  0.2360243 0.7000
                               ***Turning on DIIS***
  6   -188.9974524608  -0.086015959492 0.11366439  0.00533248  0.1589826 0.7000
  7   -189.3589919537  -0.361539492973 0.08952846  0.00408068  0.1075703 0.7000
  8   -189.3884922124  -0.029500258649 0.23195341  0.01039509  0.0750880 0.0000
  9   -189.2098224415   0.178669770917 0.02027286  0.00102389  0.0061912 0.0000
 10   -189.2288881762  -0.019065734719 0.01444234  0.00081562  0.0037732 0.0000
 11   -189.2151994988   0.013688677431 0.00717582  0.00039338  0.0018933 0.0000
 12   -189.2142684073   0.000931091462 0.00693022  0.00038402  0.0009815 0.0000
 13   -189.2072943116   0.006974095714 0.00151312  0.00006477  0.0001183 0.0000
 14   -189.2062686271   0.001025684489 0.00021814  0.00000904  0.0000174 0.0000
 15   -189.2063428514  -0.000074224254 0.00000822  0.00000038  0.0000023 0.0000
                            ***DIIS convergence achieved***

               *****************************************************
               *                     SUCCESS                       *
               *           SCF CONVERGED AFTER  16 CYCLES          *
               *****************************************************


----------------
TOTAL SCF ENERGY
----------------

Total Energy       :         -189.20633618 Eh           -5148.56616 eV

Components:
Nuclear Repulsion  :            0.00000000 Eh               0.00000 eV
Electronic Energy  :         -189.20633618 Eh           -5148.56616 eV
One Electron Energy:         -334.82876662 Eh           -9111.15394 eV
Two Electron Energy:          145.62243044 Eh            3962.58779 eV

Virial components:
Potential Energy   :         -262.60604159 Eh           -7145.87368 eV
Kinetic Energy     :           73.39970541 Eh            1997.30753 eV
Virial Ratio       :            3.57775335


---------------
SCF CONVERGENCE
---------------

  Last Energy change         ...    6.6698e-06  Tolerance :   1.0000e-08
  Last MAX-Density change    ...    4.3613e-06  Tolerance :   1.0000e-07
  Last RMS-Density change    ...    1.6372e-07  Tolerance :   5.0000e-09
  Last DIIS Error            ...    3.6948e-07  Tolerance :   5.0000e-07

             **** THE GBW FILE WAS UPDATED (49_In.gbw) ****
             **** DENSITY FILE WAS UPDATED (49_In.scfp) ****
             **** ENERGY FILE WAS UPDATED (49_In.en.tmp) ****
----------------------
UHF SPIN CONTAMINATION
----------------------

Expectation value of <S**2>     :     0.758799
Ideal value S*(S+1) for S=0.5   :     0.750000
Deviation                       :     0.008799

             **** THE GBW FILE WAS UPDATED (49_In.gbw) ****
             **** DENSITY FILE WAS UPDATED (49_In.scfp) ****
----------------
ORBITAL ENERGIES
----------------
                 SPIN UP ORBITALS
  NO   OCC          E(Eh)            E(eV) 
   0   1.0000      -5.373557      -146.2219 
   1   1.0000      -3.627762       -98.7164 
   2   1.0000      -3.627762       -98.7164 
   3   1.0000      -3.623328       -98.5958 
   4   1.0000      -1.015146       -27.6235 
   5   1.0000      -1.015146       -27.6235 
   6   1.0000      -1.007713       -27.4213 
   7   1.0000      -1.007713       -27.4213 
   8   1.0000      -1.005365       -27.3574 
   9   1.0000      -0.423301       -11.5186 
  10   1.0000      -0.199650        -5.4328 
  11   0.0000       0.018046         0.4911 
  12   0.0000       0.018046         0.4911 
  13   0.0000       0.260649         7.0926 
  14   0.0000       0.284880         7.7520 
  15   0.0000       0.306475         8.3396 
  16   0.0000       0.306475         8.3396 
  17   0.0000       0.474374        12.9084 
  18   0.0000       0.477987        13.0067 
  19   0.0000       0.477987        13.0067 
  20   0.0000       0.493198        13.4206 
  21   0.0000       0.493198        13.4206 
  22   0.0000      16.359726       445.1708 
  23   0.0000      16.359726       445.1708 
  24   0.0000      16.361326       445.2143 
  25   0.0000      61.679109      1678.3739 

                 SPIN DOWN ORBITALS
  NO   OCC          E(Eh)            E(eV) 
   0   1.0000      -5.372407      -146.1906 
   1   1.0000      -3.629095       -98.7527 
   2   1.0000      -3.629095       -98.7527 
   3   1.0000      -3.617125       -98.4270 
   4   1.0000      -1.015680       -27.6381 
   5   1.0000      -1.015680       -27.6381 
   6   1.0000      -1.004617       -27.3370 
   7   1.0000      -1.004617       -27.3370 
   8   1.0000      -1.001156       -27.2428 
   9   1.0000      -0.367992       -10.0136 
  10   0.0000       0.029314         0.7977 
  11   0.0000       0.029314         0.7977 
  12   0.0000       0.062311         1.6956 
  13   0.0000       0.276152         7.5145 
  14   0.0000       0.310578         8.4513 
  15   0.0000       0.310578         8.4513 
  16   0.0000       0.340693         9.2707 
  17   0.0000       0.496599        13.5132 
  18   0.0000       0.496599        13.5132 
  19   0.0000       0.523441        14.2435 
  20   0.0000       0.523441        14.2435 
  21   0.0000       0.533502        14.5173 
  22   0.0000      16.359830       445.1736 
  23   0.0000      16.359830       445.1736 
  24   0.0000      16.371533       445.4921 
  25   0.0000      61.679352      1678.3805 

                    ********************************
                    * MULLIKEN POPULATION ANALYSIS *
                    ********************************

--------------------------------------------
MULLIKEN ATOMIC CHARGES AND SPIN POPULATIONS
--------------------------------------------
   0 In:   -0.000000    1.000000
Sum of atomic charges         :   -0.0000000
Sum of atomic spin populations:    1.0000000

-----------------------------------------------------
MULLIKEN REDUCED ORBITAL CHARGES AND SPIN POPULATIONS
-----------------------------------------------------
CHARGE
  0 Ins       :     3.996101  s :     3.996101
      pz      :     2.030813  p :     7.000000
      px      :     2.876092
      py      :     2.093096
      dz2     :     2.000803  d :    10.003899
      dxz     :     2.000316
      dyz     :     2.000034
      dx2y2   :     2.001793
      dxy     :     2.000954

SPIN
  0 Ins       :    -0.000526  s :    -0.000526
      pz      :     0.030813  p :     1.000000
      px      :     0.876092
      py      :     0.093096
      dz2     :     0.000108  d :     0.000526
      dxz     :     0.000043
      dyz     :     0.000005
      dx2y2   :     0.000242
      dxy     :     0.000129


                     *******************************
                     * LOEWDIN POPULATION ANALYSIS *
                     *******************************

-------------------------------------------
LOEWDIN ATOMIC CHARGES AND SPIN POPULATIONS
-------------------------------------------
   0 In:    0.000000    1.000000

----------------------------------------------------
LOEWDIN REDUCED ORBITAL CHARGES AND SPIN POPULATIONS
----------------------------------------------------
CHARGE
  0 Ins       :     3.996101  s :     3.996101
      pz      :     2.030813  p :     7.000000
      px      :     2.876092
      py      :     2.093096
      dz2     :     2.000803  d :    10.003899
      dxz     :     2.000316
      dyz     :     2.000034
      dx2y2   :     2.001793
      dxy     :     2.000954

SPIN
  0 Ins       :    -0.000526  s :    -0.000526
      pz      :     0.030813  p :     1.000000
      px      :     0.876092
      py      :     0.093096
      dz2     :     0.000108  d :     0.000526
      dxz     :     0.000043
      dyz     :     0.000005
      dx2y2   :     0.000242
      dxy     :     0.000129


                      *****************************
                      * MAYER POPULATION ANALYSIS *
                      *****************************

  NA   - Mulliken gross atomic population
  ZA   - Total nuclear charge
  QA   - Mulliken gross atomic charge
  VA   - Mayer's total valence
  BVA  - Mayer's bonded valence
  FA   - Mayer's free valence

  ATOM       NA         ZA         QA         VA         BVA        FA
  0 In    21.0000    21.0000     0.0000     1.0176     0.0000     1.0176

  Mayer bond orders larger than 0.100000


-------
TIMINGS
-------

Total SCF time: 0 days 0 hours 0 min 4 sec 

Total time                  ....       4.175 sec
Sum of individual times     ....       3.664 sec  ( 87.8%)

Fock matrix formation       ....       2.103 sec  ( 50.4%)
Diagonalization             ....       0.055 sec  (  1.3%)
Density matrix formation    ....       0.001 sec  (  0.0%)
Population analysis         ....       0.152 sec  (  3.6%)
Initial guess               ....       1.176 sec  ( 28.2%)
Orbital Transformation      ....       0.000 sec  (  0.0%)
Orbital Orthonormalization  ....       0.000 sec  (  0.0%)
DIIS solution               ....       0.129 sec  (  3.1%)


           ************************************************************
           *        Program running with 24 parallel MPI-processes    *
           *              working on a common directory               *
           ************************************************************


------------------------------------------------------------------------------- 
                              ORCA-MATRIX DRIVEN CI                            
------------------------------------------------------------------------------- 

--------------------------------
AUTOMATIC CHOICE OF INCORE LEVEL
--------------------------------

Memory available                           ...   2500.00 MB
Memory needed for S+T                      ...      0.14 MB
Memory needed for J+K                      ...      0.29 MB
Memory needed for DIIS                     ...      2.02 MB
Memory needed for 3-ext                    ...      0.18 MB
Memory needed for 4-ext                    ...      0.21 MB
Memory needed for triples                  ...      0.13 MB
 -> Final InCoreLevel    ... 5
 -> check shows that triples correction can be computed


Wavefunction type
-----------------
Correlation treatment                      ...      CCSD     
Single excitations                         ... ON
Orbital optimization                       ... OFF
Calculation of Z vector                    ... OFF
Calculation of Brueckner orbitals          ... OFF
Perturbative triple excitations            ... ON
Calculation of F12 correction              ... OFF
Frozen core treatment                      ... chemical core (8 el)
Reference Wavefunction                     ... UHF
  Alpha-MOs occ    :     4 ...   10 (  7 MO's/  7 electrons)
  Beta-MOs occ     :     4 ...    9 (  6 MO's/  6 electrons)
  Alpha-MOs virt   :    11 ...   25 ( 15 MO's              )
  Beta-MOs virt    :    10 ...   25 ( 16 MO's              )
Number of AO's                             ...     26
Number of electrons                        ...     21
Number of correlated electrons             ...     13

Algorithmic settings
--------------------
Integral transformation                    ... AO direct full transformation
K(C) Formation                             ... FULL-MO TRAFO
Maximum number of iterations               ...        50
Convergence tolerance (max. residuum)      ... 1.000e-05
Level shift for amplitude update           ... 2.000e-01
Maximum number of DIIS vectors             ...         7
DIIS turned on at iteration                ...         0
Damping before turning on DIIS             ...     0.500
Damping after turning on DIIS              ...     0.000
Pair specific amplitude update             ... OFF
Natural orbital iterations                 ... OFF
Perturbative natural orbital generation    ... OFF
Printlevel                                 ... 2

Memory handling:
----------------
Maximum memory for working arrays          ...   2500 MB
Data storage in matrix containers          ... UNCOMPRESSED
Data type for integral storage             ... DOUBLE
In-Core Storage of quantities:
   Amplitudes+Sigma Vector      ... YES
   J+K operators                ... YES
   DIIS vectors                 ... YES
   3-external integrals         ... YES
   4-external integrals         ... YES


Initializing the integral package          ... done
Warning: reference  - re-canonicalizations have been set to INT 1 VIRT 1

--------------------------
UNRESTRICTED FOCK OPERATOR
--------------------------

<ss|ss>:           55 b            0 skpd (  0.0%)    0.000 s ( 0.002 ms/b)
<ss|sp>:          160 b            0 skpd (  0.0%)    0.000 s ( 0.001 ms/b)
<ss|sd>:           80 b            0 skpd (  0.0%)    0.000 s ( 0.003 ms/b)
<ss|pp>:          100 b            0 skpd (  0.0%)    0.000 s ( 0.001 ms/b)
<ss|pd>:           80 b            0 skpd (  0.0%)    0.000 s ( 0.003 ms/b)
<ss|dd>:           30 b            0 skpd (  0.0%)    0.000 s ( 0.013 ms/b)
<sp|sp>:          136 b            0 skpd (  0.0%)    0.000 s ( 0.001 ms/b)
<sp|sd>:          128 b            0 skpd (  0.0%)    0.000 s ( 0.002 ms/b)
<sp|pp>:          160 b            0 skpd (  0.0%)    0.000 s ( 0.001 ms/b)
<sp|pd>:          128 b            0 skpd (  0.0%)    0.000 s ( 0.003 ms/b)
<sp|dd>:           48 b            0 skpd (  0.0%)    0.001 s ( 0.018 ms/b)
<sd|sd>:           36 b            0 skpd (  0.0%)    0.001 s ( 0.014 ms/b)
<sd|pp>:           80 b            0 skpd (  0.0%)    0.000 s ( 0.004 ms/b)
<sd|pd>:           64 b            0 skpd (  0.0%)    0.001 s ( 0.012 ms/b)
<sd|dd>:           24 b            0 skpd (  0.0%)    0.002 s ( 0.071 ms/b)
<pp|pp>:           55 b            0 skpd (  0.0%)    0.000 s ( 0.004 ms/b)
<pp|pd>:           80 b            0 skpd (  0.0%)    0.001 s ( 0.006 ms/b)
<pp|dd>:           30 b            0 skpd (  0.0%)    0.001 s ( 0.036 ms/b)
<pd|pd>:           36 b            0 skpd (  0.0%)    0.001 s ( 0.036 ms/b)
<pd|dd>:           24 b            0 skpd (  0.0%)    0.003 s ( 0.120 ms/b)
<dd|dd>:            6 b            0 skpd (  0.0%)    0.004 s ( 0.686 ms/b)
Recanonicalizing the internal orbitals
Recanonicalizing the virtual orbitals
Time needed for Fock operator              ...            0.152 sec
Reference energy                           ...   -189.206336125
Warning: for UHF the TrafoType has to be JK
Warning: for UHF the K(C)-option cannot be MO but must be AOX

-------------------------------
PARTIAL EXCHANGE TRANSFORMATION
-------------------------------

Transformation type                        ... two-operators
Generation of integrals (i,mue|j,nue)      ... ON
Generation of integrals (mue,kappa|nue,tau)... ON
Generation of integrals (i,mue|a,nue)      ... ON
Dimension of the basis                     ...   26
Number of internal alpha-MOs               ...    7 (   4-  10)
Number of internal beta-MOs                ...    6 (   4-   9)
Number of external alpha-MOs               ...   15 (  11-  25)
Number of external beta-MOs                ...   16 (  10-  25)
Pair cutoff                                ... 0.000e+00 Eh
Number of AO pairs in the trafo            ...  351
Total Number of distinct AO pairs          ...  351
Memory devoted for trafo                   ... 2500.0 MB 
Max. Number of MO pairs treated together   ... 484733      
Number Format for Storage                  ... Double (8 Byte)
Integral package used                      ... LIBINT

Starting integral evaluation:
    ... done with AO integral generation
Closing buffer AOK[aa] ( 0.00 GB; CompressionRatio= 0.00)
Closing buffer AOK[bb] ( 0.00 GB; CompressionRatio= 0.00)
Closing buffer AOK[ab] ( 0.00 GB; CompressionRatio= 0.00)
Closing buffer AOK[ba] ( 0.00 GB; CompressionRatio= 0.00)
Collecting buffer AOK 
Closing buffer IAAO1[aa] ( 0.00 GB; CompressionRatio= 0.00)
Closing buffer IAAO1[bb] ( 0.00 GB; CompressionRatio= 0.00)
Closing buffer IAAO1[ab] ( 0.00 GB; CompressionRatio= 0.00)
Closing buffer IAAO1[ba] ( 0.00 GB; CompressionRatio= 0.00)
Closing buffer IAAO2[aa] ( 0.00 GB; CompressionRatio= 0.00)
Closing buffer IAAO2[bb] ( 0.00 GB; CompressionRatio= 0.00)
Closing buffer IAAO2[ab] ( 0.00 GB; CompressionRatio= 0.00)
Closing buffer IAAO2[ba] ( 0.00 GB; CompressionRatio= 0.00)
Collecting buffer IAAO 
Closing buffer PRQS    ( 0.00 GB; CompressionRatio= 0.00)
Collecting buffer PRQS 
Number of alpha/alpha MO pairs in trafo    ...   28
Number of beta /beta  MO pairs in trafo    ...   21
Number of alpha/ beta MO pairs in trafo    ...   42
------------------------
SORTING OF (i,mue|j,nue)
------------------------

SORTING OF ALPHA/ALPHA PAIRS
IBATCH = 1 of  1
Closing buffer KAO[aa] ( 0.00 GB; CompressionRatio= 1.00)
Collecting buffer KAO 
SORTING OF BETA /BETA  PAIRS
IBATCH = 1 of  1
Closing buffer KAO[bb] ( 0.00 GB; CompressionRatio= 1.00)
Collecting buffer KAO 
SORTING OF ALPHA/BETA  PAIRS
IBATCH = 1 of  1
Closing buffer KAO[ab] ( 0.00 GB; CompressionRatio= 0.997785977860)
Collecting buffer KAO[ab] 
------------------------
SORTING OF (i,mue|a,nue)
------------------------

Number of alpha/alpha (i,a) pairs in trafo  ...  105
Number of beta /beta  (i,a) pairs in trafo  ...   96
Number of alpha/ beta (i,a) pairs in trafo  ...  112
Number of beta /alpha (i,a) pairs in trafo  ...   90
Setting up the alpha/alpha list             ... done
Setting up the beta /beta  list             ... done
Setting up the alpha/beta  list             ... done
Setting up the beta /alpha list             ... done
    ... Now sorting (i,mue|a,nue)integrals
    ... Integrals (i,b|a,c) will be made on the fly
SORTING OF ALPHA/ALPHA PAIRS
IBATCH = 1 of  1
Closing buffer IPAQ[aa]  0.00 GB; CompressionRatio= 1.00)
SORTING OF BETA /BETA  PAIRS
IBATCH = 1 of  1
Closing buffer IPAQ[bb]( 0.00 GB; CompressionRatio= 1.00)
SORTING OF ALPHA/BETA  PAIRS (NMatSort_ab=5)
IBATCH = 1 of  1
Closing buffer IPAQ[ab]( 0.00 GB; CompressionRatio= 1.00)
SORTING OF BETA/ALPHA  PAIRS
IBATCH = 1 of  1
Closing buffer IPAQ[ba]( 0.00 GB; CompressionRatio= 1.00)
N(AO-Batches) Done                         ...         0 
N(AO-Batches) Skipped                      ...         0 
N(IJ)-pairs Skipped                        ...         0 
TOTAL TIME for half transformation         ...     1.351 sec
AO-integral generation                     ...     0.000 sec
Half transformation                        ...     0.000 sec
K-integral sorting                         ...     0.616 sec
<ss|**>: 
------------------------------
PARTIAL COULOMB TRANSFORMATION
------------------------------

Transformation type                        ... two-operators
Dimension of the basis                     ...   26
Number of internal alpha-MOs               ...    7 (4-10)
Number of internal beta-MOs                ...    6 (4-9)
Pair cutoff                                ... 0.000e+00 Eh
Number of AO pairs included in the trafo   ...  351
Total Number of distinct AO pairs          ...  351
Memory devoted for trafo                   ... 2500.0 MB 
Max. Number of MO pairs treated together   ... 933561      
Max. Number of MOs treated per batch       ... 35906      
Number Format for Storage                  ... Double (8 Byte)
AO-integral source                         ... DIRECT
Integral package used                      ... LIBINT

Starting integral evaluation:
<sp|**>:          550 b        0 skpd     0.003 s (  0.006 ms/b)
<sd|**>:          880 b        0 skpd     0.009 s (  0.011 ms/b)
<pp|**>:          440 b        0 skpd     0.007 s (  0.017 ms/b)
<pd|**>:          550 b        0 skpd     0.012 s (  0.022 ms/b)
         440 b        0 skpd     0.019 s (  0.043 ms/b)
<dd|**>:          165 b        0 skpd     0.019 s (  0.116 ms/b)
Closing buffer AOJ[aa] ( 0.00 GB; CompressionRatio= 0.95)
Closing buffer AOJ[bb] ( 0.00 GB; CompressionRatio= 0.00)
Collecting buffer AOJ 
    ... done with AO integral generation
Number of Alpha-MO pairs included          ...   28
Number of Beta-MO pairs included           ...   21
    ... Now sorting integrals
SORTING ALPHA/ALPHA PAIRS
IBATCH = 1 of  1
Closing buffer JAO[aa] ( 0.00 GB; CompressionRatio= 1.00)
SORTING BETA/BETA PAIRS
IBATCH = 1 of  1
Closing buffer JAO[bb] ( 0.00 GB; CompressionRatio= 1.00)
Collecting buffer JAO 
TOTAL TIME for half transformation         ...     0.183 sec
AO-integral generation                     ...     0.035 sec
Half transformation                        ...     0.035 sec
J-integral sorting                         ...     0.070 sec

-------------------------- SECOND HALF TRANSFORMATION -------------------------
Formation of (ij|kl),(ij|ka), (ij|ab)      ... ok (     0.116 sec)
Formation of (ik|jl),(ik|ja), (ia|jb)      ... ok (     0.183 sec)


-----------------------
SPIN UNRESTRICTED GUESS
-----------------------

Entering MDCI_UHF_Guess, Tailored=0
Spin-components of the MP2 energy:
EMP2(aa)=     -0.006739797
EMP2(bb)=     -0.003463284
EMP2(ab)=     -0.039754196

Initial guess performed in     0.002 sec
E(0)                                       ...   -189.206336125
E(MP2)                                     ...     -0.049957277
Initial E(tot)                             ...   -189.256293402
<T|T>                                      ...      0.032006720
Number of pairs included                   ... 78

------------------------------------------------
                  UHF COUPLED CLUSTER ITERATIONS
------------------------------------------------

Number of amplitudes to be optimized       ...        14452

Iter       E(tot)           E(Corr)          Delta-E          Residual     Time      <S|S>**1/2
  0   -189.256293402     -0.049957277     -0.000000000      0.016457115    0.06      0.000000513
                           *** Turning on DIIS ***
  1   -189.263882388     -0.057546263     -0.007588986      0.008860809    0.03      0.014820122
  2   -189.269339083     -0.063002958     -0.005456695      0.002981804    0.04      0.022228043
  3   -189.270470598     -0.064134473     -0.001131515      0.000914428    0.04      0.024819253
  4   -189.270614472     -0.064278348     -0.000143875      0.000170523    0.03      0.025448626
  5   -189.270636947     -0.064300823     -0.000022475      0.000026069    0.03      0.025480164
  6   -189.270635173     -0.064299049      0.000001774      0.000011682    0.03      0.025465431
  7   -189.270636157     -0.064300032     -0.000000984      0.000004532    0.03      0.025464704
               --- The Coupled-Cluster iterations have converged ---

----------------------
COUPLED CLUSTER ENERGY
----------------------

E(0)                                       ...   -189.206336125
E(CORR)                                    ...     -0.064300032
E(TOT)                                     ...   -189.270636157
Singles norm <S|S>**1/2                    ...      0.025464704 ( 0.017052209, 0.008412494)  
T1 diagnostic                              ...      0.007062638                              

------------------
LARGEST AMPLITUDES
------------------
   9a-> 12a   9b-> 11b       0.088533
   9a-> 11a   9b-> 10b       0.088533
  10a-> 17a   9b-> 12b       0.057005
   9a-> 11a   9b-> 14b       0.051553
   9a-> 12a   9b-> 15b       0.051553
  10a-> 18a   9b-> 10b       0.050713
  10a-> 19a   9b-> 11b       0.050713
   9a-> 15a   9b-> 10b       0.048560
   9a-> 16a   9b-> 11b       0.048560
   9a-> 15a   9b-> 14b       0.036639
   9a-> 16a   9b-> 15b       0.036639
  10a-> 17a   9b-> 16b       0.036234
  10a-> 14a   9b-> 13b       0.034662
  10a-> 11a   9b-> 19b       0.031245
  10a-> 12a   9b-> 20b       0.031245
   9a-> 14a   9b-> 16b       0.031141

----------------------
UHF TRIPLES CORRECTION (Algorithm 1)
----------------------

Multiplier for the singles contribution    ...      1.000000000

SPIN-CASE Alpha-Alpha-Alpha:
10% done
20% done
30% done
40% done
50% done
60% done
70% done
80% done
90% done


SPIN-CASE Beta-Beta-Beta:
10% done
20% done
30% done
40% done
50% done
60% done
70% done
80% done
90% done


SPIN-CASE Alpha-Alpha-Beta:
10% done
20% done
30% done
40% done
50% done
60% done
70% done
80% done
90% done


SPIN-CASE Beta-Beta-Alpha:
10% done
20% done
30% done
40% done
50% done
60% done
70% done
80% done
90% done


Triples Correction (T)                     ...     -0.001893899
    alpha-alpha-alpha ... -0.000089730 (  4.7%)
    alpha-alpha-beta  ... -0.001117098 ( 59.0%)
    alpha-beta -beta  ... -0.000636323 ( 33.6%)
    beta -beta -beta  ... -0.000050749 (  2.7%)
Scaling of triples based on CCSD energies (Peterson et al. Molecular Physics 113, 1551 (2015))
E(T*) = f*E(T) where f = E(F12-CCSD)/E(CCSD) 
f = CCSD (with F12)/ CCSD (without F12)    ...      1.000000000
Scaled triples correction (T)              ...     -0.001893899

Final correlation energy                   ...     -0.066193932
E(CCSD)                                    ...   -189.270636157
E(CCSD(T))                                 ...   -189.272530056



        !!!!!!!!!!!!!!!!!!!!!!!!!!!!!!!!!!!!!!!!!!!!!!!!!!!!!!!!!!!!!!!!!!!!!!!!!! 
        !  Warning: Densities are linearized densities                           !
        !!!!!!!!!!!!!!!!!!!!!!!!!!!!!!!!!!!!!!!!!!!!!!!!!!!!!!!!!!!!!!!!!!!!!!!!!! 

NORM  =      1.065884648 sqrt=     1.032416896
W(HF) =      0.938187825
------------------------------------------------------------------------------
                           ORCA POPULATION ANALYSIS
------------------------------------------------------------------------------
Input electron density              ... 49_In.mdcip
Input spin density                  ... 49_In.mdcir
BaseName (.gbw .S,...)              ... 49_In

                    ********************************
                    * MULLIKEN POPULATION ANALYSIS *
                    ********************************

------------------------------------------
MULLIKEN ATOMIC CHARGES AND SPIN DENSITIES
------------------------------------------
   0 In:    0.000000    1.000000
Sum of atomic charges       :    0.0000000
Sum of atomic spin densities:    1.0000000

---------------------------------------------------
MULLIKEN REDUCED ORBITAL CHARGES AND SPIN DENSITIES
---------------------------------------------------
CHARGE
  0 Ins       :     3.911987  s :     3.911987
      pz      :     2.069636  p :     7.075413
      px      :     2.876676
      py      :     2.129101
      dz2     :     2.000562  d :    10.012601
      dxz     :     2.004096
      dyz     :     1.999046
      dx2y2   :     2.004428
      dxy     :     2.004468

SPIN
  0 Ins       :     0.015000  s :     0.015000
      pz      :     0.028954  p :     0.974662
      px      :     0.855826
      py      :     0.089881
      dz2     :     0.001137  d :     0.010338
      dxz     :     0.002804
      dyz     :     0.000394
      dx2y2   :     0.003003
      dxy     :     0.002999


                     *******************************
                     * LOEWDIN POPULATION ANALYSIS *
                     *******************************

-----------------------------------------
LOEWDIN ATOMIC CHARGES AND SPIN DENSITIES
-----------------------------------------
   0 In:   -0.000000    1.000000

--------------------------------------------------
LOEWDIN REDUCED ORBITAL CHARGES AND SPIN DENSITIES
--------------------------------------------------
CHARGE
  0 Ins       :     3.911987  s :     3.911987
      pz      :     2.069636  p :     7.075413
      px      :     2.876676
      py      :     2.129101
      dz2     :     2.000562  d :    10.012601
      dxz     :     2.004096
      dyz     :     1.999046
      dx2y2   :     2.004428
      dxy     :     2.004468

SPIN
  0 Ins       :     0.015000  s :     0.015000
      pz      :     0.028954  p :     0.974662
      px      :     0.855826
      py      :     0.089881
      dz2     :     0.001137  d :     0.010338
      dxz     :     0.002804
      dyz     :     0.000394
      dx2y2   :     0.003003
      dxy     :     0.002999


                      *****************************
                      * MAYER POPULATION ANALYSIS *
                      *****************************

  NA   - Mulliken gross atomic population
  ZA   - Total nuclear charge
  QA   - Mulliken gross atomic charge
  VA   - Mayer's total valence
  BVA  - Mayer's bonded valence
  FA   - Mayer's free valence

  ATOM       NA         ZA         QA         VA         BVA        FA
  0 In    21.0000    21.0000     0.0000     1.4604     0.0000     1.4604





------------------------------------------------------------------------------- 
                                     TIMINGS                                   
------------------------------------------------------------------------------- 


Total execution time                   ...        2.692 sec

Fock Matrix Formation                  ...        0.152 sec (  5.7%)
Initial Guess                          ...        0.002 sec (  0.1%)
DIIS Solver                            ...        0.019 sec (  0.7%)
State Vector Update                    ...        0.002 sec (  0.1%)
Sigma-vector construction              ...        0.278 sec ( 10.3%)
  <D|H|D>(2-ext)                       ...        0.002 sec (  0.9% of sigma)
  <D|H|D>(4-ext)                       ...        0.071 sec ( 25.5% of sigma)
  <S|H|0>                              ...        0.002 sec (  0.9% of sigma)
  <D|H|S>(1-ext)                       ...        0.002 sec (  0.8% of sigma)
  Fock-dressing                        ...        0.133 sec ( 47.8% of sigma)
  (ij|ab),(ia|jb)-dressing             ...        0.045 sec ( 16.1% of sigma)
Total Time for computing (T)           ...        0.003 sec (  0.1% of ALL)


-------------------------   --------------------
FINAL SINGLE POINT ENERGY      -189.272530056438
-------------------------   --------------------


                            ***************************************
                            *     ORCA property calculations      *
                            ***************************************

                                    ---------------------
                                    Active property flags
                                    ---------------------
   (+) Dipole Moment


------------------------------------------------------------------------------
                       ORCA ELECTRIC PROPERTIES CALCULATION
------------------------------------------------------------------------------

Dipole Moment Calculation                       ... on
Quadrupole Moment Calculation                   ... off
Polarizability Calculation                      ... off
GBWName                                         ... 49_In.gbw
Electron density file                           ... 49_In.scfp
The origin for moment calculation is the CENTER OF MASS  = ( 0.000000,  0.000000  0.000000)

-------------
DIPOLE MOMENT
-------------
                                X             Y             Z
Electronic contribution:     -0.00000      -0.00000      -0.00000
Nuclear contribution   :      0.00000       0.00000       0.00000
                        -----------------------------------------
Total Dipole Moment    :     -0.00000      -0.00000      -0.00000
                        -----------------------------------------
Magnitude (a.u.)       :      0.00000
Magnitude (Debye)      :      0.00000



--------------------
Rotational spectrum 
--------------------
 
Rotational constants in cm-1:     0.000000     0.000000     0.000000 
Rotational constants in MHz :     0.000000     0.000000     0.000000 

 Dipole components along the rotational axes: 
x,y,z [a.u.] :    -0.000000    -0.000000    -0.000000 
x,y,z [Debye]:    -0.000000    -0.000000    -0.000000 

 

                           *** MDCI DENSITY ***

------------------------------------------------------------------------------
                       ORCA ELECTRIC PROPERTIES CALCULATION
------------------------------------------------------------------------------

Dipole Moment Calculation                       ... on
Quadrupole Moment Calculation                   ... off
Polarizability Calculation                      ... off
GBWName                                         ... 49_In.gbw
Electron density file                           ... 49_In.mdcip
The origin for moment calculation is the CENTER OF MASS  = ( 0.000000,  0.000000  0.000000)

-------------
DIPOLE MOMENT
-------------
                                X             Y             Z
Electronic contribution:      0.00000       0.00000      -0.00000
Nuclear contribution   :      0.00000       0.00000       0.00000
                        -----------------------------------------
Total Dipole Moment    :      0.00000       0.00000      -0.00000
                        -----------------------------------------
Magnitude (a.u.)       :      0.00000
Magnitude (Debye)      :      0.00000



--------------------
Rotational spectrum 
--------------------
 
Rotational constants in cm-1:     0.000000     0.000000     0.000000 
Rotational constants in MHz :     0.000000     0.000000     0.000000 

 Dipole components along the rotational axes: 
x,y,z [a.u.] :     0.000000     0.000000    -0.000000 
x,y,z [Debye]:     0.000000     0.000000    -0.000000 

 

Timings for individual modules:

Sum of individual times         ...        8.675 sec (=   0.145 min)
GTO integral calculation        ...        0.948 sec (=   0.016 min)  10.9 %
SCF iterations                  ...        4.611 sec (=   0.077 min)  53.1 %
MDCI module                     ...        3.116 sec (=   0.052 min)  35.9 %
                             ****ORCA TERMINATED NORMALLY****
TOTAL RUN TIME: 0 days 0 hours 0 minutes 9 seconds 512 msec
