
                                 *****************
                                 * O   R   C   A *
                                 *****************

           --- An Ab Initio, DFT and Semiempirical electronic structure package ---

                  #######################################################
                  #                        -***-                        #
                  #          Department of theory and spectroscopy      #
                  #               Directorship: Frank Neese             #
                  #        Max Planck Institute fuer Kohlenforschung    #
                  #                Kaiser Wilhelm Platz 1               #
                  #                 D-45470 Muelheim/Ruhr               #
                  #                      Germany                        #
                  #                                                     #
                  #                  All rights reserved                #
                  #                        -***-                        #
                  #######################################################


                         Program Version 4.2.0 -  RELEASE  -


 With contributions from (in alphabetic order):
   Daniel Aravena         : Magnetic Suceptibility
   Michael Atanasov       : Ab Initio Ligand Field Theory (pilot matlab implementation)
   Alexander A. Auer      : GIAO ZORA, VPT2
   Ute Becker             : Parallelization
   Giovanni Bistoni       : ED, misc. LED, open-shell LED, HFLED
   Martin Brehm           : Molecular dynamics
   Dmytro Bykov           : SCF Hessian
   Vijay G. Chilkuri      : MRCI spin determinant printing, contributions to CSF-ICE
   Dipayan Datta          : RHF DLPNO-CCSD density
   Achintya Kumar Dutta   : EOM-CC, STEOM-CC
   Dmitry Ganyushin       : Spin-Orbit,Spin-Spin,Magnetic field MRCI
   Miquel Garcia          : C-PCM Hessian, Gaussian charge scheme
   Yang Guo               : DLPNO-NEVPT2, CIM, IAO-localization
   Andreas Hansen         : Spin unrestricted coupled pair/coupled cluster methods
   Benjamin Helmich-Paris : CASSCF linear response (MC-RPA)
   Lee Huntington         : MR-EOM, pCC
   Robert Izsak           : Overlap fitted RIJCOSX, COSX-SCS-MP3, EOM
   Christian Kollmar      : KDIIS, OOCD, Brueckner-CCSD(T), CCSD density
   Simone Kossmann        : Meta GGA functionals, TD-DFT gradient, OOMP2, MP2 Hessian
   Martin Krupicka        : AUTO-CI
   Lucas Lang             : DCDCAS
   Dagmar Lenk            : GEPOL surface, SMD
   Dimitrios Liakos       : Extrapolation schemes; Compound Job, initial MDCI parallelization
   Dimitrios Manganas     : Further ROCIS development; embedding schemes
   Dimitrios Pantazis     : SARC Basis sets
   Taras Petrenko         : DFT Hessian,TD-DFT gradient, ASA, ECA, R-Raman, ABS, FL, XAS/XES, NRVS
   Peter Pinski           : DLPNO-MP2, DLPNO-MP2 Gradient
   Christoph Reimann      : Effective Core Potentials
   Marius Retegan         : Local ZFS, SOC
   Christoph Riplinger    : Optimizer, TS searches, QM/MM, DLPNO-CCSD(T), (RO)-DLPNO pert. Triples
   Tobias Risthaus        : Range-separated hybrids, TD-DFT gradient, RPA, STAB
   Michael Roemelt        : Original ROCIS implementation
   Masaaki Saitow         : Open-shell DLPNO-CCSD energy and density
   Barbara Sandhoefer     : DKH picture change effects
   Avijit Sen             : IP-ROCIS
   Kantharuban Sivalingam : CASSCF convergence, NEVPT2, FIC-MRCI
   Bernardo de Souza      : ESD, SOC TD-DFT
   Georgi Stoychev        : AutoAux, RI-MP2 NMR
   Willem Van den Heuvel  : Paramagnetic NMR
   Boris Wezisla          : Elementary symmetry handling
   Frank Wennmohs         : Technical directorship


 We gratefully acknowledge several colleagues who have allowed us to
 interface, adapt or use parts of their codes:
   Stefan Grimme, W. Hujo, H. Kruse,             : VdW corrections, initial TS optimization,
                  C. Bannwarth                     DFT functionals, gCP, sTDA/sTD-DF
   Ed Valeev, F. Pavosevic, A. Kumar             : LibInt (2-el integral package), F12 methods
   Garnet Chan, S. Sharma, J. Yang, R. Olivares  : DMRG
   Ulf Ekstrom                                   : XCFun DFT Library
   Mihaly Kallay                                 : mrcc  (arbitrary order and MRCC methods)
   Andreas Klamt, Michael Diedenhofen            : otool_cosmo (COSMO solvation model)
   Jiri Pittner, Ondrej Demel                    : Mk-CCSD
   Frank Weinhold                                : gennbo (NPA and NBO analysis)
   Christopher J. Cramer and Donald G. Truhlar   : smd solvation model
   Lars Goerigk                                  : TD-DFT with DH, B97 family of functionals
   V. Asgeirsson, H. Jonsson                     : NEB implementation
   FAccTs GmbH                                   : IRC, NEB, NEB-TS, Multilevel, MM, QM/MM, CI optimization
   S Lehtola, MJT Oliveira, MAL Marques          : LibXC Library


 Your calculation uses the libint2 library for the computation of 2-el integrals
 For citations please refer to: http://libint.valeyev.net

 Your ORCA version has been built with support for libXC version: 4.2.3
 For citations please refer to: https://tddft.org/programs/libxc/

 This ORCA versions uses:
   CBLAS   interface :  Fast vector & matrix operations
   LAPACKE interface :  Fast linear algebra routines
   SCALAPACK package :  Parallel linear algebra routines


----- Orbital basis set information -----
Your calculation utilizes the basis: def2-SVP
   F. Weigend and R. Ahlrichs, Phys. Chem. Chem. Phys. 7, 3297 (2005).

cite the ECPs for I  [Def2-ECP] as follows:
Ce-Yb(ecp-28): M. Dolg, H. Stoll, H.Preuss, J. Chem. Phys., 1989, 90, 1730-1734.
Y-Cd(ecp-28), Hf-Hg(ecp-46): D. Andrae,U. Haeussermann, M. Dolg, H. Stoll, H. Preuss, Theor. Chim. Acta, 1990, 77, 123-141.
In-Sb(ecp-28), Tl-Bi(ecp-46): B. Metz, H. Stoll, M. Dolg, J. Chem. Phys., 2000, 113, 2563-2569.
Te-Xe(ecp-28), Po-Rn(ecp-46): K. A. Peterson, D. Figgen, E. Goll, H. Stoll, M. Dolg, J. Chem. Phys., 2003, 119, 11113-11123.
Rb(ecp-28), Cs(ecp-46): T. Leininger, A. Nicklass, W. Kuechle, H. Stoll, M. Dolg, A. Bergner, Chem. Phys. Lett., 1996, 255, 274-280.
Sr(ecp-28), Ba(ecp-46): M. Kaupp, P. V. Schleyer, H. Stoll and H. Preuss, J. Chem. Phys., 1991, 94, 1360-1366.
La(ecp-46): M. Dolg, H. Stoll, A. Savin, H. Preuss, Theor. Chim. Acta, 1989, 75, 173-194.
Lu(ecp-28): X. Cao, M. Dolg, J. Chem. Phys., 2001, 115, 7348-7355.

ECP parameters for I  [Def2-ECP] have been obtained from:
TURBOMOLE (7.0.2)

================================================================================
                                        WARNINGS
                       Please study these warnings very carefully!
================================================================================


WARNING: your system is open-shell and RHF/RKS was chosen
  ===> : WILL SWITCH to UHF/UKS


WARNING: MDCI localization with Augmented Hessian Foster-Boys
  ===> : Switching off randomization!

WARNING: Post HF methods need fully converged wavefunctions
  ===> : Setting SCFConvForced true
         You can overwrite this default with %scf ConvForced false 


INFO   : the flag for use of LIBINT has been found!

================================================================================
                                       INPUT FILE
================================================================================
NAME = 53_I.in
|  1> #
|  2> # 53_I CCSD(T)/Def2-SVP
|  3> #
|  4> ! CCSD(T) Def2-SVP tightscf
|  5> 
|  6> *xyz 0 2
|  7>  I 0.0 0.0 0.0
|  8> *
|  9> 
| 10> %maxcore 5000 
| 11> 
| 12> %pal
| 13> nprocs 24
| 14> end
| 15> 
| 16> 
| 17>                          ****END OF INPUT****
================================================================================

                       ****************************
                       * Single Point Calculation *
                       ****************************

---------------------------------
CARTESIAN COORDINATES (ANGSTROEM)
---------------------------------
  I      0.000000    0.000000    0.000000

----------------------------
CARTESIAN COORDINATES (A.U.)
----------------------------
  NO LB      ZA    FRAG     MASS         X           Y           Z
   0 I    25.0000*   0   126.900    0.000000    0.000000    0.000000
* core charge reduced due to ECP

--------------------------------
INTERNAL COORDINATES (ANGSTROEM)
--------------------------------
 I      0   0   0     0.000000000000     0.00000000     0.00000000

---------------------------
INTERNAL COORDINATES (A.U.)
---------------------------
 I      0   0   0     0.000000000000     0.00000000     0.00000000

---------------------
BASIS SET INFORMATION
---------------------
There are 1 groups of distinct atoms

 Group   1 Type I   : 10s7p6d contracted to 4s4p2d pattern {6211/4111/51}

Atom   0I    basis set group =>   1
-------------------------
ECP PARAMETER INFORMATION
-------------------------

 Group 1, Type I  ECP Def2-ECP (replacing 28 core electrons, lmax=3)

Atom   0I    ECP group =>   1



           ************************************************************
           *        Program running with 24 parallel MPI-processes    *
           *              working on a common directory               *
           ************************************************************
------------------------------------------------------------------------------
                           ORCA GTO INTEGRAL CALCULATION
------------------------------------------------------------------------------

                         BASIS SET STATISTICS AND STARTUP INFO

 # of primitive gaussian shells          ...   23
 # of primitive gaussian functions       ...   61
 # of contracted shells                  ...   10
 # of contracted basis functions         ...   26
 Highest angular momentum                ...    2
 Maximum contraction depth               ...    6
 Integral package used                   ... LIBINT
 Integral threshhold            Thresh   ...  2.500e-11
 Primitive cut-off              TCut     ...  2.500e-12


------------------------------ INTEGRAL EVALUATION ----------------------------


 * One electron integrals 

   ECP integrals                         ... done
 Pre-screening matrix                    ... done
 Shell pair data                         ... done (   0.000 sec)



           ************************************************************
           *        Program running with 24 parallel MPI-processes    *
           *              working on a common directory               *
           ************************************************************
-------------------------------------------------------------------------------
                                 ORCA SCF
-------------------------------------------------------------------------------

------------
SCF SETTINGS
------------
Hamiltonian:
 Ab initio Hamiltonian  Method          .... Hartree-Fock(GTOs)


General Settings:
 Integral files         IntName         .... 53_I
 Hartree-Fock type      HFTyp           .... UHF
 Total Charge           Charge          ....    0
 Multiplicity           Mult            ....    2
 Number of Electrons    NEL             ....   25
 Basis Dimension        Dim             ....   26
 Nuclear Repulsion      ENuc            ....      0.0000000000 Eh

Convergence Acceleration:
 DIIS                   CNVDIIS         .... on
   Start iteration      DIISMaxIt       ....    12
   Startup error        DIISStart       ....  0.200000
   # of expansion vecs  DIISMaxEq       ....     5
   Bias factor          DIISBfac        ....   1.050
   Max. coefficient     DIISMaxC        ....  10.000
 Newton-Raphson         CNVNR           .... off
 SOSCF                  CNVSOSCF        .... off
 Level Shifting         CNVShift        .... on
   Level shift para.    LevelShift      ....    0.2500
   Turn off err/grad.   ShiftErr        ....    0.0010
 Zerner damping         CNVZerner       .... off
 Static damping         CNVDamp         .... on
   Fraction old density DampFac         ....    0.7000
   Max. Damping (<1)    DampMax         ....    0.9800
   Min. Damping (>=0)   DampMin         ....    0.0000
   Turn off err/grad.   DampErr         ....    0.1000
 Fernandez-Rico         CNVRico         .... off

SCF Procedure:
 Maximum # iterations   MaxIter         ....   125
 SCF integral mode      SCFMode         .... Direct
   Integral package                     .... LIBINT
 Reset frequency        DirectResetFreq ....    20
 Integral Threshold     Thresh          ....  2.500e-11 Eh
 Primitive CutOff       TCut            ....  2.500e-12 Eh

Convergence Tolerance:
 Convergence Check Mode ConvCheckMode   .... Total+1el-Energy
 Convergence forced     ConvForced      .... 1
 Energy Change          TolE            ....  1.000e-08 Eh
 1-El. energy change                    ....  1.000e-05 Eh
 DIIS Error             TolErr          ....  5.000e-07


Diagonalization of the overlap matrix:
Smallest eigenvalue                        ... 6.777e-02
Time for diagonalization                   ...    0.001 sec
Threshold for overlap eigenvalues          ... 1.000e-08
Number of eigenvalues below threshold      ... 0
Time for construction of square roots      ...    0.011 sec
Total time needed                          ...    0.012 sec

-------------------
DFT GRID GENERATION
-------------------

General Integration Accuracy     IntAcc      ...  4.340
Radial Grid Type                 RadialGrid  ... Gauss-Chebyshev
Angular Grid (max. acc.)         AngularGrid ... Lebedev-110
Angular grid pruning method      GridPruning ... 3 (G Style)
Weight generation scheme         WeightScheme... Becke
Basis function cutoff            BFCut       ...    1.0000e-11
Integration weight cutoff        WCut        ...    1.0000e-14
Grids for H and He will be reduced by one unit

# of grid points (after initial pruning)     ...   3282 (   0.0 sec)
# of grid points (after weights+screening)   ...   3282 (   0.0 sec)
Grid point division into batches done        ...    0.0 sec
Reduced shell lists constructed in    0.0 sec

Total number of grid points                  ...     3282
Total number of batches                      ...       52
Average number of points per batch           ...       63
Average number of grid points per atom       ...     3282
Average number of shells per batch           ...     3.75 (37.50%)
Average number of basis functions per batch  ...     9.75 (37.50%)
Average number of large shells per batch     ...     2.75 (73.33%)
Average number of large basis fcns per batch ...     7.75 (79.49%)
Maximum spatial batch extension              ...  19.06, 28.74, 28.74 au
Average spatial batch extension              ...   1.08,  1.48,  1.66 au

Time for grid setup =    0.047 sec

------------------------------
INITIAL GUESS: MODEL POTENTIAL
------------------------------
Loading Hartree-Fock densities                     ... done
  calling /sw/apps/orca/orca_4_2_0_linux_x86-64_openmpi314/orca 53_I_atom53.inp > 53_I_atom53.out in order to generate an atomic fitting density for atom 0 (I  with ECP) on-the-fly... 
    atom 0 (I ), assumed electronic state with S=2: 1s2 2s2 2p6 3s2 3p6 4s2 3d10 4p6 5s2 4d10 5p5           ... done
Calculating cut-offs                               ... done
Setting up the integral package                    ... done
Initializing the effective Hamiltonian             ... done
Starting the Coulomb interaction                   ... done (   0.0 sec)
Reading the grid                                   ... done
Mapping shells                                     ... done
Starting the XC term evaluation                    ... done (   0.0 sec)
Transforming the Hamiltonian                       ... done (   0.0 sec)
Diagonalizing the Hamiltonian                      ... done (   0.0 sec)
Back transforming the eigenvectors                 ... done (   0.0 sec)
Now organizing SCF variables                       ... done
                      ------------------
                      INITIAL GUESS DONE (   1.3 sec)
                      ------------------
--------------
SCF ITERATIONS
--------------
ITER       Energy         Delta-E        Max-DP      RMS-DP      [F,P]     Damp
               ***  Starting incremental Fock matrix formation  ***
  0   -293.6242595650   0.000000000000 0.64191719  0.03739066  1.3384461 0.7000
  1   -294.5372905432  -0.913030978186 0.52349990  0.03070785  0.8839391 0.7000
  2   -295.1768792682  -0.639588725051 0.36765012  0.02171758  0.5701955 0.7000
  3   -295.6172439064  -0.440364638133 0.25086011  0.01489972  0.3675620 0.7000
  4   -295.9244018175  -0.307157911160 0.17592903  0.01020786  0.2378311 0.7000
                               ***Turning on DIIS***
  5   -296.1399908152  -0.215588997651 0.12449918  0.00703716  0.1546389 0.7000
  6   -296.9733502127  -0.833359397493 0.09091494  0.00486843  0.1010812 0.7000
  7   -297.0079276371  -0.034577424456 0.22371629  0.01152923  0.0700741 0.0000
  8   -296.6486066051   0.359321031988 0.01164455  0.00041245  0.0033064 0.0000
  9   -296.6511706330  -0.002564027878 0.00627154  0.00023749  0.0006337 0.0000
 10   -296.6496195306   0.001551102366 0.00133718  0.00007273  0.0001440 0.0000
 11   -296.6496409837  -0.000021453031 0.00053971  0.00003647  0.0000605 0.0000
 12   -296.6496201402   0.000020843488 0.00019421  0.00001209  0.0000142 0.0000
 13   -296.6496145071   0.000005633066 0.00003630  0.00000205  0.0000019 0.0000
                            ***DIIS convergence achieved***

               *****************************************************
               *                     SUCCESS                       *
               *           SCF CONVERGED AFTER  14 CYCLES          *
               *****************************************************


----------------
TOTAL SCF ENERGY
----------------

Total Energy       :         -296.64960721 Eh           -8072.24620 eV

Components:
Nuclear Repulsion  :            0.00000000 Eh               0.00000 eV
Electronic Energy  :         -296.64960721 Eh           -8072.24620 eV
One Electron Energy:         -517.39846825 Eh          -14079.12809 eV
Two Electron Energy:          220.74886104 Eh            6006.88189 eV

Virial components:
Potential Energy   :         -410.33013716 Eh          -11165.65068 eV
Kinetic Energy     :          113.68052995 Eh            3093.40449 eV
Virial Ratio       :            3.60950233


---------------
SCF CONVERGENCE
---------------

  Last Energy change         ...    7.2987e-06  Tolerance :   1.0000e-08
  Last MAX-Density change    ...    8.4993e-06  Tolerance :   1.0000e-07
  Last RMS-Density change    ...    5.0203e-07  Tolerance :   5.0000e-09
  Last DIIS Error            ...    3.2279e-07  Tolerance :   5.0000e-07

             **** THE GBW FILE WAS UPDATED (53_I.gbw) ****
             **** DENSITY FILE WAS UPDATED (53_I.scfp) ****
             **** ENERGY FILE WAS UPDATED (53_I.en.tmp) ****
----------------------
UHF SPIN CONTAMINATION
----------------------

Expectation value of <S**2>     :     0.755775
Ideal value S*(S+1) for S=0.5   :     0.750000
Deviation                       :     0.005775

             **** THE GBW FILE WAS UPDATED (53_I.gbw) ****
             **** DENSITY FILE WAS UPDATED (53_I.scfp) ****
----------------
ORBITAL ENERGIES
----------------
                 SPIN UP ORBITALS
  NO   OCC          E(Eh)            E(eV) 
   0   1.0000      -7.761536      -211.2021 
   1   1.0000      -5.626242      -153.0978 
   2   1.0000      -5.601074      -152.4130 
   3   1.0000      -5.601074      -152.4130 
   4   1.0000      -2.316140       -63.0254 
   5   1.0000      -2.309299       -62.8392 
   6   1.0000      -2.309299       -62.8392 
   7   1.0000      -2.289168       -62.2914 
   8   1.0000      -2.289168       -62.2914 
   9   1.0000      -0.920867       -25.0581 
  10   1.0000      -0.455308       -12.3896 
  11   1.0000      -0.397803       -10.8248 
  12   1.0000      -0.397803       -10.8248 
  13   0.0000       0.396312        10.7842 
  14   0.0000       0.518852        14.1187 
  15   0.0000       0.551754        15.0140 
  16   0.0000       0.555499        15.1159 
  17   0.0000       0.555499        15.1159 
  18   0.0000       0.563125        15.3234 
  19   0.0000       0.563125        15.3234 
  20   0.0000       0.601356        16.3637 
  21   0.0000       0.601356        16.3637 
  22   0.0000      19.090603       519.4817 
  23   0.0000      19.112223       520.0700 
  24   0.0000      19.112223       520.0700 
  25   0.0000      56.316906      1532.4609 

                 SPIN DOWN ORBITALS
  NO   OCC          E(Eh)            E(eV) 
   0   1.0000      -7.753416      -210.9812 
   1   1.0000      -5.605267      -152.5271 
   2   1.0000      -5.599402      -152.3675 
   3   1.0000      -5.599402      -152.3675 
   4   1.0000      -2.304247       -62.7018 
   5   1.0000      -2.300164       -62.5906 
   6   1.0000      -2.300164       -62.5906 
   7   1.0000      -2.288118       -62.2628 
   8   1.0000      -2.288118       -62.2628 
   9   1.0000      -0.831103       -22.6155 
  10   1.0000      -0.378281       -10.2936 
  11   1.0000      -0.378281       -10.2936 
  12   0.0000      -0.050388        -1.3711 
  13   0.0000       0.414633        11.2827 
  14   0.0000       0.562516        15.3068 
  15   0.0000       0.562516        15.3068 
  16   0.0000       0.582589        15.8531 
  17   0.0000       0.607969        16.5437 
  18   0.0000       0.607969        16.5437 
  19   0.0000       0.631638        17.1877 
  20   0.0000       0.631638        17.1877 
  21   0.0000       0.641343        17.4518 
  22   0.0000      19.113653       520.1089 
  23   0.0000      19.114499       520.1320 
  24   0.0000      19.114499       520.1320 
  25   0.0000      56.319507      1532.5317 

                    ********************************
                    * MULLIKEN POPULATION ANALYSIS *
                    ********************************

--------------------------------------------
MULLIKEN ATOMIC CHARGES AND SPIN POPULATIONS
--------------------------------------------
   0 I :    0.000000    1.000000
Sum of atomic charges         :    0.0000000
Sum of atomic spin populations:    1.0000000

-----------------------------------------------------
MULLIKEN REDUCED ORBITAL CHARGES AND SPIN POPULATIONS
-----------------------------------------------------
CHARGE
  0 I s       :     3.997242  s :     3.997242
      pz      :     3.000001  p :    11.000000
      px      :     3.999999
      py      :     4.000000
      dz2     :     2.002758  d :    10.002758
      dxz     :     2.000000
      dyz     :     2.000000
      dx2y2   :     2.000000
      dxy     :     2.000000

SPIN
  0 I s       :     0.000442  s :     0.000442
      pz      :     0.999999  p :     1.000000
      px      :     0.000001
      py      :     0.000000
      dz2     :    -0.000442  d :    -0.000442
      dxz     :    -0.000000
      dyz     :    -0.000000
      dx2y2   :    -0.000000
      dxy     :     0.000000


                     *******************************
                     * LOEWDIN POPULATION ANALYSIS *
                     *******************************

-------------------------------------------
LOEWDIN ATOMIC CHARGES AND SPIN POPULATIONS
-------------------------------------------
   0 I :    0.000000    1.000000

----------------------------------------------------
LOEWDIN REDUCED ORBITAL CHARGES AND SPIN POPULATIONS
----------------------------------------------------
CHARGE
  0 I s       :     3.997242  s :     3.997242
      pz      :     3.000001  p :    11.000000
      px      :     3.999999
      py      :     4.000000
      dz2     :     2.002758  d :    10.002758
      dxz     :     2.000000
      dyz     :     2.000000
      dx2y2   :     2.000000
      dxy     :     2.000000

SPIN
  0 I s       :     0.000442  s :     0.000442
      pz      :     0.999999  p :     1.000000
      px      :     0.000001
      py      :     0.000000
      dz2     :    -0.000442  d :    -0.000442
      dxz     :    -0.000000
      dyz     :    -0.000000
      dx2y2   :    -0.000000
      dxy     :     0.000000


                      *****************************
                      * MAYER POPULATION ANALYSIS *
                      *****************************

  NA   - Mulliken gross atomic population
  ZA   - Total nuclear charge
  QA   - Mulliken gross atomic charge
  VA   - Mayer's total valence
  BVA  - Mayer's bonded valence
  FA   - Mayer's free valence

  ATOM       NA         ZA         QA         VA         BVA        FA
  0 I     25.0000    25.0000     0.0000     1.0116     0.0000     1.0116

  Mayer bond orders larger than 0.100000


-------
TIMINGS
-------

Total SCF time: 0 days 0 hours 0 min 3 sec 

Total time                  ....       3.850 sec
Sum of individual times     ....       3.363 sec  ( 87.4%)

Fock matrix formation       ....       1.869 sec  ( 48.5%)
Diagonalization             ....       0.041 sec  (  1.1%)
Density matrix formation    ....       0.001 sec  (  0.0%)
Population analysis         ....       0.053 sec  (  1.4%)
Initial guess               ....       1.234 sec  ( 32.0%)
Orbital Transformation      ....       0.000 sec  (  0.0%)
Orbital Orthonormalization  ....       0.000 sec  (  0.0%)
DIIS solution               ....       0.119 sec  (  3.1%)


           ************************************************************
           *        Program running with 24 parallel MPI-processes    *
           *              working on a common directory               *
           ************************************************************


------------------------------------------------------------------------------- 
                              ORCA-MATRIX DRIVEN CI                            
------------------------------------------------------------------------------- 

--------------------------------
AUTOMATIC CHOICE OF INCORE LEVEL
--------------------------------

Memory available                           ...   2500.00 MB
Memory needed for S+T                      ...      0.17 MB
Memory needed for J+K                      ...      0.36 MB
Memory needed for DIIS                     ...      2.44 MB
Memory needed for 3-ext                    ...      0.15 MB
Memory needed for 4-ext                    ...      0.12 MB
Memory needed for triples                  ...      0.08 MB
 -> Final InCoreLevel    ... 5
 -> check shows that triples correction can be computed


Wavefunction type
-----------------
Correlation treatment                      ...      CCSD     
Single excitations                         ... ON
Orbital optimization                       ... OFF
Calculation of Z vector                    ... OFF
Calculation of Brueckner orbitals          ... OFF
Perturbative triple excitations            ... ON
Calculation of F12 correction              ... OFF
Frozen core treatment                      ... chemical core (8 el)
Reference Wavefunction                     ... UHF
  Alpha-MOs occ    :     4 ...   12 (  9 MO's/  9 electrons)
  Beta-MOs occ     :     4 ...   11 (  8 MO's/  8 electrons)
  Alpha-MOs virt   :    13 ...   25 ( 13 MO's              )
  Beta-MOs virt    :    12 ...   25 ( 14 MO's              )
Number of AO's                             ...     26
Number of electrons                        ...     25
Number of correlated electrons             ...     17

Algorithmic settings
--------------------
Integral transformation                    ... AO direct full transformation
K(C) Formation                             ... FULL-MO TRAFO
Maximum number of iterations               ...        50
Convergence tolerance (max. residuum)      ... 1.000e-05
Level shift for amplitude update           ... 2.000e-01
Maximum number of DIIS vectors             ...         7
DIIS turned on at iteration                ...         0
Damping before turning on DIIS             ...     0.500
Damping after turning on DIIS              ...     0.000
Pair specific amplitude update             ... OFF
Natural orbital iterations                 ... OFF
Perturbative natural orbital generation    ... OFF
Printlevel                                 ... 2

Memory handling:
----------------
Maximum memory for working arrays          ...   2500 MB
Data storage in matrix containers          ... UNCOMPRESSED
Data type for integral storage             ... DOUBLE
In-Core Storage of quantities:
   Amplitudes+Sigma Vector      ... YES
   J+K operators                ... YES
   DIIS vectors                 ... YES
   3-external integrals         ... YES
   4-external integrals         ... YES


Initializing the integral package          ... done
Warning: reference  - re-canonicalizations have been set to INT 1 VIRT 1

--------------------------
UNRESTRICTED FOCK OPERATOR
--------------------------

<ss|ss>:           55 b            0 skpd (  0.0%)    0.000 s ( 0.001 ms/b)
<ss|sp>:          160 b            0 skpd (  0.0%)    0.000 s ( 0.001 ms/b)
<ss|sd>:           80 b            0 skpd (  0.0%)    0.000 s ( 0.005 ms/b)
<ss|pp>:          100 b            0 skpd (  0.0%)    0.000 s ( 0.001 ms/b)
<ss|pd>:           80 b            0 skpd (  0.0%)    0.000 s ( 0.002 ms/b)
<ss|dd>:           30 b            0 skpd (  0.0%)    0.001 s ( 0.026 ms/b)
<sp|sp>:          136 b            0 skpd (  0.0%)    0.000 s ( 0.001 ms/b)
<sp|sd>:          128 b            0 skpd (  0.0%)    0.001 s ( 0.005 ms/b)
<sp|pp>:          160 b            0 skpd (  0.0%)    0.000 s ( 0.001 ms/b)
<sp|pd>:          128 b            0 skpd (  0.0%)    0.000 s ( 0.003 ms/b)
<sp|dd>:           48 b            0 skpd (  0.0%)    0.002 s ( 0.034 ms/b)
<sd|sd>:           36 b            0 skpd (  0.0%)    0.001 s ( 0.027 ms/b)
<sd|pp>:           80 b            0 skpd (  0.0%)    0.000 s ( 0.004 ms/b)
<sd|pd>:           64 b            0 skpd (  0.0%)    0.001 s ( 0.012 ms/b)
<sd|dd>:           24 b            0 skpd (  0.0%)    0.003 s ( 0.133 ms/b)
<pp|pp>:           55 b            0 skpd (  0.0%)    0.000 s ( 0.004 ms/b)
<pp|pd>:           80 b            0 skpd (  0.0%)    0.000 s ( 0.006 ms/b)
<pp|dd>:           30 b            0 skpd (  0.0%)    0.002 s ( 0.068 ms/b)
<pd|pd>:           36 b            0 skpd (  0.0%)    0.001 s ( 0.031 ms/b)
<pd|dd>:           24 b            0 skpd (  0.0%)    0.005 s ( 0.217 ms/b)
<dd|dd>:            6 b            0 skpd (  0.0%)    0.007 s ( 1.200 ms/b)
Recanonicalizing the internal orbitals
Recanonicalizing the virtual orbitals
Time needed for Fock operator              ...            0.167 sec
Reference energy                           ...   -296.649606476
Warning: for UHF the TrafoType has to be JK
Warning: for UHF the K(C)-option cannot be MO but must be AOX

-------------------------------
PARTIAL EXCHANGE TRANSFORMATION
-------------------------------

Transformation type                        ... two-operators
Generation of integrals (i,mue|j,nue)      ... ON
Generation of integrals (mue,kappa|nue,tau)... ON
Generation of integrals (i,mue|a,nue)      ... ON
Dimension of the basis                     ...   26
Number of internal alpha-MOs               ...    9 (   4-  12)
Number of internal beta-MOs                ...    8 (   4-  11)
Number of external alpha-MOs               ...   13 (  13-  25)
Number of external beta-MOs                ...   14 (  12-  25)
Pair cutoff                                ... 0.000e+00 Eh
Number of AO pairs in the trafo            ...  351
Total Number of distinct AO pairs          ...  351
Memory devoted for trafo                   ... 2500.0 MB 
Max. Number of MO pairs treated together   ... 484733      
Number Format for Storage                  ... Double (8 Byte)
Integral package used                      ... LIBINT

Starting integral evaluation:
    ... done with AO integral generation
Closing buffer AOK[aa] ( 0.00 GB; CompressionRatio= 0.00)
Closing buffer AOK[bb] ( 0.00 GB; CompressionRatio= 0.00)
Closing buffer AOK[ab] ( 0.00 GB; CompressionRatio= 0.00)
Closing buffer AOK[ba] ( 0.00 GB; CompressionRatio= 0.00)
Collecting buffer AOK 
Closing buffer IAAO1[aa] ( 0.00 GB; CompressionRatio= 0.00)
Closing buffer IAAO1[bb] ( 0.00 GB; CompressionRatio= 0.00)
Closing buffer IAAO1[ab] ( 0.00 GB; CompressionRatio= 0.00)
Closing buffer IAAO1[ba] ( 0.00 GB; CompressionRatio= 0.00)
Closing buffer IAAO2[aa] ( 0.00 GB; CompressionRatio= 0.00)
Closing buffer IAAO2[bb] ( 0.00 GB; CompressionRatio= 0.00)
Closing buffer IAAO2[ab] ( 0.00 GB; CompressionRatio= 0.00)
Closing buffer IAAO2[ba] ( 0.00 GB; CompressionRatio= 0.00)
Collecting buffer IAAO 
Closing buffer PRQS    ( 0.00 GB; CompressionRatio= 0.00)
Collecting buffer PRQS 
Number of alpha/alpha MO pairs in trafo    ...   45
Number of beta /beta  MO pairs in trafo    ...   36
Number of alpha/ beta MO pairs in trafo    ...   72
------------------------
SORTING OF (i,mue|j,nue)
------------------------

SORTING OF ALPHA/ALPHA PAIRS
IBATCH = 1 of  1
Closing buffer KAO[aa] ( 0.00 GB; CompressionRatio= 1.00)
Collecting buffer KAO 
SORTING OF BETA /BETA  PAIRS
IBATCH = 1 of  1
Closing buffer KAO[bb] ( 0.00 GB; CompressionRatio= 1.00)
Collecting buffer KAO 
SORTING OF ALPHA/BETA  PAIRS
IBATCH = 1 of  1
Closing buffer KAO[ab] ( 0.00 GB; CompressionRatio= 0.997785977860)
Collecting buffer KAO[ab] 
------------------------
SORTING OF (i,mue|a,nue)
------------------------

Number of alpha/alpha (i,a) pairs in trafo  ...  117
Number of beta /beta  (i,a) pairs in trafo  ...  112
Number of alpha/ beta (i,a) pairs in trafo  ...  126
Number of beta /alpha (i,a) pairs in trafo  ...  104
Setting up the alpha/alpha list             ... done
Setting up the beta /beta  list             ... done
Setting up the alpha/beta  list             ... done
Setting up the beta /alpha list             ... done
    ... Now sorting (i,mue|a,nue)integrals
    ... Integrals (i,b|a,c) will be made on the fly
SORTING OF ALPHA/ALPHA PAIRS
IBATCH = 1 of  1
Closing buffer IPAQ[aa]  0.00 GB; CompressionRatio= 1.00)
SORTING OF BETA /BETA  PAIRS
IBATCH = 1 of  1
Closing buffer IPAQ[bb]( 0.00 GB; CompressionRatio= 1.00)
SORTING OF ALPHA/BETA  PAIRS (NMatSort_ab=6)
IBATCH = 1 of  1
Closing buffer IPAQ[ab]( 0.00 GB; CompressionRatio= 1.00)
SORTING OF BETA/ALPHA  PAIRS
IBATCH = 1 of  1
Closing buffer IPAQ[ba]( 0.00 GB; CompressionRatio= 1.00)
N(AO-Batches) Done                         ...         0 
N(AO-Batches) Skipped                      ...         0 
N(IJ)-pairs Skipped                        ...         0 
TOTAL TIME for half transformation         ...     1.411 sec
AO-integral generation                     ...     0.000 sec
Half transformation                        ...     0.000 sec
K-integral sorting                         ...     0.608 sec
<ss|**>: 
------------------------------
PARTIAL COULOMB TRANSFORMATION
------------------------------

Transformation type                        ... two-operators
Dimension of the basis                     ...   26
Number of internal alpha-MOs               ...    9 (4-12)
Number of internal beta-MOs                ...    8 (4-11)
Pair cutoff                                ... 0.000e+00 Eh
Number of AO pairs included in the trafo   ...  351
Total Number of distinct AO pairs          ...  351
Memory devoted for trafo                   ... 2500.0 MB 
Max. Number of MO pairs treated together   ... 933561      
Max. Number of MOs treated per batch       ... 35906      
Number Format for Storage                  ... Double (8 Byte)
AO-integral source                         ... DIRECT
Integral package used                      ... LIBINT

Starting integral evaluation:
<sp|**>:          550 b        0 skpd     0.002 s (  0.004 ms/b)
<sd|**>:          880 b        0 skpd     0.007 s (  0.008 ms/b)
         440 b        0 skpd     0.007 s (  0.017 ms/b)
<pp|**>:          550 b        0 skpd     0.014 s (  0.025 ms/b)
<pd|**>:          440 b        0 skpd     0.018 s (  0.042 ms/b)
<dd|**>:          165 b        0 skpd     0.018 s (  0.108 ms/b)
Closing buffer AOJ[aa] ( 0.00 GB; CompressionRatio= 0.97)
Closing buffer AOJ[bb] ( 0.00 GB; CompressionRatio= 0.00)
Collecting buffer AOJ 
    ... done with AO integral generation
Number of Alpha-MO pairs included          ...   45
Number of Beta-MO pairs included           ...   36
    ... Now sorting integrals
SORTING ALPHA/ALPHA PAIRS
IBATCH = 1 of  1
Closing buffer JAO[aa] ( 0.00 GB; CompressionRatio= 1.00)
SORTING BETA/BETA PAIRS
IBATCH = 1 of  1
Closing buffer JAO[bb] ( 0.00 GB; CompressionRatio= 1.00)
Collecting buffer JAO 
TOTAL TIME for half transformation         ...     0.184 sec
AO-integral generation                     ...     0.026 sec
Half transformation                        ...     0.041 sec
J-integral sorting                         ...     0.094 sec

-------------------------- SECOND HALF TRANSFORMATION -------------------------
Formation of (ij|kl),(ij|ka), (ij|ab)      ... ok (     0.113 sec)
Formation of (ik|jl),(ik|ja), (ia|jb)      ... ok (     0.169 sec)


-----------------------
SPIN UNRESTRICTED GUESS
-----------------------

Entering MDCI_UHF_Guess, Tailored=0
Spin-components of the MP2 energy:
EMP2(aa)=     -0.018352567
EMP2(bb)=     -0.010572522
EMP2(ab)=     -0.068427283

Initial guess performed in     0.002 sec
E(0)                                       ...   -296.649606476
E(MP2)                                     ...     -0.097352373
Initial E(tot)                             ...   -296.746958848
<T|T>                                      ...      0.042143172
Number of pairs included                   ... 136

------------------------------------------------
                  UHF COUPLED CLUSTER ITERATIONS
------------------------------------------------

Number of amplitudes to be optimized       ...        18986

Iter       E(tot)           E(Corr)          Delta-E          Residual     Time      <S|S>**1/2
  0   -296.746958848     -0.097352373     -0.000000000      0.016204633    0.05      0.000000519
                           *** Turning on DIIS ***
  1   -296.754696728     -0.105090252     -0.007737880      0.007736756    0.03      0.008514759
  2   -296.757583198     -0.107976723     -0.002886470      0.001953545    0.03      0.012476401
  3   -296.757902056     -0.108295580     -0.000318858      0.000336027    0.03      0.013549653
  4   -296.757908104     -0.108301629     -0.000006048      0.000082287    0.04      0.013705075
  5   -296.757910708     -0.108304233     -0.000002604      0.000026028    0.04      0.013726501
  6   -296.757910870     -0.108304395     -0.000000162      0.000006921    0.04      0.013728052
               --- The Coupled-Cluster iterations have converged ---

----------------------
COUPLED CLUSTER ENERGY
----------------------

E(0)                                       ...   -296.649606476
E(CORR)                                    ...     -0.108304395
E(TOT)                                     ...   -296.757910870
Singles norm <S|S>**1/2                    ...      0.013728052 ( 0.004521312, 0.009206739)  
T1 diagnostic                              ...      0.003329542                              

------------------
LARGEST AMPLITUDES
------------------
  10a-> 15a   9b-> 12b       0.050193
  11a-> 19a   9b-> 12b       0.039695
  12a-> 18a   9b-> 12b       0.039695
  12a-> 20a  10b-> 17b       0.038321
  11a-> 21a  11b-> 18b       0.038321
  12a-> 21a  10b-> 18b       0.038321
  11a-> 20a  11b-> 17b       0.038321
  12a-> 20a  11a-> 21a       0.037284
  12a-> 21a  11a-> 20a       0.037284
  11b-> 18b  10b-> 17b       0.035734
  11b-> 17b  10b-> 18b       0.035734
  11a-> 19a  11b-> 19b       0.033756
  12a-> 18a  10b-> 20b       0.033756
  11a-> 16a  11b-> 14b       0.031714
  12a-> 17a  10b-> 15b       0.031714
  11a-> 15a  10a-> 19a       0.027225

----------------------
UHF TRIPLES CORRECTION (Algorithm 1)
----------------------

Multiplier for the singles contribution    ...      1.000000000

SPIN-CASE Alpha-Alpha-Alpha:
10% done
20% done
30% done
40% done
50% done
60% done
70% done
80% done
90% done


SPIN-CASE Beta-Beta-Beta:
10% done
20% done
30% done
40% done
50% done
60% done
70% done
80% done
90% done


SPIN-CASE Alpha-Alpha-Beta:
10% done
20% done
30% done
40% done
50% done
60% done
70% done
80% done
90% done


SPIN-CASE Beta-Beta-Alpha:
10% done
20% done
30% done
40% done
50% done
60% done
70% done
80% done
90% done


Triples Correction (T)                     ...     -0.001203954
    alpha-alpha-alpha ... -0.000052732 (  4.4%)
    alpha-alpha-beta  ... -0.000644664 ( 53.5%)
    alpha-beta -beta  ... -0.000476247 ( 39.6%)
    beta -beta -beta  ... -0.000030311 (  2.5%)
Scaling of triples based on CCSD energies (Peterson et al. Molecular Physics 113, 1551 (2015))
E(T*) = f*E(T) where f = E(F12-CCSD)/E(CCSD) 
f = CCSD (with F12)/ CCSD (without F12)    ...      1.000000000
Scaled triples correction (T)              ...     -0.001203954

Final correlation energy                   ...     -0.109508348
E(CCSD)                                    ...   -296.757910870
E(CCSD(T))                                 ...   -296.759114824



        !!!!!!!!!!!!!!!!!!!!!!!!!!!!!!!!!!!!!!!!!!!!!!!!!!!!!!!!!!!!!!!!!!!!!!!!!! 
        !  Warning: Densities are linearized densities                           !
        !!!!!!!!!!!!!!!!!!!!!!!!!!!!!!!!!!!!!!!!!!!!!!!!!!!!!!!!!!!!!!!!!!!!!!!!!! 

NORM  =      1.055308623 sqrt=     1.027282153
W(HF) =      0.947590097
------------------------------------------------------------------------------
                           ORCA POPULATION ANALYSIS
------------------------------------------------------------------------------
Input electron density              ... 53_I.mdcip
Input spin density                  ... 53_I.mdcir
BaseName (.gbw .S,...)              ... 53_I

                    ********************************
                    * MULLIKEN POPULATION ANALYSIS *
                    ********************************

------------------------------------------
MULLIKEN ATOMIC CHARGES AND SPIN DENSITIES
------------------------------------------
   0 I :    0.000000    1.000000
Sum of atomic charges       :    0.0000000
Sum of atomic spin densities:    1.0000000

---------------------------------------------------
MULLIKEN REDUCED ORBITAL CHARGES AND SPIN DENSITIES
---------------------------------------------------
CHARGE
  0 I s       :     3.983607  s :     3.983607
      pz      :     3.000621  p :    10.946828
      px      :     3.973103
      py      :     3.973104
      dz2     :     2.012652  d :    10.069566
      dxz     :     2.013358
      dyz     :     2.013358
      dx2y2   :     2.015099
      dxy     :     2.015099

SPIN
  0 I s       :     0.006341  s :     0.006341
      pz      :     0.978911  p :     0.978028
      px      :    -0.000441
      py      :    -0.000442
      dz2     :     0.006960  d :     0.015631
      dxz     :     0.004879
      dyz     :     0.004879
      dx2y2   :    -0.000544
      dxy     :    -0.000544


                     *******************************
                     * LOEWDIN POPULATION ANALYSIS *
                     *******************************

-----------------------------------------
LOEWDIN ATOMIC CHARGES AND SPIN DENSITIES
-----------------------------------------
   0 I :    0.000000    1.000000

--------------------------------------------------
LOEWDIN REDUCED ORBITAL CHARGES AND SPIN DENSITIES
--------------------------------------------------
CHARGE
  0 I s       :     3.983607  s :     3.983607
      pz      :     3.000621  p :    10.946828
      px      :     3.973103
      py      :     3.973104
      dz2     :     2.012652  d :    10.069566
      dxz     :     2.013358
      dyz     :     2.013358
      dx2y2   :     2.015099
      dxy     :     2.015099

SPIN
  0 I s       :     0.006341  s :     0.006341
      pz      :     0.978911  p :     0.978028
      px      :    -0.000441
      py      :    -0.000442
      dz2     :     0.006960  d :     0.015631
      dxz     :     0.004879
      dyz     :     0.004879
      dx2y2   :    -0.000544
      dxy     :    -0.000544


                      *****************************
                      * MAYER POPULATION ANALYSIS *
                      *****************************

  NA   - Mulliken gross atomic population
  ZA   - Total nuclear charge
  QA   - Mulliken gross atomic charge
  VA   - Mayer's total valence
  BVA  - Mayer's bonded valence
  FA   - Mayer's free valence

  ATOM       NA         ZA         QA         VA         BVA        FA
  0 I     25.0000    25.0000     0.0000     1.3932     0.0000     1.3932





------------------------------------------------------------------------------- 
                                     TIMINGS                                   
------------------------------------------------------------------------------- 


Total execution time                   ...        2.749 sec

Fock Matrix Formation                  ...        0.167 sec (  6.1%)
Initial Guess                          ...        0.002 sec (  0.1%)
DIIS Solver                            ...        0.021 sec (  0.7%)
State Vector Update                    ...        0.004 sec (  0.1%)
Sigma-vector construction              ...        0.238 sec (  8.7%)
  <D|H|D>(2-ext)                       ...        0.003 sec (  1.1% of sigma)
  <D|H|D>(4-ext)                       ...        0.068 sec ( 28.4% of sigma)
  <S|H|0>                              ...        0.003 sec (  1.3% of sigma)
  <D|H|S>(1-ext)                       ...        0.003 sec (  1.2% of sigma)
  Fock-dressing                        ...        0.078 sec ( 32.9% of sigma)
  (ik|jl)-dressing                     ...        0.001 sec (  0.5% of sigma)
  (ij|ab),(ia|jb)-dressing             ...        0.059 sec ( 24.9% of sigma)
Total Time for computing (T)           ...        0.005 sec (  0.2% of ALL)
  I/O of integral and amplitudes       ...        0.001 sec ( 21.0% of (T))
  N**6 triples energy contributions    ...        0.001 sec ( 29.9% of (T))


-------------------------   --------------------
FINAL SINGLE POINT ENERGY      -296.759114824000
-------------------------   --------------------


                            ***************************************
                            *     ORCA property calculations      *
                            ***************************************

                                    ---------------------
                                    Active property flags
                                    ---------------------
   (+) Dipole Moment


------------------------------------------------------------------------------
                       ORCA ELECTRIC PROPERTIES CALCULATION
------------------------------------------------------------------------------

Dipole Moment Calculation                       ... on
Quadrupole Moment Calculation                   ... off
Polarizability Calculation                      ... off
GBWName                                         ... 53_I.gbw
Electron density file                           ... 53_I.scfp
The origin for moment calculation is the CENTER OF MASS  = ( 0.000000,  0.000000  0.000000)

-------------
DIPOLE MOMENT
-------------
                                X             Y             Z
Electronic contribution:      0.00000       0.00000       0.00000
Nuclear contribution   :      0.00000       0.00000       0.00000
                        -----------------------------------------
Total Dipole Moment    :      0.00000       0.00000       0.00000
                        -----------------------------------------
Magnitude (a.u.)       :      0.00000
Magnitude (Debye)      :      0.00000



--------------------
Rotational spectrum 
--------------------
 
Rotational constants in cm-1:     0.000000     0.000000     0.000000 
Rotational constants in MHz :     0.000000     0.000000     0.000000 

 Dipole components along the rotational axes: 
x,y,z [a.u.] :     0.000000     0.000000     0.000000 
x,y,z [Debye]:     0.000000     0.000000     0.000000 

 

                           *** MDCI DENSITY ***

------------------------------------------------------------------------------
                       ORCA ELECTRIC PROPERTIES CALCULATION
------------------------------------------------------------------------------

Dipole Moment Calculation                       ... on
Quadrupole Moment Calculation                   ... off
Polarizability Calculation                      ... off
GBWName                                         ... 53_I.gbw
Electron density file                           ... 53_I.mdcip
The origin for moment calculation is the CENTER OF MASS  = ( 0.000000,  0.000000  0.000000)

-------------
DIPOLE MOMENT
-------------
                                X             Y             Z
Electronic contribution:     -0.00000      -0.00000      -0.00000
Nuclear contribution   :      0.00000       0.00000       0.00000
                        -----------------------------------------
Total Dipole Moment    :     -0.00000      -0.00000      -0.00000
                        -----------------------------------------
Magnitude (a.u.)       :      0.00000
Magnitude (Debye)      :      0.00000



--------------------
Rotational spectrum 
--------------------
 
Rotational constants in cm-1:     0.000000     0.000000     0.000000 
Rotational constants in MHz :     0.000000     0.000000     0.000000 

 Dipole components along the rotational axes: 
x,y,z [a.u.] :    -0.000000    -0.000000    -0.000000 
x,y,z [Debye]:    -0.000000    -0.000000    -0.000000 

 

Timings for individual modules:

Sum of individual times         ...        8.473 sec (=   0.141 min)
GTO integral calculation        ...        0.940 sec (=   0.016 min)  11.1 %
SCF iterations                  ...        4.281 sec (=   0.071 min)  50.5 %
MDCI module                     ...        3.252 sec (=   0.054 min)  38.4 %
                             ****ORCA TERMINATED NORMALLY****
TOTAL RUN TIME: 0 days 0 hours 0 minutes 9 seconds 347 msec
