
                                 *****************
                                 * O   R   C   A *
                                 *****************

           --- An Ab Initio, DFT and Semiempirical electronic structure package ---

                  #######################################################
                  #                        -***-                        #
                  #          Department of theory and spectroscopy      #
                  #               Directorship: Frank Neese             #
                  #        Max Planck Institute fuer Kohlenforschung    #
                  #                Kaiser Wilhelm Platz 1               #
                  #                 D-45470 Muelheim/Ruhr               #
                  #                      Germany                        #
                  #                                                     #
                  #                  All rights reserved                #
                  #                        -***-                        #
                  #######################################################


                         Program Version 4.2.0 -  RELEASE  -


 With contributions from (in alphabetic order):
   Daniel Aravena         : Magnetic Suceptibility
   Michael Atanasov       : Ab Initio Ligand Field Theory (pilot matlab implementation)
   Alexander A. Auer      : GIAO ZORA, VPT2
   Ute Becker             : Parallelization
   Giovanni Bistoni       : ED, misc. LED, open-shell LED, HFLED
   Martin Brehm           : Molecular dynamics
   Dmytro Bykov           : SCF Hessian
   Vijay G. Chilkuri      : MRCI spin determinant printing, contributions to CSF-ICE
   Dipayan Datta          : RHF DLPNO-CCSD density
   Achintya Kumar Dutta   : EOM-CC, STEOM-CC
   Dmitry Ganyushin       : Spin-Orbit,Spin-Spin,Magnetic field MRCI
   Miquel Garcia          : C-PCM Hessian, Gaussian charge scheme
   Yang Guo               : DLPNO-NEVPT2, CIM, IAO-localization
   Andreas Hansen         : Spin unrestricted coupled pair/coupled cluster methods
   Benjamin Helmich-Paris : CASSCF linear response (MC-RPA)
   Lee Huntington         : MR-EOM, pCC
   Robert Izsak           : Overlap fitted RIJCOSX, COSX-SCS-MP3, EOM
   Christian Kollmar      : KDIIS, OOCD, Brueckner-CCSD(T), CCSD density
   Simone Kossmann        : Meta GGA functionals, TD-DFT gradient, OOMP2, MP2 Hessian
   Martin Krupicka        : AUTO-CI
   Lucas Lang             : DCDCAS
   Dagmar Lenk            : GEPOL surface, SMD
   Dimitrios Liakos       : Extrapolation schemes; Compound Job, initial MDCI parallelization
   Dimitrios Manganas     : Further ROCIS development; embedding schemes
   Dimitrios Pantazis     : SARC Basis sets
   Taras Petrenko         : DFT Hessian,TD-DFT gradient, ASA, ECA, R-Raman, ABS, FL, XAS/XES, NRVS
   Peter Pinski           : DLPNO-MP2, DLPNO-MP2 Gradient
   Christoph Reimann      : Effective Core Potentials
   Marius Retegan         : Local ZFS, SOC
   Christoph Riplinger    : Optimizer, TS searches, QM/MM, DLPNO-CCSD(T), (RO)-DLPNO pert. Triples
   Tobias Risthaus        : Range-separated hybrids, TD-DFT gradient, RPA, STAB
   Michael Roemelt        : Original ROCIS implementation
   Masaaki Saitow         : Open-shell DLPNO-CCSD energy and density
   Barbara Sandhoefer     : DKH picture change effects
   Avijit Sen             : IP-ROCIS
   Kantharuban Sivalingam : CASSCF convergence, NEVPT2, FIC-MRCI
   Bernardo de Souza      : ESD, SOC TD-DFT
   Georgi Stoychev        : AutoAux, RI-MP2 NMR
   Willem Van den Heuvel  : Paramagnetic NMR
   Boris Wezisla          : Elementary symmetry handling
   Frank Wennmohs         : Technical directorship


 We gratefully acknowledge several colleagues who have allowed us to
 interface, adapt or use parts of their codes:
   Stefan Grimme, W. Hujo, H. Kruse,             : VdW corrections, initial TS optimization,
                  C. Bannwarth                     DFT functionals, gCP, sTDA/sTD-DF
   Ed Valeev, F. Pavosevic, A. Kumar             : LibInt (2-el integral package), F12 methods
   Garnet Chan, S. Sharma, J. Yang, R. Olivares  : DMRG
   Ulf Ekstrom                                   : XCFun DFT Library
   Mihaly Kallay                                 : mrcc  (arbitrary order and MRCC methods)
   Andreas Klamt, Michael Diedenhofen            : otool_cosmo (COSMO solvation model)
   Jiri Pittner, Ondrej Demel                    : Mk-CCSD
   Frank Weinhold                                : gennbo (NPA and NBO analysis)
   Christopher J. Cramer and Donald G. Truhlar   : smd solvation model
   Lars Goerigk                                  : TD-DFT with DH, B97 family of functionals
   V. Asgeirsson, H. Jonsson                     : NEB implementation
   FAccTs GmbH                                   : IRC, NEB, NEB-TS, Multilevel, MM, QM/MM, CI optimization
   S Lehtola, MJT Oliveira, MAL Marques          : LibXC Library


 Your calculation uses the libint2 library for the computation of 2-el integrals
 For citations please refer to: http://libint.valeyev.net

 Your ORCA version has been built with support for libXC version: 4.2.3
 For citations please refer to: https://tddft.org/programs/libxc/

 This ORCA versions uses:
   CBLAS   interface :  Fast vector & matrix operations
   LAPACKE interface :  Fast linear algebra routines
   SCALAPACK package :  Parallel linear algebra routines


----- Orbital basis set information -----
Your calculation utilizes the basis: def2-SVP
   F. Weigend and R. Ahlrichs, Phys. Chem. Chem. Phys. 7, 3297 (2005).

----- AuxJ basis set information -----
Your calculation utilizes the auxiliary basis: def2/J
   F. Weigend, Phys. Chem. Chem. Phys. 8, 1057 (2006).

================================================================================
                                        WARNINGS
                       Please study these warnings very carefully!
================================================================================


INFO   : the flag for use of LIBINT has been found!

================================================================================
                                       INPUT FILE
================================================================================
NAME = 57_La_atom57.inp
|  1> # input to generate an atomic fitting density for La
|  2> # this file is use internally by ORCA
|  3> #
|  4> # atomic ground state (S=2): 1s2 2s2 2p6 3s2 3p6 4s2 3d10 4p6 5s2 4d10 5p6 6s2 5d1 
|  5> #
|  6> ! RHF AllowRHF def2-SVP def2/J  NoMulliken NoLoewdin NoMayer NoPrintMOs 
|  7> 
|  8> %output print[p_atomdensfit] 2 end
|  9> 
| 10> %scf
| 11>   guess hcore
| 12>   maxiter 1000
| 13>   maxdisk 500000
| 14>   SCFMode Conventional
| 15>   lshift 0.100000
| 16>   hftyp rohf
| 17>   rohf_case sahf
| 18>   rohf_numop   2
| 19>   rohf_norb[1] 5
| 20>   rohf_nel[1]  1
| 21> end
| 22> 
| 23> %basis
| 24>   NewECP 57
| 25>     N_core 46
| 26>     lmax f
| 27>     s 3
| 28>       1       3.3099000000     91.9321770000  2
| 29>       2       1.6550000000     -3.7887640000  2
| 30>       3       4.0286000000     36.0100160000  2
| 31>     p 3
| 32>       1       2.8368000000     63.7594860000  2
| 33>       2       1.4184000000     -0.6479580000  2
| 34>       3       4.0286000000     36.0100160000  2
| 35>     d 3
| 36>       1       2.0213000000     36.1161730000  2
| 37>       2       1.0107000000      0.2191140000  2
| 38>       3       4.0286000000     36.0100160000  2
| 39>     f 1
| 40>       1       4.0286000000    -36.0100160000  2
| 41>   end
| 42>   NewGTO 57
| 43>     s 2 
| 44>      1       5.0873990000     -1.0478700509
| 45>      2       4.2709780000      2.0356076574
| 46>     s 1 
| 47>      1       2.1823803999      1.0000000000
| 48>     s 1 
| 49>      1       0.4895492646      1.0000000000
| 50>     s 1 
| 51>      1       0.2329203255      1.0000000000
| 52>     s 1 
| 53>      1       0.0555955299      1.0000000000
| 54>     s 1 
| 55>      1       0.0227951849      1.0000000000
| 56>     p 4 
| 57>      1       3.0251610000     -0.3230924218
| 58>      2       2.3820950000      0.5846625537
| 59>      3       0.6724665808     -0.5067135755
| 60>      4       0.3251942717     -0.6654516285
| 61>     p 1 
| 62>      1       0.1363548937      1.0000000000
| 63>     p 1 
| 64>      1       0.0251000000      1.0000000000
| 65>     d 4 
| 66>      1       1.2667182018     -0.1949129974
| 67>      2       0.8904988267      0.2808490305
| 68>      3       0.3294729104      0.4983447351
| 69>      4       0.1339878883      0.5014083697
| 70>     d 1 
| 71>      1       0.0512755031      1.0000000000
| 72>     f 1 
| 73>      1       0.2568300000      1.0000000000
| 74>   end
| 75>   NewAuxGTO 57
| 76>     S 1
| 77>      1 1310.72 1.0
| 78>     S 1
| 79>      1  655.36 1.0
| 80>     S 1
| 81>      1  327.68 1.0
| 82>     S 1
| 83>      1  163.84 1.0
| 84>     S 1
| 85>      1   81.82 1.0
| 86>     S 1
| 87>      1   40.96 1.0
| 88>     S 1
| 89>      1   20.48 1.0
| 90>     S 1
| 91>      1   10.24 1.0
| 92>     S 1
| 93>      1    5.12 1.0
| 94>     S 1
| 95>      1    2.56 1.0
| 96>     S 1
| 97>      1    1.28 1.0
| 98>     S 1
| 99>      1    0.64 1.0
|100>     S 1
|101>      1    0.32 1.0
|102>     S 1
|103>      1    0.16 1.0
|104>     S 1
|105>      1    0.08 1.0
|106>     S 1
|107>      1    0.04 1.0
|108>     S 1
|109>      1    0.02 1.0
|110>     S 1
|111>      1    0.01 1.0
|112>   end
|113> end
|114> 
|115> * xyz 0 2
|116> 57  0.0 0.0 0.0
|117> *
|118> 
|119> 
|120>                          ****END OF INPUT****
================================================================================

                       ****************************
                       * Single Point Calculation *
                       ****************************

---------------------------------
CARTESIAN COORDINATES (ANGSTROEM)
---------------------------------
  La     0.000000    0.000000    0.000000

----------------------------
CARTESIAN COORDINATES (A.U.)
----------------------------
  NO LB      ZA    FRAG     MASS         X           Y           Z
   0 La   11.0000*   0   138.905    0.000000    0.000000    0.000000
* core charge reduced due to ECP

--------------------------------
INTERNAL COORDINATES (ANGSTROEM)
--------------------------------
 La     0   0   0     0.000000000000     0.00000000     0.00000000

---------------------------
INTERNAL COORDINATES (A.U.)
---------------------------
 La     0   0   0     0.000000000000     0.00000000     0.00000000

---------------------
BASIS SET INFORMATION
---------------------
There are 1 groups of distinct atoms

 Group   1 Type La  : 7s6p5d1f contracted to 6s3p2d1f pattern {211111/411/41/1}

Atom   0La   basis set group =>   1
---------------------------------
AUXILIARY/J BASIS SET INFORMATION
---------------------------------
There are 1 groups of distinct atoms

 Group   1 Type La  : 18s contracted to 18s pattern {111111111111111111}

Atom   0La   basis set group =>   1
-------------------------
ECP PARAMETER INFORMATION
-------------------------

 Group 1, Type La ECP (replacing 46 core electrons, lmax=3)

Atom   0La   ECP group =>   1

------------------------------------------------------------------------------
                           ORCA GTO INTEGRAL CALCULATION
------------------------------------------------------------------------------

                         BASIS SET STATISTICS AND STARTUP INFO

 # of primitive gaussian shells          ...   19
 # of primitive gaussian functions       ...   57
 # of contracted shells                  ...   12
 # of contracted basis functions         ...   32
 Highest angular momentum                ...    3
 Maximum contraction depth               ...    4
 Integral package used                   ... LIBINT
 Integral threshhold            Thresh   ...  1.000e-10
 Primitive cut-off              TCut     ...  1.000e-11
 Storage cut-off                TCutStore... -1.000e+00
 Buffer length                           ... 1048576 integrals/buffer
 Generate file with integrals 4 distinct ...false


------------------------------ INTEGRAL EVALUATION ----------------------------


 * One electron integrals 

   ECP integrals                         ... done
 Pre-screening matrix                    ... done
 Shell pair data                         ... done (   0.000 sec)
 Statistics run                          ... done
 Maximum amount of storage needed        ...     1 MB
 Maximum amount of storage dedicated     ... 500000 MB
 Beginning two electron integral evaluation:
 Starting repulsion integrals
  <ss|ss>  ...          231 b.         0 skpd (  0.0%)     0.000 s. (  0.000 ms/b)
  <ss|sp>  ...          378 b.         0 skpd (  0.0%)     0.000 s. (  0.000 ms/b)
  <ss|sd>  ...          252 b.         0 skpd (  0.0%)     0.000 s. (  0.001 ms/b)
  <ss|sf>  ...          126 b.         0 skpd (  0.0%)     0.000 s. (  0.000 ms/b)
  <ss|pp>  ...          126 b.         0 skpd (  0.0%)     0.000 s. (  0.001 ms/b)
  <ss|pd>  ...          126 b.         0 skpd (  0.0%)     0.000 s. (  0.001 ms/b)
  <ss|pf>  ...           63 b.         0 skpd (  0.0%)     0.000 s. (  0.001 ms/b)
  <ss|dd>  ...           63 b.         0 skpd (  0.0%)     0.000 s. (  0.002 ms/b)
  <ss|df>  ...           42 b.         0 skpd (  0.0%)     0.000 s. (  0.002 ms/b)
  <ss|ff>  ...           21 b.         0 skpd (  0.0%)     0.000 s. (  0.002 ms/b)
  <sp|sp>  ...          171 b.         0 skpd (  0.0%)     0.000 s. (  0.001 ms/b)
  <sp|sd>  ...          216 b.         0 skpd (  0.0%)     0.000 s. (  0.001 ms/b)
  <sp|sf>  ...          108 b.         0 skpd (  0.0%)     0.000 s. (  0.001 ms/b)
  <sp|pp>  ...          108 b.         0 skpd (  0.0%)     0.000 s. (  0.002 ms/b)
  <sp|pd>  ...          108 b.         0 skpd (  0.0%)     0.000 s. (  0.004 ms/b)
  <sp|pf>  ...           54 b.         0 skpd (  0.0%)     0.000 s. (  0.003 ms/b)
  <sp|dd>  ...           54 b.         0 skpd (  0.0%)     0.000 s. (  0.009 ms/b)
  <sp|df>  ...           36 b.         0 skpd (  0.0%)     0.000 s. (  0.006 ms/b)
  <sp|ff>  ...           18 b.         0 skpd (  0.0%)     0.000 s. (  0.005 ms/b)
  <sd|sd>  ...           78 b.         0 skpd (  0.0%)     0.000 s. (  0.003 ms/b)
  <sd|sf>  ...           72 b.         0 skpd (  0.0%)     0.000 s. (  0.002 ms/b)
  <sd|pp>  ...           72 b.         0 skpd (  0.0%)     0.000 s. (  0.005 ms/b)
  <sd|pd>  ...           72 b.         0 skpd (  0.0%)     0.001 s. (  0.010 ms/b)
  <sd|pf>  ...           36 b.         0 skpd (  0.0%)     0.000 s. (  0.007 ms/b)
  <sd|dd>  ...           36 b.         0 skpd (  0.0%)     0.001 s. (  0.024 ms/b)
  <sd|df>  ...           24 b.         0 skpd (  0.0%)     0.000 s. (  0.018 ms/b)
  <sd|ff>  ...           12 b.         0 skpd (  0.0%)     0.000 s. (  0.015 ms/b)
  <sf|sf>  ...           21 b.         0 skpd (  0.0%)     0.000 s. (  0.002 ms/b)
  <sf|pp>  ...           36 b.         0 skpd (  0.0%)     0.000 s. (  0.005 ms/b)
  <sf|pd>  ...           36 b.         0 skpd (  0.0%)     0.000 s. (  0.009 ms/b)
  <sf|pf>  ...           18 b.         0 skpd (  0.0%)     0.000 s. (  0.008 ms/b)
  <sf|dd>  ...           18 b.         0 skpd (  0.0%)     0.000 s. (  0.024 ms/b)
  <sf|df>  ...           12 b.         0 skpd (  0.0%)     0.000 s. (  0.020 ms/b)
  <sf|ff>  ...            6 b.         0 skpd (  0.0%)     0.000 s. (  0.019 ms/b)
  <pp|pp>  ...           21 b.         0 skpd (  0.0%)     0.000 s. (  0.010 ms/b)
  <pp|pd>  ...           36 b.         0 skpd (  0.0%)     0.001 s. (  0.016 ms/b)
  <pp|pf>  ...           18 b.         0 skpd (  0.0%)     0.000 s. (  0.013 ms/b)
  <pp|dd>  ...           18 b.         0 skpd (  0.0%)     0.001 s. (  0.040 ms/b)
  <pp|df>  ...           12 b.         0 skpd (  0.0%)     0.000 s. (  0.029 ms/b)
  <pp|ff>  ...            6 b.         0 skpd (  0.0%)     0.000 s. (  0.024 ms/b)
  <pd|pd>  ...           21 b.         0 skpd (  0.0%)     0.001 s. (  0.045 ms/b)
  <pd|pf>  ...           18 b.         0 skpd (  0.0%)     0.001 s. (  0.029 ms/b)
  <pd|dd>  ...           18 b.         0 skpd (  0.0%)     0.002 s. (  0.099 ms/b)
  <pd|df>  ...           12 b.         0 skpd (  0.0%)     0.001 s. (  0.073 ms/b)
  <pd|ff>  ...            6 b.         0 skpd (  0.0%)     0.000 s. (  0.062 ms/b)
  <pf|pf>  ...            6 b.         0 skpd (  0.0%)     0.000 s. (  0.030 ms/b)
  <pf|dd>  ...            9 b.         0 skpd (  0.0%)     0.001 s. (  0.084 ms/b)
  <pf|df>  ...            6 b.         0 skpd (  0.0%)     0.000 s. (  0.070 ms/b)
  <pf|ff>  ...            3 b.         0 skpd (  0.0%)     0.000 s. (  0.067 ms/b)
  <dd|dd>  ...            6 b.         0 skpd (  0.0%)     0.002 s. (  0.332 ms/b)
  <dd|df>  ...            6 b.         0 skpd (  0.0%)     0.001 s. (  0.206 ms/b)
  <dd|ff>  ...            3 b.         0 skpd (  0.0%)     0.001 s. (  0.172 ms/b)
  <df|df>  ...            3 b.         0 skpd (  0.0%)     0.001 s. (  0.189 ms/b)
  <df|ff>  ...            2 b.         0 skpd (  0.0%)     0.000 s. (  0.164 ms/b)
  <ff|ff>  ...            1 b.         0 skpd (  0.0%)     0.000 s. (  0.238 ms/b)


                                      INTEGRAL STATISTICS

Integral type statistics:
 Number of integrals retained            ...     139656 
 One   Center Integrals retained         ...     139656 (100.0%)
 Two   Center Integrals retained         ...          0 (  0.0%)
 Three Center Integrals retained         ...          0 (  0.0%)
 Four  Center Integrals retained         ...          0 (  0.0%)

Storage statistics:
 Number of char integrals                ...          0 (  0.0%)
 Number of short int integrals           ...          0 (  0.0%)
 Number of double/float integrals        ...     139656 (100.0%)
 Amount of memory used                   ...          1 MB
 Amount of memory estimated              ...          1 MB ( 92.2%)

Prescreening statistics:
 Total number of shell quadruples        ...       3081 
 Number of skipped shell quadruples      ...          0 (  0.0%)
 # of negligible batches done            ...          0 (  0.0%)

Timings:
 Total evaluation time               ...     0.252 sec (   0.004 min)
 One electron matrix time            ...     0.032 sec (   0.001 min) = 12.5%
 Schwartz matrix evaluation time     ...     0.082 sec (   0.001 min) = 32.4%
 Statistics run                      ...     0.001 sec (   0.000 min) =  0.6%
 Repulsion integral time             ...     0.021 sec (   0.000 min) =  8.4%

-------------------------------------------------------------------------------
                                 ORCA SCF
-------------------------------------------------------------------------------

------------
SCF SETTINGS
------------
Hamiltonian:
 Ab initio Hamiltonian  Method          .... Hartree-Fock(GTOs)


General Settings:
 Integral files         IntName         .... 57_La_atom57
 Hartree-Fock type      HFTyp           .... ROHF
 Total Charge           Charge          ....    0
 Multiplicity           Mult            ....    2
 Number of Electrons    NEL             ....   11
 Basis Dimension        Dim             ....   32
 Nuclear Repulsion      ENuc            ....      0.0000000000 Eh

Convergence Acceleration:
 DIIS                   CNVDIIS         .... on
   Start iteration      DIISMaxIt       ....    12
   Startup error        DIISStart       ....  0.200000
   # of expansion vecs  DIISMaxEq       ....     5
   Bias factor          DIISBfac        ....   1.050
   Max. coefficient     DIISMaxC        ....  10.000
 Newton-Raphson         CNVNR           .... off
 SOSCF                  CNVSOSCF        .... off
 Level Shifting         CNVShift        .... on
   Level shift para.    LevelShift      ....    0.1000
   Turn off err/grad.   ShiftErr        ....    0.0010
 Zerner damping         CNVZerner       .... off
 Static damping         CNVDamp         .... on
   Fraction old density DampFac         ....    0.7000
   Max. Damping (<1)    DampMax         ....    0.9800
   Min. Damping (>=0)   DampMin         ....    0.0000
   Turn off err/grad.   DampErr         ....    0.1000
 Fernandez-Rico         CNVRico         .... off

SCF Procedure:
 Maximum # iterations   MaxIter         ....  1000
 SCF integral mode      SCFMode         .... Conventional
 Integral Threshold     Thresh          ....  1.000e-10 Eh
 Primitive CutOff       TCut            ....  1.000e-11 Eh
 Integral Buffer length BufferLength    .... 1048576
 Integral index format  IndFormat       ....     0
 Integral value format  ValFormat       ....     0
 Integral Storage       Thresh          ....  1.000e-10 Eh

Convergence Tolerance:
 Convergence Check Mode ConvCheckMode   .... Total+1el-Energy
 Convergence forced     ConvForced      .... 0
 Energy Change          TolE            ....  1.000e-06 Eh
 1-El. energy change                    ....  1.000e-03 Eh
 DIIS Error             TolErr          ....  1.000e-06


Diagonalization of the overlap matrix:
Smallest eigenvalue                        ... 1.029e-02
Time for diagonalization                   ...    0.000 sec
Threshold for overlap eigenvalues          ... 1.000e-08
Number of eigenvalues below threshold      ... 0
Time for construction of square roots      ...    0.002 sec
Total time needed                          ...    0.002 sec

--------------------
INITIAL GUESS: HCORE
--------------------
AVERAGE-CONFIGURATION (SAHF) CASE FOUND

-------------------
FINAL ROHF SETTINGS
-------------------
Number of operators             ... 2
  operator   0:   5 orbitals  10 electrons n(mue)= 2.000
  operator   1:   5 orbitals   1 electrons n(mue)= 0.200
Vector coupling coefficients a and b (Zerner convention):
   1.000    1.000           1.000    1.000 
   1.000    0.000           1.000    0.000 

                      -----------------
                      INTIAL GUESS DONE 
                      -----------------

 InCore treatment chosen:
   Memory dedicated               ...    1024 MB
   Memory needed                  ...      1 MB
   Number of tiny    integrals    ...       0
   Number of small   integrals    ...       0
   Number of regular integrals    ...  139656

--------------
SCF ITERATIONS
--------------
ITER       Energy         Delta-E        Max-DP      RMS-DP      [F,P]     Damp
  0    -29.9460700881   0.000000000000 2.97156399  0.11570954  0.4035140 0.7000
                            ****Activating DIIS****
  1    -30.6161143561  -0.670044268022 6.93277417  0.26761089  0.0762998 0.0000
  2    -30.9295271635  -0.313412807325 0.20652877  0.00802791  0.0373314 0.0000
  3    -30.9419996863  -0.012472522811 0.42111501  0.01519261  0.0095148 0.0000
  4    -30.9485070936  -0.006507407378 0.27162066  0.00999225  0.0092040 0.0000
  5    -30.9522274263  -0.003720332670 0.21623280  0.00786973  0.0089132 0.0000
  6    -30.9550908344  -0.002863408131 0.14031021  0.00508089  0.0085866 0.0000
  7    -30.9569566832  -0.001865848783 0.07985280  0.00287993  0.0083226 0.0000
  8    -30.9580003237  -0.001043640447 0.01974845  0.00071025  0.0081615 0.0000
  9    -30.9582490201  -0.000248696429 0.03174162  0.00113904  0.0081216 0.0000
 10    -30.9586416317  -0.000392611553 0.11272231  0.00403729  0.0080601 0.0000
 11    -30.9600324630  -0.001390831354 0.10935754  0.00390642  0.0078280 0.0000
 12    -30.9613712381  -0.001338775064 0.06413427  0.00228663  0.0075808 0.0000
 13    -30.9621494350  -0.000778196910 0.04175606  0.00148683  0.0074233 0.0000
 14    -30.9626507192  -0.000501284245 0.05307146  0.00188765  0.0073152 0.0000
 15    -30.9632817956  -0.000631076355 0.07512901  0.00266967  0.0071702 0.0000
 16    -30.9641685907  -0.000886795167 0.06980997  0.00247913  0.0069385 0.0000
 17    -30.9649877942  -0.000819203449 0.05165711  0.00183408  0.0066686 0.0000
 18    -30.9655912875  -0.000603493282 0.04521063  0.00160523  0.0064005 0.0000
 19    -30.9661174700  -0.000526182543 0.04967455  0.00176416  0.0061113 0.0000
 20    -30.9666938260  -0.000576356012 0.05360890  0.00190346  0.0061490 0.0000
 21    -30.9673141678  -0.000620341790 0.04880128  0.00171284  0.0061866 0.0000
 22    -30.9678717966  -0.000557628783 0.04204024  0.00146051  0.0062172 0.0000
 23    -30.9683473977  -0.000475601112 0.04064675  0.00139905  0.0062406 0.0000
 24    -30.9688033797  -0.000455981984 0.04195213  0.00143071  0.0062604 0.0000
 25    -30.9692703675  -0.000466987794 0.04133321  0.00139661  0.0062780 0.0000
 26    -30.9697274220  -0.000457054509 0.03781272  0.00126651  0.0062923 0.0000
 27    -30.9701436168  -0.000416194829 0.03521290  0.00116998  0.0063025 0.0000
 28    -30.9705301204  -0.000386503555 0.03476566  0.00114633  0.0063093 0.0000
 29    -30.9709110506  -0.000380930187 0.03435104  0.00112421  0.0063133 0.0000
 30    -30.9712871713  -0.000376120719 0.03275446  0.00106426  0.0063145 0.0000
 31    -30.9716461130  -0.000358941658 0.03078965  0.00099368  0.0063131 0.0000
 32    -30.9719844134  -0.000338300407 0.02978553  0.00095519  0.0063091 0.0000
 33    -30.9723129832  -0.000328569796 0.02925287  0.00093239  0.0063026 0.0000
 34    -30.9726372851  -0.000324301978 0.02829986  0.00089674  0.0062936 0.0000
 35    -30.9729529697  -0.000315684594 0.02705899  0.00085268  0.0062824 0.0000
 36    -30.9732571415  -0.000304171732 0.02609832  0.00081812  0.0062691 0.0000
 37    -30.9735532008  -0.000296059341 0.02552017  0.00079605  0.0062536 0.0000
 38    -30.9738456652  -0.000292464426 0.02485425  0.00077163  0.0062360 0.0000
 39    -30.9741337002  -0.000288035018 0.02402321  0.00074252  0.0062161 0.0000
 40    -30.9744155690  -0.000281868778 0.02329319  0.00071696  0.0061944 0.0000
 41    -30.9746926257  -0.000277056705 0.02275485  0.00069765  0.0061707 0.0000
 42    -30.9749672948  -0.000274669024 0.02225994  0.00067998  0.0061449 0.0000
 43    -30.9752402169  -0.000272922097 0.02168192  0.00066005  0.0061169 0.0000
 44    -30.9755104848  -0.000270267953 0.02114859  0.00064178  0.0060870 0.0000
 45    -30.9757787784  -0.000268293549 0.02072099  0.00062697  0.0060551 0.0000
 46    -30.9760465661  -0.000267787788 0.02034079  0.00061382  0.0060211 0.0000
 47    -30.9763145733  -0.000268007202 0.01994899  0.00060053  0.0059848 0.0000
 48    -30.9765827490  -0.000268175678 0.01956995  0.00058784  0.0059464 0.0000
 49    -30.9768513790  -0.000268629949 0.01926525  0.00057757  0.0059059 0.0000
 50    -30.9771216168  -0.000270237848 0.01899855  0.00056862  0.0058629 0.0000
 51    -30.9773941330  -0.000272516138 0.01874776  0.00056032  0.0058176 0.0000
 52    -30.9776692911  -0.000275158145 0.01851597  0.00055276  0.0057698 0.0000
 53    -30.9779475192  -0.000278228115 0.01833083  0.00054675  0.0057194 0.0000
 54    -30.9782296935  -0.000282174240 0.01819343  0.00054232  0.0056662 0.0000
 55    -30.9785167475  -0.000287053998 0.01807944  0.00053874  0.0056102 0.0000
 56    -30.9788092675  -0.000292520052 0.01800126  0.00053639  0.0055510 0.0000
 57    -30.9791080760  -0.000298808499 0.01796718  0.00053552  0.0055222 0.0000
 58    -30.9794141896  -0.000306113573 0.01798920  0.00053649  0.0056145 0.0000
 59    -30.9797288984  -0.000314708796 0.01806288  0.00053917  0.0057063 0.0000
 60    -30.9800534972  -0.000324598869 0.01819375  0.00054375  0.0057974 0.0000
 61    -30.9803894729  -0.000335975670 0.01840368  0.00055091  0.0058878 0.0000
 62    -30.9807388365  -0.000349363600 0.01870936  0.00056117  0.0059774 0.0000
 63    -30.9811040818  -0.000365245324 0.01913714  0.00057538  0.0060661 0.0000
 64    -30.9814884326  -0.000384350723 0.01972149  0.00059465  0.0061541 0.0000
 65    -30.9818960986  -0.000407666029 0.02052628  0.00062101  0.0062412 0.0000
 66    -30.9823330244  -0.000436925824 0.02165600  0.00065779  0.0063275 0.0000
 67    -30.9828080050  -0.000474980597 0.02328757  0.00071065  0.0064129 0.0000
 68    -30.9833347131  -0.000526708122 0.02575873  0.00079045  0.0064977 0.0000
 69    -30.9839361624  -0.000601449286 0.02977422  0.00091992  0.0065818 0.0000
 70    -30.9846550369  -0.000718874438 0.03698570  0.00115287  0.0066652 0.0000
 71    -30.9855808357  -0.000925798870 0.05177316  0.00163464  0.0067465 0.0000
 72    -30.9869304869  -0.001349651200 0.08663967  0.00280014  0.0068164 0.0000
 73    -30.9893003957  -0.002369908747 0.16502180  0.00565110  0.0068212 0.0000
 74    -30.9940308807  -0.004730485064 0.20590005  0.00810151  0.0065581 0.0000
 75    -30.9998708315  -0.005839950802 0.07628607  0.00328867  0.0063541 0.0000
 76    -31.0019699435  -0.002099111974 0.05334625  0.00233233  0.0062629 0.0000
 77    -31.0034833078  -0.001513364254 0.03771083  0.00166194  0.0061867 0.0000
 78    -31.0046189903  -0.001135682517 0.03867353  0.00180260  0.0061036 0.0000
 79    -31.0058714222  -0.001252431946 0.05628048  0.00295821  0.0060280 0.0000
 80    -31.0079054383  -0.002034016030 0.13453114  0.00690706  0.0060145 0.0000
 81    -31.0125532140  -0.004647775777 0.00511014  0.00033979  0.0060260 0.0000
 82    -31.0124589438   0.000094270260 0.06562180  0.00324482  0.0059108 0.0000
 83    -31.0145620382  -0.002103094443 0.18306916  0.00943286  0.0057151 0.0000
 84    -31.0192488278  -0.004686789537 0.11555948  0.00559982  0.0046802 0.0000
 85    -31.0171074752   0.002141352603 0.16329671  0.00992015  0.0049127 0.0000
 86    -31.0205364764  -0.003429001264 0.04576315  0.00177100  0.0036481 0.0000
 87    -31.0206898035  -0.000153327049 0.04716639  0.00255979  0.0014978 0.0000
 88    -31.0208284696  -0.000138666166 0.02430211  0.00109320  0.0017266 0.0000
 89    -31.0208877144  -0.000059244804 0.00557676  0.00022174  0.0004822 0.0000
 90    -31.0208978170  -0.000010102520 0.00535594  0.00028532  0.0004881 0.0000
 91    -31.0209002071  -0.000002390173 0.00108807  0.00008882  0.0004515 0.0000
 92    -31.0209049466  -0.000004739483 0.00080216  0.00005502  0.0004727 0.0000
 93    -31.0209082118  -0.000003265162 0.00334193  0.00026056  0.0004224 0.0000
 94    -31.0209214712  -0.000013259412 0.00531956  0.00039454  0.0002479 0.0000
 95    -31.0209335143  -0.000012043097 0.00152145  0.00005681  0.0001406 0.0000
 96    -31.0209329422   0.000000572109 0.00297961  0.00021364  0.0001052 0.0000
 97    -31.0209360251  -0.000003082956 0.00127929  0.00009555  0.0000837 0.0000
                 **** Energy Check signals convergence ****

               *****************************************************
               *                     SUCCESS                       *
               *           SCF CONVERGED AFTER  98 CYCLES          *
               *****************************************************


----------------
TOTAL SCF ENERGY
----------------

Total Energy       :          -31.02093652 Eh            -844.12260 eV

Components:
Nuclear Repulsion  :            0.00000000 Eh               0.00000 eV
Electronic Energy  :          -31.02093652 Eh            -844.12260 eV
One Electron Energy:          -50.78265335 Eh           -1381.86625 eV
Two Electron Energy:           19.76171683 Eh             537.74365 eV

Virial components:
Potential Energy   :          -39.13729732 Eh           -1064.98000 eV
Kinetic Energy     :            8.11636080 Eh             220.85741 eV
Virial Ratio       :            4.82202532


---------------
SCF CONVERGENCE
---------------

  Last Energy change         ...   -4.9560e-07  Tolerance :   1.0000e-06
  Last MAX-Density change    ...    5.0742e-04  Tolerance :   1.0000e-05
  Last RMS-Density change    ...    2.1051e-05  Tolerance :   1.0000e-06
  Last DIIS Error            ...    3.6722e-05  Tolerance :   1.0000e-06

             **** THE GBW FILE WAS UPDATED (57_La_atom57.gbw) ****
             **** DENSITY FILE WAS UPDATED (57_La_atom57.scfp) ****
             **** ENERGY FILE WAS UPDATED (57_La_atom57.en.tmp) ****
             **** THE GBW FILE WAS UPDATED (57_La_atom57.gbw) ****
             **** DENSITY FILE WAS UPDATED (57_La_atom57.scfp) ****
----------------
ORBITAL ENERGIES
----------------

  NO   OCC          E(Eh)            E(eV) 
   0   2.0000      -1.931269       -52.5525 
   1   2.0000      -1.132084       -30.8056 
   2   2.0000      -1.132079       -30.8054 
   3   2.0000      -1.132046       -30.8045 
   4   2.0000      -0.219335        -5.9684 
   5   0.2000      -0.210845        -5.7374 
   6   0.2000      -0.210806        -5.7363 
   7   0.2000      -0.135660        -3.6915 
   8   0.2000      -0.135658        -3.6914 
   9   0.2000      -0.135649        -3.6912 
  10   0.0000      -0.204219        -5.5571 
  11   0.0000      -0.204194        -5.5564 
  12   0.0000      -0.204187        -5.5562 
  13   0.0000      -0.049934        -1.3588 
  14   0.0000       0.023883         0.6499 
  15   0.0000       0.023886         0.6500 
  16   0.0000       0.017687         0.4813 
  17   0.0000       0.017716         0.4821 
  18   0.0000       0.017724         0.4823 
  19   0.0000       0.208014         5.6604 
  20   0.0000       0.208046         5.6612 
  21   0.0000       0.208021         5.6606 
  22   0.0000       0.376526        10.2458 
  23   0.0000       0.376537        10.2461 
  24   0.0000       0.376582        10.2473 
  25   0.0000       0.376580        10.2473 
  26   0.0000       0.376579        10.2472 
  27   0.0000       0.376581        10.2473 
  28   0.0000       0.376601        10.2478 
  29   0.0000       0.669689        18.2232 
  30   0.0000      11.283866       307.0496 
  31   0.0000      33.323283       906.7726 
CleanUpVectors: The p-vectors have cracked symmetry
CleanUpVectors: The p-vectors have cracked symmetry
CleanUpVectors: The p-vectors have cracked symmetry
CleanUpVectors: The d-vectors have cracked symmetry at i=5
CleanUpVectors: The d-vectors have cracked symmetry at i=6
CleanUpVectors: The p-vectors have cracked symmetry
CleanUpVectors: The p-vectors have cracked symmetry
CleanUpVectors: The p-vectors have cracked symmetry
CleanUpVectors: The d-vectors have cracked symmetry at i=10
CleanUpVectors: The d-vectors have cracked symmetry at i=11
CleanUpVectors: The d-vectors have cracked symmetry at i=12
CleanUpVectors: The d-vectors have cracked symmetry at i=14
CleanUpVectors: The d-vectors have cracked symmetry at i=15
CleanUpVectors: The d-vectors have cracked symmetry at i=16
CleanUpVectors: The d-vectors have cracked symmetry at i=17
CleanUpVectors: The d-vectors have cracked symmetry at i=18
CleanUpVectors: The p-vectors have cracked symmetry
CleanUpVectors: The p-vectors have cracked symmetry
CleanUpVectors: The p-vectors have cracked symmetry
CleanUpVectors: The f-vectors have cracked symmetry
CleanUpVectors: The f-vectors have cracked symmetry
CleanUpVectors: The f-vectors have cracked symmetry
CleanUpVectors: The f-vectors have cracked symmetry
--------------------------
ATOM BASIS FOR ELEMENT La
--------------------------
 NewGTO La
 S 7
    1          5.087399000000        -0.498589050549
    2          4.270978000000         0.968566367864
    3          2.182380399900        -1.040308766678
    4          0.489549264600         0.938721563948
    5          0.232920325500         0.415951564017
    6          0.055595529900         0.005285673038
    7          0.022795184900        -0.000659407346
 P 19
    1          3.025161000000        -0.066194984711
    2          2.382095000000         0.119785318974
    3          0.672466580800        -0.103815178321
    4          0.325194271700        -0.136337336943
    5          3.025161000000         0.010322853876
    6          2.382095000000        -0.018680060879
    7          0.672466580800         0.016189578721
    8          0.325194271700         0.021261284571
    9          3.025161000000        -0.282309863312
   10          2.382095000000         0.510863129191
   11          0.672466580800        -0.442753313249
   12          0.325194271700        -0.581454548627
   13          0.136354893700        -0.030480636253
   14          0.136354893700         0.004753338270
   15          0.136354893700        -0.129994504745
   16          0.025100000000        -0.000466633172
   17          0.025100000000         0.000072769653
   18          0.025100000000        -0.001990107672
   19          0.256830000000         0.000770577061
 S 7
    1          5.087399000000        -0.186225349465
    2          4.270978000000         0.361764082337
    3          2.182380399900        -0.407170856025
    4          0.489549264600         0.509571211955
    5          0.232920325500         0.343558894844
    6          0.055595529900        -0.906467878533
    7          0.022795184900        -0.344336679694
 D 19
    1          5.087399000000        -0.000006526519
    2          4.270978000000         0.000015102079
    3          2.182380399900        -0.000032500314
    4          0.489549264600         0.000139330350
    5          0.232920325500         0.000507516517
    6          0.055595529900        -0.006558549390
    7          0.022795184900         0.008297111757
    8          1.266718201800        -0.037269123882
    9          0.890498826700         0.053700868846
   10          0.329472910400         0.095288010117
   11          0.133987888300         0.095873804697
   12          1.266718201800        -0.010970223167
   13          0.890498826700         0.015806932231
   14          0.329472910400         0.028048170369
   15          0.133987888300         0.028220599893
   16          1.266718201800         0.054344450808
   17          0.890498826700        -0.078304610396
   18          0.329472910400        -0.138945433622
   19          0.133987888300        -0.139799617499
 P 19
    1          3.025161000000        -0.110181078694
    2          2.382095000000         0.199381806852
    3          0.672466580800        -0.172799621936
    4          0.325194271700        -0.226932522398
    5          3.025161000000         0.012122764938
    6          2.382095000000        -0.021937149336
    7          0.672466580800         0.019012422304
    8          0.325194271700         0.024968439757
    9          3.025161000000         0.026278133944
   10          2.382095000000        -0.047552464440
   11          0.672466580800         0.041212626202
   12          0.325194271700         0.054123296764
   13          0.136354893700         0.190117807842
   14          0.136354893700        -0.020917870130
   15          0.136354893700        -0.045343005159
   16          0.025100000000         0.908021469540
   17          0.025100000000        -0.099905818350
   18          0.025100000000        -0.216562681031
   19          0.256830000000        -0.000002694599
 D 19
    1          1.266718201800         0.026954209242
    2          0.890498826700        -0.038838166949
    3          0.329472910400        -0.068915302949
    4          0.133987888300        -0.069338968119
    5          1.266718201800         0.136668738134
    6          0.890498826700        -0.196925208255
    7          0.329472910400        -0.349428447617
    8          0.133987888300        -0.351576601309
    9          1.266718201800        -0.002300464899
   10          0.890498826700         0.003314726802
   11          0.329472910400         0.005881724595
   12          0.133987888300         0.005917883209
   13          1.266718201800        -0.014888941274
   14          0.890498826700         0.021453390886
   15          0.329472910400         0.038067371566
   16          0.133987888300         0.038301395342
   17          1.266718201800        -0.033159046392
   18          0.890498826700         0.047778681543
   19          0.329472910400         0.084779549905
 D 19
    1          1.266718201800         0.031729540106
    2          0.890498826700        -0.045718914059
    3          0.329472910400        -0.081124652896
    4          0.133987888300        -0.081623376523
    5          1.266718201800         0.160881596231
    6          0.890498826700        -0.231813377915
    7          0.329472910400        -0.411334787960
    8          0.133987888300        -0.413863518375
    9          1.266718201800        -0.002708025774
   10          0.890498826700         0.003901978951
   11          0.329472910400         0.006923757804
   12          0.133987888300         0.006966322443
   13          1.266718201800        -0.017526734139
   14          0.890498826700         0.025254171638
   15          0.329472910400         0.044811561047
   16          0.133987888300         0.045087045544
   17          1.266718201800        -0.039033654555
   18          0.890498826700         0.056243371068
   19          0.329472910400         0.099799482327
 F 19
    1          3.025161000000        -0.000012449862
    2          2.382095000000         0.000028610961
    3          0.672466580800        -0.000087837119
    4          0.325194271700        -0.000238539252
    5          3.025161000000        -0.000110706955
    6          2.382095000000         0.000254415067
    7          0.672466580800        -0.000781067305
    8          0.325194271700        -0.002121144381
    9          3.025161000000        -0.000001128878
   10          2.382095000000         0.000002594268
   11          0.672466580800        -0.000007964536
   12          0.325194271700        -0.000021629289
   13          0.136354893700         0.001901658550
   14          0.136354893700         0.016909973171
   15          0.136354893700         0.000172430833
   16          0.025100000000        -0.004166217535
   17          0.025100000000        -0.037046938179
   18          0.025100000000        -0.000377767269
   19          0.256830000000         0.159251606870
 S 19
    1          5.087399000000        -3.684773333851
    2          4.270978000000         7.158094467657
    3          2.182380399900        -5.111847088126
    4          0.489549264600         2.664252740523
    5          0.232920325500        -1.763583928142
    6          0.055595529900         0.569431762441
    7          0.022795184900        -0.235570498318
    8          1.266718201800        -0.000002310203
    9          0.890498826700         0.000002340106
   10          0.329472910400         0.000001536310
   11          1.266718201800         0.000000788582
   12          0.890498826700        -0.000000798789
   13          0.329472910400        -0.000000524415
   14          1.266718201800         0.000000291541
   15          0.890498826700        -0.000000295315
   16          1.266718201800         0.000002948320
   17          0.890498826700        -0.000002986484
   18          0.329472910400        -0.000001960665
   19          0.133987888300        -0.000000802252
 S 11
    1          5.087399000000        -3.236723370392
    2          4.270978000000         6.287706068130
    3          2.182380399900        -2.660818329174
    4          0.489549264600         0.908545995695
    5          0.232920325500        -0.571527999637
    6          0.055595529900         0.181406891090
    7          0.022795184900        -0.075152208092
    8          1.266718201800        -0.000000194232
    9          0.890498826700         0.000000196747
   10          1.266718201800         0.000000246973
   11          0.890498826700        -0.000000250170
 end
  // -----------------------------------------------
  // The basis set
  // -----------------------------------------------
  BAS[ATNO] = new BFNGauss[NSH];
  // Basis function   1 L = s
  InitBFNGauss(BAS[ATNO][  0]);
  BAS[ATNO][  0].l  = 0;
  BAS[ATNO][  0].ng = 7;
  BAS[ATNO][  0].a[  0] =         5.087399000000;     BAS[ATNO][  0].d[  0] =         0.498589050549;
  BAS[ATNO][  0].a[  1] =         4.270978000000;     BAS[ATNO][  0].d[  1] =        -0.968566367864;
  BAS[ATNO][  0].a[  2] =         2.182380399900;     BAS[ATNO][  0].d[  2] =         1.040308766678;
  BAS[ATNO][  0].a[  3] =         0.489549264600;     BAS[ATNO][  0].d[  3] =        -0.938721563948;
  BAS[ATNO][  0].a[  4] =         0.232920325500;     BAS[ATNO][  0].d[  4] =        -0.415951564017;
  BAS[ATNO][  0].a[  5] =         0.055595529900;     BAS[ATNO][  0].d[  5] =        -0.005285673038;
  BAS[ATNO][  0].a[  6] =         0.022795184900;     BAS[ATNO][  0].d[  6] =         0.000659407346;

  // Basis function   2 L = p
  InitBFNGauss(BAS[ATNO][  1]);
  BAS[ATNO][  1].l  = 1;
  BAS[ATNO][  1].ng = 19;
  BAS[ATNO][  1].a[  0] =         3.025161000000;     BAS[ATNO][  1].d[  0] =         0.066194984711;
  BAS[ATNO][  1].a[  1] =         2.382095000000;     BAS[ATNO][  1].d[  1] =        -0.119785318974;
  BAS[ATNO][  1].a[  2] =         0.672466580800;     BAS[ATNO][  1].d[  2] =         0.103815178321;
  BAS[ATNO][  1].a[  3] =         0.325194271700;     BAS[ATNO][  1].d[  3] =         0.136337336943;
  BAS[ATNO][  1].a[  4] =         3.025161000000;     BAS[ATNO][  1].d[  4] =        -0.010322853876;
  BAS[ATNO][  1].a[  5] =         2.382095000000;     BAS[ATNO][  1].d[  5] =         0.018680060879;
  BAS[ATNO][  1].a[  6] =         0.672466580800;     BAS[ATNO][  1].d[  6] =        -0.016189578721;
  BAS[ATNO][  1].a[  7] =         0.325194271700;     BAS[ATNO][  1].d[  7] =        -0.021261284571;
  BAS[ATNO][  1].a[  8] =         3.025161000000;     BAS[ATNO][  1].d[  8] =         0.282309863312;
  BAS[ATNO][  1].a[  9] =         2.382095000000;     BAS[ATNO][  1].d[  9] =        -0.510863129191;
  BAS[ATNO][  1].a[ 10] =         0.672466580800;     BAS[ATNO][  1].d[ 10] =         0.442753313249;
  BAS[ATNO][  1].a[ 11] =         0.325194271700;     BAS[ATNO][  1].d[ 11] =         0.581454548627;
  BAS[ATNO][  1].a[ 12] =         0.136354893700;     BAS[ATNO][  1].d[ 12] =         0.030480636253;
  BAS[ATNO][  1].a[ 13] =         0.136354893700;     BAS[ATNO][  1].d[ 13] =        -0.004753338270;
  BAS[ATNO][  1].a[ 14] =         0.136354893700;     BAS[ATNO][  1].d[ 14] =         0.129994504745;
  BAS[ATNO][  1].a[ 15] =         0.025100000000;     BAS[ATNO][  1].d[ 15] =         0.000466633172;
  BAS[ATNO][  1].a[ 16] =         0.025100000000;     BAS[ATNO][  1].d[ 16] =        -0.000072769653;
  BAS[ATNO][  1].a[ 17] =         0.025100000000;     BAS[ATNO][  1].d[ 17] =         0.001990107672;
  BAS[ATNO][  1].a[ 18] =         0.256830000000;     BAS[ATNO][  1].d[ 18] =        -0.000770577061;

  // Basis function   3 L = s
  InitBFNGauss(BAS[ATNO][  2]);
  BAS[ATNO][  2].l  = 0;
  BAS[ATNO][  2].ng = 7;
  BAS[ATNO][  2].a[  0] =         5.087399000000;     BAS[ATNO][  2].d[  0] =         0.186225349465;
  BAS[ATNO][  2].a[  1] =         4.270978000000;     BAS[ATNO][  2].d[  1] =        -0.361764082337;
  BAS[ATNO][  2].a[  2] =         2.182380399900;     BAS[ATNO][  2].d[  2] =         0.407170856025;
  BAS[ATNO][  2].a[  3] =         0.489549264600;     BAS[ATNO][  2].d[  3] =        -0.509571211955;
  BAS[ATNO][  2].a[  4] =         0.232920325500;     BAS[ATNO][  2].d[  4] =        -0.343558894844;
  BAS[ATNO][  2].a[  5] =         0.055595529900;     BAS[ATNO][  2].d[  5] =         0.906467878533;
  BAS[ATNO][  2].a[  6] =         0.022795184900;     BAS[ATNO][  2].d[  6] =         0.344336679694;

  // Basis function   4 L = d
  InitBFNGauss(BAS[ATNO][  3]);
  BAS[ATNO][  3].l  = 2;
  BAS[ATNO][  3].ng = 19;
  BAS[ATNO][  3].a[  0] =         5.087399000000;     BAS[ATNO][  3].d[  0] =         0.000006526519;
  BAS[ATNO][  3].a[  1] =         4.270978000000;     BAS[ATNO][  3].d[  1] =        -0.000015102079;
  BAS[ATNO][  3].a[  2] =         2.182380399900;     BAS[ATNO][  3].d[  2] =         0.000032500314;
  BAS[ATNO][  3].a[  3] =         0.489549264600;     BAS[ATNO][  3].d[  3] =        -0.000139330350;
  BAS[ATNO][  3].a[  4] =         0.232920325500;     BAS[ATNO][  3].d[  4] =        -0.000507516517;
  BAS[ATNO][  3].a[  5] =         0.055595529900;     BAS[ATNO][  3].d[  5] =         0.006558549390;
  BAS[ATNO][  3].a[  6] =         0.022795184900;     BAS[ATNO][  3].d[  6] =        -0.008297111757;
  BAS[ATNO][  3].a[  7] =         1.266718201800;     BAS[ATNO][  3].d[  7] =         0.037269123882;
  BAS[ATNO][  3].a[  8] =         0.890498826700;     BAS[ATNO][  3].d[  8] =        -0.053700868846;
  BAS[ATNO][  3].a[  9] =         0.329472910400;     BAS[ATNO][  3].d[  9] =        -0.095288010117;
  BAS[ATNO][  3].a[ 10] =         0.133987888300;     BAS[ATNO][  3].d[ 10] =        -0.095873804697;
  BAS[ATNO][  3].a[ 11] =         1.266718201800;     BAS[ATNO][  3].d[ 11] =         0.010970223167;
  BAS[ATNO][  3].a[ 12] =         0.890498826700;     BAS[ATNO][  3].d[ 12] =        -0.015806932231;
  BAS[ATNO][  3].a[ 13] =         0.329472910400;     BAS[ATNO][  3].d[ 13] =        -0.028048170369;
  BAS[ATNO][  3].a[ 14] =         0.133987888300;     BAS[ATNO][  3].d[ 14] =        -0.028220599893;
  BAS[ATNO][  3].a[ 15] =         1.266718201800;     BAS[ATNO][  3].d[ 15] =        -0.054344450808;
  BAS[ATNO][  3].a[ 16] =         0.890498826700;     BAS[ATNO][  3].d[ 16] =         0.078304610396;
  BAS[ATNO][  3].a[ 17] =         0.329472910400;     BAS[ATNO][  3].d[ 17] =         0.138945433622;
  BAS[ATNO][  3].a[ 18] =         0.133987888300;     BAS[ATNO][  3].d[ 18] =         0.139799617499;

  // Basis function   5 L = p
  InitBFNGauss(BAS[ATNO][  4]);
  BAS[ATNO][  4].l  = 1;
  BAS[ATNO][  4].ng = 19;
  BAS[ATNO][  4].a[  0] =         3.025161000000;     BAS[ATNO][  4].d[  0] =        -0.110181078694;
  BAS[ATNO][  4].a[  1] =         2.382095000000;     BAS[ATNO][  4].d[  1] =         0.199381806852;
  BAS[ATNO][  4].a[  2] =         0.672466580800;     BAS[ATNO][  4].d[  2] =        -0.172799621936;
  BAS[ATNO][  4].a[  3] =         0.325194271700;     BAS[ATNO][  4].d[  3] =        -0.226932522398;
  BAS[ATNO][  4].a[  4] =         3.025161000000;     BAS[ATNO][  4].d[  4] =         0.012122764938;
  BAS[ATNO][  4].a[  5] =         2.382095000000;     BAS[ATNO][  4].d[  5] =        -0.021937149336;
  BAS[ATNO][  4].a[  6] =         0.672466580800;     BAS[ATNO][  4].d[  6] =         0.019012422304;
  BAS[ATNO][  4].a[  7] =         0.325194271700;     BAS[ATNO][  4].d[  7] =         0.024968439757;
  BAS[ATNO][  4].a[  8] =         3.025161000000;     BAS[ATNO][  4].d[  8] =         0.026278133944;
  BAS[ATNO][  4].a[  9] =         2.382095000000;     BAS[ATNO][  4].d[  9] =        -0.047552464440;
  BAS[ATNO][  4].a[ 10] =         0.672466580800;     BAS[ATNO][  4].d[ 10] =         0.041212626202;
  BAS[ATNO][  4].a[ 11] =         0.325194271700;     BAS[ATNO][  4].d[ 11] =         0.054123296764;
  BAS[ATNO][  4].a[ 12] =         0.136354893700;     BAS[ATNO][  4].d[ 12] =         0.190117807842;
  BAS[ATNO][  4].a[ 13] =         0.136354893700;     BAS[ATNO][  4].d[ 13] =        -0.020917870130;
  BAS[ATNO][  4].a[ 14] =         0.136354893700;     BAS[ATNO][  4].d[ 14] =        -0.045343005159;
  BAS[ATNO][  4].a[ 15] =         0.025100000000;     BAS[ATNO][  4].d[ 15] =         0.908021469540;
  BAS[ATNO][  4].a[ 16] =         0.025100000000;     BAS[ATNO][  4].d[ 16] =        -0.099905818350;
  BAS[ATNO][  4].a[ 17] =         0.025100000000;     BAS[ATNO][  4].d[ 17] =        -0.216562681031;
  BAS[ATNO][  4].a[ 18] =         0.256830000000;     BAS[ATNO][  4].d[ 18] =        -0.000002694599;

  // Basis function   6 L = d
  InitBFNGauss(BAS[ATNO][  5]);
  BAS[ATNO][  5].l  = 2;
  BAS[ATNO][  5].ng = 19;
  BAS[ATNO][  5].a[  0] =         1.266718201800;     BAS[ATNO][  5].d[  0] =        -0.026954209242;
  BAS[ATNO][  5].a[  1] =         0.890498826700;     BAS[ATNO][  5].d[  1] =         0.038838166949;
  BAS[ATNO][  5].a[  2] =         0.329472910400;     BAS[ATNO][  5].d[  2] =         0.068915302949;
  BAS[ATNO][  5].a[  3] =         0.133987888300;     BAS[ATNO][  5].d[  3] =         0.069338968119;
  BAS[ATNO][  5].a[  4] =         1.266718201800;     BAS[ATNO][  5].d[  4] =        -0.136668738134;
  BAS[ATNO][  5].a[  5] =         0.890498826700;     BAS[ATNO][  5].d[  5] =         0.196925208255;
  BAS[ATNO][  5].a[  6] =         0.329472910400;     BAS[ATNO][  5].d[  6] =         0.349428447617;
  BAS[ATNO][  5].a[  7] =         0.133987888300;     BAS[ATNO][  5].d[  7] =         0.351576601309;
  BAS[ATNO][  5].a[  8] =         1.266718201800;     BAS[ATNO][  5].d[  8] =         0.002300464899;
  BAS[ATNO][  5].a[  9] =         0.890498826700;     BAS[ATNO][  5].d[  9] =        -0.003314726802;
  BAS[ATNO][  5].a[ 10] =         0.329472910400;     BAS[ATNO][  5].d[ 10] =        -0.005881724595;
  BAS[ATNO][  5].a[ 11] =         0.133987888300;     BAS[ATNO][  5].d[ 11] =        -0.005917883209;
  BAS[ATNO][  5].a[ 12] =         1.266718201800;     BAS[ATNO][  5].d[ 12] =         0.014888941274;
  BAS[ATNO][  5].a[ 13] =         0.890498826700;     BAS[ATNO][  5].d[ 13] =        -0.021453390886;
  BAS[ATNO][  5].a[ 14] =         0.329472910400;     BAS[ATNO][  5].d[ 14] =        -0.038067371566;
  BAS[ATNO][  5].a[ 15] =         0.133987888300;     BAS[ATNO][  5].d[ 15] =        -0.038301395342;
  BAS[ATNO][  5].a[ 16] =         1.266718201800;     BAS[ATNO][  5].d[ 16] =         0.033159046392;
  BAS[ATNO][  5].a[ 17] =         0.890498826700;     BAS[ATNO][  5].d[ 17] =        -0.047778681543;
  BAS[ATNO][  5].a[ 18] =         0.329472910400;     BAS[ATNO][  5].d[ 18] =        -0.084779549905;

  // Basis function   7 L = d
  InitBFNGauss(BAS[ATNO][  6]);
  BAS[ATNO][  6].l  = 2;
  BAS[ATNO][  6].ng = 19;
  BAS[ATNO][  6].a[  0] =         1.266718201800;     BAS[ATNO][  6].d[  0] =        -0.031729540106;
  BAS[ATNO][  6].a[  1] =         0.890498826700;     BAS[ATNO][  6].d[  1] =         0.045718914059;
  BAS[ATNO][  6].a[  2] =         0.329472910400;     BAS[ATNO][  6].d[  2] =         0.081124652896;
  BAS[ATNO][  6].a[  3] =         0.133987888300;     BAS[ATNO][  6].d[  3] =         0.081623376523;
  BAS[ATNO][  6].a[  4] =         1.266718201800;     BAS[ATNO][  6].d[  4] =        -0.160881596231;
  BAS[ATNO][  6].a[  5] =         0.890498826700;     BAS[ATNO][  6].d[  5] =         0.231813377915;
  BAS[ATNO][  6].a[  6] =         0.329472910400;     BAS[ATNO][  6].d[  6] =         0.411334787960;
  BAS[ATNO][  6].a[  7] =         0.133987888300;     BAS[ATNO][  6].d[  7] =         0.413863518375;
  BAS[ATNO][  6].a[  8] =         1.266718201800;     BAS[ATNO][  6].d[  8] =         0.002708025774;
  BAS[ATNO][  6].a[  9] =         0.890498826700;     BAS[ATNO][  6].d[  9] =        -0.003901978951;
  BAS[ATNO][  6].a[ 10] =         0.329472910400;     BAS[ATNO][  6].d[ 10] =        -0.006923757804;
  BAS[ATNO][  6].a[ 11] =         0.133987888300;     BAS[ATNO][  6].d[ 11] =        -0.006966322443;
  BAS[ATNO][  6].a[ 12] =         1.266718201800;     BAS[ATNO][  6].d[ 12] =         0.017526734139;
  BAS[ATNO][  6].a[ 13] =         0.890498826700;     BAS[ATNO][  6].d[ 13] =        -0.025254171638;
  BAS[ATNO][  6].a[ 14] =         0.329472910400;     BAS[ATNO][  6].d[ 14] =        -0.044811561047;
  BAS[ATNO][  6].a[ 15] =         0.133987888300;     BAS[ATNO][  6].d[ 15] =        -0.045087045544;
  BAS[ATNO][  6].a[ 16] =         1.266718201800;     BAS[ATNO][  6].d[ 16] =         0.039033654555;
  BAS[ATNO][  6].a[ 17] =         0.890498826700;     BAS[ATNO][  6].d[ 17] =        -0.056243371068;
  BAS[ATNO][  6].a[ 18] =         0.329472910400;     BAS[ATNO][  6].d[ 18] =        -0.099799482327;

  // Basis function   8 L = f
  InitBFNGauss(BAS[ATNO][  7]);
  BAS[ATNO][  7].l  = 3;
  BAS[ATNO][  7].ng = 19;
  BAS[ATNO][  7].a[  0] =         3.025161000000;     BAS[ATNO][  7].d[  0] =        -0.000012449862;
  BAS[ATNO][  7].a[  1] =         2.382095000000;     BAS[ATNO][  7].d[  1] =         0.000028610961;
  BAS[ATNO][  7].a[  2] =         0.672466580800;     BAS[ATNO][  7].d[  2] =        -0.000087837119;
  BAS[ATNO][  7].a[  3] =         0.325194271700;     BAS[ATNO][  7].d[  3] =        -0.000238539252;
  BAS[ATNO][  7].a[  4] =         3.025161000000;     BAS[ATNO][  7].d[  4] =        -0.000110706955;
  BAS[ATNO][  7].a[  5] =         2.382095000000;     BAS[ATNO][  7].d[  5] =         0.000254415067;
  BAS[ATNO][  7].a[  6] =         0.672466580800;     BAS[ATNO][  7].d[  6] =        -0.000781067305;
  BAS[ATNO][  7].a[  7] =         0.325194271700;     BAS[ATNO][  7].d[  7] =        -0.002121144381;
  BAS[ATNO][  7].a[  8] =         3.025161000000;     BAS[ATNO][  7].d[  8] =        -0.000001128878;
  BAS[ATNO][  7].a[  9] =         2.382095000000;     BAS[ATNO][  7].d[  9] =         0.000002594268;
  BAS[ATNO][  7].a[ 10] =         0.672466580800;     BAS[ATNO][  7].d[ 10] =        -0.000007964536;
  BAS[ATNO][  7].a[ 11] =         0.325194271700;     BAS[ATNO][  7].d[ 11] =        -0.000021629289;
  BAS[ATNO][  7].a[ 12] =         0.136354893700;     BAS[ATNO][  7].d[ 12] =         0.001901658550;
  BAS[ATNO][  7].a[ 13] =         0.136354893700;     BAS[ATNO][  7].d[ 13] =         0.016909973171;
  BAS[ATNO][  7].a[ 14] =         0.136354893700;     BAS[ATNO][  7].d[ 14] =         0.000172430833;
  BAS[ATNO][  7].a[ 15] =         0.025100000000;     BAS[ATNO][  7].d[ 15] =        -0.004166217535;
  BAS[ATNO][  7].a[ 16] =         0.025100000000;     BAS[ATNO][  7].d[ 16] =        -0.037046938179;
  BAS[ATNO][  7].a[ 17] =         0.025100000000;     BAS[ATNO][  7].d[ 17] =        -0.000377767269;
  BAS[ATNO][  7].a[ 18] =         0.256830000000;     BAS[ATNO][  7].d[ 18] =         0.159251606870;

  // Basis function   9 L = s
  InitBFNGauss(BAS[ATNO][  8]);
  BAS[ATNO][  8].l  = 0;
  BAS[ATNO][  8].ng = 19;
  BAS[ATNO][  8].a[  0] =         5.087399000000;     BAS[ATNO][  8].d[  0] =        -3.684773333851;
  BAS[ATNO][  8].a[  1] =         4.270978000000;     BAS[ATNO][  8].d[  1] =         7.158094467657;
  BAS[ATNO][  8].a[  2] =         2.182380399900;     BAS[ATNO][  8].d[  2] =        -5.111847088126;
  BAS[ATNO][  8].a[  3] =         0.489549264600;     BAS[ATNO][  8].d[  3] =         2.664252740523;
  BAS[ATNO][  8].a[  4] =         0.232920325500;     BAS[ATNO][  8].d[  4] =        -1.763583928142;
  BAS[ATNO][  8].a[  5] =         0.055595529900;     BAS[ATNO][  8].d[  5] =         0.569431762441;
  BAS[ATNO][  8].a[  6] =         0.022795184900;     BAS[ATNO][  8].d[  6] =        -0.235570498318;
  BAS[ATNO][  8].a[  7] =         1.266718201800;     BAS[ATNO][  8].d[  7] =        -0.000002310203;
  BAS[ATNO][  8].a[  8] =         0.890498826700;     BAS[ATNO][  8].d[  8] =         0.000002340106;
  BAS[ATNO][  8].a[  9] =         0.329472910400;     BAS[ATNO][  8].d[  9] =         0.000001536310;
  BAS[ATNO][  8].a[ 10] =         1.266718201800;     BAS[ATNO][  8].d[ 10] =         0.000000788582;
  BAS[ATNO][  8].a[ 11] =         0.890498826700;     BAS[ATNO][  8].d[ 11] =        -0.000000798789;
  BAS[ATNO][  8].a[ 12] =         0.329472910400;     BAS[ATNO][  8].d[ 12] =        -0.000000524415;
  BAS[ATNO][  8].a[ 13] =         1.266718201800;     BAS[ATNO][  8].d[ 13] =         0.000000291541;
  BAS[ATNO][  8].a[ 14] =         0.890498826700;     BAS[ATNO][  8].d[ 14] =        -0.000000295315;
  BAS[ATNO][  8].a[ 15] =         1.266718201800;     BAS[ATNO][  8].d[ 15] =         0.000002948320;
  BAS[ATNO][  8].a[ 16] =         0.890498826700;     BAS[ATNO][  8].d[ 16] =        -0.000002986484;
  BAS[ATNO][  8].a[ 17] =         0.329472910400;     BAS[ATNO][  8].d[ 17] =        -0.000001960665;
  BAS[ATNO][  8].a[ 18] =         0.133987888300;     BAS[ATNO][  8].d[ 18] =        -0.000000802252;

  // Basis function  10 L = s
  InitBFNGauss(BAS[ATNO][  9]);
  BAS[ATNO][  9].l  = 0;
  BAS[ATNO][  9].ng = 11;
  BAS[ATNO][  9].a[  0] =         5.087399000000;     BAS[ATNO][  9].d[  0] =        -3.236723370392;
  BAS[ATNO][  9].a[  1] =         4.270978000000;     BAS[ATNO][  9].d[  1] =         6.287706068130;
  BAS[ATNO][  9].a[  2] =         2.182380399900;     BAS[ATNO][  9].d[  2] =        -2.660818329174;
  BAS[ATNO][  9].a[  3] =         0.489549264600;     BAS[ATNO][  9].d[  3] =         0.908545995695;
  BAS[ATNO][  9].a[  4] =         0.232920325500;     BAS[ATNO][  9].d[  4] =        -0.571527999637;
  BAS[ATNO][  9].a[  5] =         0.055595529900;     BAS[ATNO][  9].d[  5] =         0.181406891090;
  BAS[ATNO][  9].a[  6] =         0.022795184900;     BAS[ATNO][  9].d[  6] =        -0.075152208092;
  BAS[ATNO][  9].a[  7] =         1.266718201800;     BAS[ATNO][  9].d[  7] =        -0.000000194232;
  BAS[ATNO][  9].a[  8] =         0.890498826700;     BAS[ATNO][  9].d[  8] =         0.000000196747;
  BAS[ATNO][  9].a[  9] =         1.266718201800;     BAS[ATNO][  9].d[  9] =         0.000000246973;
  BAS[ATNO][  9].a[ 10] =         0.890498826700;     BAS[ATNO][  9].d[ 10] =        -0.000000250170;

-------------------------------------------
RADIAL EXPECTATION VALUES <R**-3> TO <R**3>
-------------------------------------------
   0 :     0.000000     0.504464     0.679906     1.602564     2.797061     5.315363
   1 :     0.292684     0.398351     0.600855     1.834298     3.708569     8.269148
   2 :     0.292683     0.398349     0.600853     1.834306     3.708605     8.269292
   3 :     0.292676     0.398342     0.600846     1.834337     3.708758     8.269909
   4 :     0.000000     0.091291     0.264081     4.455805    22.349631   124.451043
   5 :     0.094032     0.177620     0.389833     3.014990    10.700435   222.395478
   6 :     0.000000     0.045167     0.171267     7.344697    60.725392   538.671594
   7 :     0.094096     0.177716     0.389960     3.013596    10.689127   222.007273
   8 :     0.018920     0.047047     0.186376     6.393499    46.044815   364.150582
   9 :     0.018962     0.047112     0.186479     6.391325    46.019492   363.903601
  10 :     0.018960     0.047107     0.186468     6.391608    46.022894   363.937272
  11 :     0.074925     0.148218     0.350086     3.471798    14.506755   356.380246
  12 :     0.074923     0.148215     0.350082     3.471847    14.507177   356.395353
  13 :     0.074923     0.148214     0.350081     3.471861    14.507292   356.399497
  14 :     0.042360     0.083921     0.238317     5.469301    34.293459  1157.422157
  15 :     0.042393     0.083972     0.238385     5.468563    34.287462  1157.216370
  16 :     0.061515     0.113397     0.278161     5.011426    30.478479  1023.140432
  17 :     0.061517     0.113400     0.278166     5.011377    30.478058  1023.125326
  18 :     0.061518     0.113400     0.278167     5.011363    30.477942  1023.121181
  19 :     0.093768     0.148195     0.325276     4.296445    24.919093   181.379108
  20 :     0.093779     0.148210     0.325296     4.296125    24.915509   181.344585
  21 :     0.093812     0.148262     0.325381     4.294263    24.893722   181.131814
  22 :     0.063299     0.146758     0.369693     2.878964     8.761158   196.163576
  23 :     0.063299     0.146758     0.369693     2.878965     8.761171   196.163750
  24 :     0.063299     0.146758     0.369693     2.878964     8.761151   196.163667
  25 :     0.063299     0.146760     0.369696     2.878917     8.760659   196.164950
  26 :     0.063299     0.146760     0.369696     2.878917     8.760659   196.164951
  27 :     0.063299     0.146760     0.369696     2.878917     8.760659   196.164945
  28 :     0.063299     0.146760     0.369696     2.878917     8.760659   196.164950
  29 :     0.000000     0.289312     0.456958     3.183504    14.870569    96.459970
  30 :     0.000000     2.121447     1.276034     1.004409     1.704233     6.557387
  31 :     0.000000    19.951367     3.559972     0.393102     0.284492     0.716832
Making the total density                ... o.k.
o.k.
Initializing the integrals              ... done
Making exponents                        ... done
Making rho(0)                           ... done (         0.000109267)
Integral calculation                    ... Two index integrals                     ... done
Solving the equation system             ... done
atomic density will be written to file 57_La_atom57.adf

-------
TIMINGS
-------

Total SCF time: 0 days 0 hours 0 min 1 sec 

Total time                  ....       1.883 sec
Sum of individual times     ....       1.304 sec  ( 69.3%)

Fock matrix formation       ....       0.988 sec  ( 52.5%)
Diagonalization             ....       0.135 sec  (  7.2%)
Density matrix formation    ....       0.002 sec  (  0.1%)
Population analysis         ....       0.000 sec  (  0.0%)
Initial guess               ....       0.000 sec  (  0.0%)
Orbital Transformation      ....       0.000 sec  (  0.0%)
Orbital Orthonormalization  ....       0.000 sec  (  0.0%)
DIIS solution               ....       0.178 sec  (  9.5%)

-------------------------   --------------------
FINAL SINGLE POINT ENERGY       -31.020936520737
-------------------------   --------------------


                            ***************************************
                            *     ORCA property calculations      *
                            ***************************************

                                    ---------------------
                                    Active property flags
                                    ---------------------
   (+) Dipole Moment


------------------------------------------------------------------------------
                       ORCA ELECTRIC PROPERTIES CALCULATION
------------------------------------------------------------------------------

Dipole Moment Calculation                       ... on
Quadrupole Moment Calculation                   ... off
Polarizability Calculation                      ... off
GBWName                                         ... 57_La_atom57.gbw
Electron density file                           ... 57_La_atom57.scfp
The origin for moment calculation is the CENTER OF MASS  = ( 0.000000,  0.000000  0.000000)

-------------
DIPOLE MOMENT
-------------
                                X             Y             Z
Electronic contribution:     -0.00000       0.00000       0.00000
Nuclear contribution   :      0.00000       0.00000       0.00000
                        -----------------------------------------
Total Dipole Moment    :     -0.00000       0.00000       0.00000
                        -----------------------------------------
Magnitude (a.u.)       :      0.00000
Magnitude (Debye)      :      0.00000



--------------------
Rotational spectrum 
--------------------
 
Rotational constants in cm-1:     0.000000     0.000000     0.000000 
Rotational constants in MHz :     0.000000     0.000000     0.000000 

 Dipole components along the rotational axes: 
x,y,z [a.u.] :    -0.000000     0.000000     0.000000 
x,y,z [Debye]:    -0.000000     0.000000     0.000000 

 

Timings for individual modules:

Sum of individual times         ...        2.227 sec (=   0.037 min)
GTO integral calculation        ...        0.320 sec (=   0.005 min)  14.4 %
SCF iterations                  ...        1.907 sec (=   0.032 min)  85.6 %
                             ****ORCA TERMINATED NORMALLY****
TOTAL RUN TIME: 0 days 0 hours 0 minutes 2 seconds 486 msec
