
                                 *****************
                                 * O   R   C   A *
                                 *****************

           --- An Ab Initio, DFT and Semiempirical electronic structure package ---

                  #######################################################
                  #                        -***-                        #
                  #          Department of theory and spectroscopy      #
                  #               Directorship: Frank Neese             #
                  #        Max Planck Institute fuer Kohlenforschung    #
                  #                Kaiser Wilhelm Platz 1               #
                  #                 D-45470 Muelheim/Ruhr               #
                  #                      Germany                        #
                  #                                                     #
                  #                  All rights reserved                #
                  #                        -***-                        #
                  #######################################################


                         Program Version 4.2.0 -  RELEASE  -


 With contributions from (in alphabetic order):
   Daniel Aravena         : Magnetic Suceptibility
   Michael Atanasov       : Ab Initio Ligand Field Theory (pilot matlab implementation)
   Alexander A. Auer      : GIAO ZORA, VPT2
   Ute Becker             : Parallelization
   Giovanni Bistoni       : ED, misc. LED, open-shell LED, HFLED
   Martin Brehm           : Molecular dynamics
   Dmytro Bykov           : SCF Hessian
   Vijay G. Chilkuri      : MRCI spin determinant printing, contributions to CSF-ICE
   Dipayan Datta          : RHF DLPNO-CCSD density
   Achintya Kumar Dutta   : EOM-CC, STEOM-CC
   Dmitry Ganyushin       : Spin-Orbit,Spin-Spin,Magnetic field MRCI
   Miquel Garcia          : C-PCM Hessian, Gaussian charge scheme
   Yang Guo               : DLPNO-NEVPT2, CIM, IAO-localization
   Andreas Hansen         : Spin unrestricted coupled pair/coupled cluster methods
   Benjamin Helmich-Paris : CASSCF linear response (MC-RPA)
   Lee Huntington         : MR-EOM, pCC
   Robert Izsak           : Overlap fitted RIJCOSX, COSX-SCS-MP3, EOM
   Christian Kollmar      : KDIIS, OOCD, Brueckner-CCSD(T), CCSD density
   Simone Kossmann        : Meta GGA functionals, TD-DFT gradient, OOMP2, MP2 Hessian
   Martin Krupicka        : AUTO-CI
   Lucas Lang             : DCDCAS
   Dagmar Lenk            : GEPOL surface, SMD
   Dimitrios Liakos       : Extrapolation schemes; Compound Job, initial MDCI parallelization
   Dimitrios Manganas     : Further ROCIS development; embedding schemes
   Dimitrios Pantazis     : SARC Basis sets
   Taras Petrenko         : DFT Hessian,TD-DFT gradient, ASA, ECA, R-Raman, ABS, FL, XAS/XES, NRVS
   Peter Pinski           : DLPNO-MP2, DLPNO-MP2 Gradient
   Christoph Reimann      : Effective Core Potentials
   Marius Retegan         : Local ZFS, SOC
   Christoph Riplinger    : Optimizer, TS searches, QM/MM, DLPNO-CCSD(T), (RO)-DLPNO pert. Triples
   Tobias Risthaus        : Range-separated hybrids, TD-DFT gradient, RPA, STAB
   Michael Roemelt        : Original ROCIS implementation
   Masaaki Saitow         : Open-shell DLPNO-CCSD energy and density
   Barbara Sandhoefer     : DKH picture change effects
   Avijit Sen             : IP-ROCIS
   Kantharuban Sivalingam : CASSCF convergence, NEVPT2, FIC-MRCI
   Bernardo de Souza      : ESD, SOC TD-DFT
   Georgi Stoychev        : AutoAux, RI-MP2 NMR
   Willem Van den Heuvel  : Paramagnetic NMR
   Boris Wezisla          : Elementary symmetry handling
   Frank Wennmohs         : Technical directorship


 We gratefully acknowledge several colleagues who have allowed us to
 interface, adapt or use parts of their codes:
   Stefan Grimme, W. Hujo, H. Kruse,             : VdW corrections, initial TS optimization,
                  C. Bannwarth                     DFT functionals, gCP, sTDA/sTD-DF
   Ed Valeev, F. Pavosevic, A. Kumar             : LibInt (2-el integral package), F12 methods
   Garnet Chan, S. Sharma, J. Yang, R. Olivares  : DMRG
   Ulf Ekstrom                                   : XCFun DFT Library
   Mihaly Kallay                                 : mrcc  (arbitrary order and MRCC methods)
   Andreas Klamt, Michael Diedenhofen            : otool_cosmo (COSMO solvation model)
   Jiri Pittner, Ondrej Demel                    : Mk-CCSD
   Frank Weinhold                                : gennbo (NPA and NBO analysis)
   Christopher J. Cramer and Donald G. Truhlar   : smd solvation model
   Lars Goerigk                                  : TD-DFT with DH, B97 family of functionals
   V. Asgeirsson, H. Jonsson                     : NEB implementation
   FAccTs GmbH                                   : IRC, NEB, NEB-TS, Multilevel, MM, QM/MM, CI optimization
   S Lehtola, MJT Oliveira, MAL Marques          : LibXC Library


 Your calculation uses the libint2 library for the computation of 2-el integrals
 For citations please refer to: http://libint.valeyev.net

 Your ORCA version has been built with support for libXC version: 4.2.3
 For citations please refer to: https://tddft.org/programs/libxc/

 This ORCA versions uses:
   CBLAS   interface :  Fast vector & matrix operations
   LAPACKE interface :  Fast linear algebra routines
   SCALAPACK package :  Parallel linear algebra routines


Setting NCore(La) from 36 to 46
----- Orbital basis set information -----
Your calculation utilizes the basis: def2-SVP
   F. Weigend and R. Ahlrichs, Phys. Chem. Chem. Phys. 7, 3297 (2005).

cite the ECPs for La [Def2-ECP] as follows:
Ce-Yb(ecp-28): M. Dolg, H. Stoll, H.Preuss, J. Chem. Phys., 1989, 90, 1730-1734.
Y-Cd(ecp-28), Hf-Hg(ecp-46): D. Andrae,U. Haeussermann, M. Dolg, H. Stoll, H. Preuss, Theor. Chim. Acta, 1990, 77, 123-141.
In-Sb(ecp-28), Tl-Bi(ecp-46): B. Metz, H. Stoll, M. Dolg, J. Chem. Phys., 2000, 113, 2563-2569.
Te-Xe(ecp-28), Po-Rn(ecp-46): K. A. Peterson, D. Figgen, E. Goll, H. Stoll, M. Dolg, J. Chem. Phys., 2003, 119, 11113-11123.
Rb(ecp-28), Cs(ecp-46): T. Leininger, A. Nicklass, W. Kuechle, H. Stoll, M. Dolg, A. Bergner, Chem. Phys. Lett., 1996, 255, 274-280.
Sr(ecp-28), Ba(ecp-46): M. Kaupp, P. V. Schleyer, H. Stoll and H. Preuss, J. Chem. Phys., 1991, 94, 1360-1366.
La(ecp-46): M. Dolg, H. Stoll, A. Savin, H. Preuss, Theor. Chim. Acta, 1989, 75, 173-194.
Lu(ecp-28): X. Cao, M. Dolg, J. Chem. Phys., 2001, 115, 7348-7355.

ECP parameters for La [Def2-ECP] have been obtained from:
TURBOMOLE (7.0.2)

================================================================================
                                        WARNINGS
                       Please study these warnings very carefully!
================================================================================


WARNING: your system is open-shell and RHF/RKS was chosen
  ===> : WILL SWITCH to UHF/UKS


WARNING: Restarting MDCI calulations with QROs will lead to 
         significant changes in the QROs!
  ===> : For restart on a converged wavefunction better use NoIter or MaxIter=0


WARNING: MDCI localization with Augmented Hessian Foster-Boys
  ===> : Switching off randomization!

WARNING: Post HF methods need fully converged wavefunctions
  ===> : Setting SCFConvForced true
         You can overwrite this default with %scf ConvForced false 


INFO   : the flag for use of LIBINT has been found!

================================================================================
                                       INPUT FILE
================================================================================
NAME = 57_La.in
|  1> #
|  2> # 57_La CCSD(T)/Def2-SVP
|  3> #
|  4> ! CCSD(T) Def2-SVP verytightscf kdiis UNO
|  5> 
|  6> *xyz 0 2
|  7>  La 0.0 0.0 0.0
|  8> *
|  9> 
| 10> %maxcore 5000 
| 11> 
| 12> %pal
| 13> nprocs 24
| 14> end
| 15> 
| 16> %method
| 17> NewNCore La 46 end
| 18> end
| 19> 
| 20> %mdci
| 21> UseQROs true
| 22> maxdiis 40
| 23> maxiter 200
| 24> end
| 25> 
| 26> 
| 27>                          ****END OF INPUT****
================================================================================

                       ****************************
                       * Single Point Calculation *
                       ****************************

---------------------------------
CARTESIAN COORDINATES (ANGSTROEM)
---------------------------------
  La     0.000000    0.000000    0.000000

----------------------------
CARTESIAN COORDINATES (A.U.)
----------------------------
  NO LB      ZA    FRAG     MASS         X           Y           Z
   0 La   11.0000*   0   138.905    0.000000    0.000000    0.000000
* core charge reduced due to ECP

--------------------------------
INTERNAL COORDINATES (ANGSTROEM)
--------------------------------
 La     0   0   0     0.000000000000     0.00000000     0.00000000

---------------------------
INTERNAL COORDINATES (A.U.)
---------------------------
 La     0   0   0     0.000000000000     0.00000000     0.00000000

---------------------
BASIS SET INFORMATION
---------------------
There are 1 groups of distinct atoms

 Group   1 Type La  : 7s6p5d1f contracted to 6s3p2d1f pattern {211111/411/41/1}

Atom   0La   basis set group =>   1
-------------------------
ECP PARAMETER INFORMATION
-------------------------

 Group 1, Type La ECP Def2-ECP (replacing 46 core electrons, lmax=3)

Atom   0La   ECP group =>   1


Checking for AutoStart:
The File: 57_La.gbw exists
Trying to determine its content:
     ... Fine, the file contains calculation information
     ... Fine, the calculation information was read
     ... Fine, the file contains a basis set
     ... Fine, the basis set was read
     ... Fine, the file contains ECP parameters
     ... Fine, ECP parameters were read
     ... Fine, the file contains a geometry
     ... Fine, the geometry was read
     ... Fine, the file contains a set of orbitals
     ... Fine, the orbitals can be read
     => possible old guess file was deleted
     => GBW file was renamed to GES file
     => GES file is set as startup file
     => Guess is set to MORead
     ... now leaving AutoStart



           ************************************************************
           *        Program running with 24 parallel MPI-processes    *
           *              working on a common directory               *
           ************************************************************
------------------------------------------------------------------------------
                           ORCA GTO INTEGRAL CALCULATION
------------------------------------------------------------------------------

                         BASIS SET STATISTICS AND STARTUP INFO

 # of primitive gaussian shells          ...   19
 # of primitive gaussian functions       ...   57
 # of contracted shells                  ...   12
 # of contracted basis functions         ...   32
 Highest angular momentum                ...    3
 Maximum contraction depth               ...    4
 Integral package used                   ... LIBINT
 Integral threshhold            Thresh   ...  1.000e-12
 Primitive cut-off              TCut     ...  1.000e-14


------------------------------ INTEGRAL EVALUATION ----------------------------


 * One electron integrals 

   ECP integrals                         ... done
 Pre-screening matrix                    ... done
 Shell pair data                         ... done (   0.000 sec)



           ************************************************************
           *        Program running with 24 parallel MPI-processes    *
           *              working on a common directory               *
           ************************************************************
-------------------------------------------------------------------------------
                                 ORCA SCF
-------------------------------------------------------------------------------

------------
SCF SETTINGS
------------
Hamiltonian:
 Ab initio Hamiltonian  Method          .... Hartree-Fock(GTOs)


General Settings:
 Integral files         IntName         .... 57_La
 Hartree-Fock type      HFTyp           .... UHF
 Total Charge           Charge          ....    0
 Multiplicity           Mult            ....    2
 Number of Electrons    NEL             ....   11
 Basis Dimension        Dim             ....   32
 Nuclear Repulsion      ENuc            ....      0.0000000000 Eh

Convergence Acceleration:
 DIIS                   CNVDIIS         .... off
 Newton-Raphson         CNVNR           .... off
 SOSCF                  CNVSOSCF        .... off
 Level Shifting         CNVShift        .... off
 Zerner damping         CNVZerner       .... off
 Static damping         CNVDamp         .... off
 Fernandez-Rico         CNVRico         .... off

SCF Procedure:
 Maximum # iterations   MaxIter         ....   125
 SCF integral mode      SCFMode         .... Direct
   Integral package                     .... LIBINT
 Reset frequency        DirectResetFreq ....    20
 Integral Threshold     Thresh          ....  1.000e-12 Eh
 Primitive CutOff       TCut            ....  1.000e-14 Eh

Convergence Tolerance:
 Convergence Check Mode ConvCheckMode   .... Total+1el-Energy
 Convergence forced     ConvForced      .... 1
 Energy Change          TolE            ....  1.000e-09 Eh
 1-El. energy change                    ....  1.000e-06 Eh


Diagonalization of the overlap matrix:
Smallest eigenvalue                        ... 1.029e-02
Time for diagonalization                   ...    0.001 sec
Threshold for overlap eigenvalues          ... 1.000e-08
Number of eigenvalues below threshold      ... 0
Time for construction of square roots      ...    0.010 sec
Total time needed                          ...    0.010 sec

---------------------
INITIAL GUESS: MOREAD
---------------------
Guess MOs are being read from file: 57_La.ges
Input Geometry matches current geometry (good)
Input basis set matches current basis set (good)
MOs were renormalized
MOs were reorthogonalized (Cholesky)
                      ------------------
                      INITIAL GUESS DONE (   0.0 sec)
                      ------------------
--------------
SCF ITERATIONS
--------------
ITER       Energy         Delta-E        Max-DP      RMS-DP      [F,P]   Gradient Norm
               ***  Starting incremental Fock matrix formation  ***
                             ****Resetting KDIIS****
                             ****Turning on KDIIS(Cayley)****
  0    -30.9871144299   0.000000000000 0.00000226  0.00000012  0.0000053   0.000003637
                 **** Energy Check signals convergence ****
                    *** KDIIS BlockDiag ( 0.697 sec) ***

               *****************************************************
               *                     SUCCESS                       *
               *           SCF CONVERGED AFTER   1 CYCLES          *
               *****************************************************


----------------
TOTAL SCF ENERGY
----------------

Total Energy       :          -30.98711443 Eh            -843.20225 eV

Components:
Nuclear Repulsion  :            0.00000000 Eh               0.00000 eV
Electronic Energy  :          -30.98711443 Eh            -843.20225 eV
One Electron Energy:          -52.40799883 Eh           -1426.09415 eV
Two Electron Energy:           21.42088440 Eh             582.89190 eV

Virial components:
Potential Energy   :          -39.69321727 Eh           -1080.10735 eV
Kinetic Energy     :            8.70610284 Eh             236.90510 eV
Virial Ratio       :            4.55924057


---------------
SCF CONVERGENCE
---------------

  Last Energy change         ...   -9.1472e-11  Tolerance :   1.0000e-09
  Last MAX-Density change    ...    2.0679e-06  Tolerance :   1.0000e-08
  Last RMS-Density change    ...    8.8414e-08  Tolerance :   1.0000e-09

             **** THE GBW FILE WAS UPDATED (57_La.gbw) ****
             **** DENSITY FILE WAS UPDATED (57_La.scfp) ****
             **** ENERGY FILE WAS UPDATED (57_La.en.tmp) ****
----------------------
UHF SPIN CONTAMINATION
----------------------

Expectation value of <S**2>     :     0.754346
Ideal value S*(S+1) for S=0.5   :     0.750000
Deviation                       :     0.004346

             **** THE GBW FILE WAS UPDATED (57_La.gbw) ****
             **** DENSITY FILE WAS UPDATED (57_La.scfp) ****
----------------
ORBITAL ENERGIES
----------------
                 SPIN UP ORBITALS
  NO   OCC          E(Eh)            E(eV) 
   0   1.0000      -1.737995       -47.2932 
   1   1.0000      -0.983860       -26.7722 
   2   1.0000      -0.972304       -26.4577 
   3   1.0000      -0.957790       -26.0628 
   4   1.0000      -0.151574        -4.1245 
   5   1.0000      -0.121096        -3.2952 
   6   0.0000       0.003851         0.1048 
   7   0.0000       0.040179         1.0933 
   8   0.0000       0.048442         1.3182 
   9   0.0000       0.049249         1.3401 
  10   0.0000       0.089303         2.4300 
  11   0.0000       0.090013         2.4494 
  12   0.0000       0.112814         3.0698 
  13   0.0000       0.147823         4.0225 
  14   0.0000       0.231124         6.2892 
  15   0.0000       0.250052         6.8043 
  16   0.0000       0.273575         7.4443 
  17   0.0000       0.274225         7.4620 
  18   0.0000       0.297803         8.1036 
  19   0.0000       0.508265        13.8306 
  20   0.0000       0.527877        14.3643 
  21   0.0000       0.529407        14.4059 
  22   0.0000       0.692383        18.8407 
  23   0.0000       0.694765        18.9055 
  24   0.0000       0.700170        19.0526 
  25   0.0000       0.718581        19.5536 
  26   0.0000       0.719266        19.5722 
  27   0.0000       0.725058        19.7298 
  28   0.0000       0.730810        19.8863 
  29   0.0000       1.037337        28.2274 
  30   0.0000      11.744179       319.5754 
  31   0.0000      33.786177       919.3686 

                 SPIN DOWN ORBITALS
  NO   OCC          E(Eh)            E(eV) 
   0   1.0000      -1.719497       -46.7899 
   1   1.0000      -0.952644       -25.9228 
   2   1.0000      -0.940537       -25.5933 
   3   1.0000      -0.925467       -25.1832 
   4   1.0000      -0.103467        -2.8155 
   5   0.0000       0.012739         0.3466 
   6   0.0000       0.048568         1.3216 
   7   0.0000       0.048732         1.3261 
   8   0.0000       0.056652         1.5416 
   9   0.0000       0.096968         2.6386 
  10   0.0000       0.099315         2.7025 
  11   0.0000       0.118087         3.2133 
  12   0.0000       0.119290         3.2460 
  13   0.0000       0.158776         4.3205 
  14   0.0000       0.258101         7.0233 
  15   0.0000       0.279665         7.6101 
  16   0.0000       0.281819         7.6687 
  17   0.0000       0.304078         8.2744 
  18   0.0000       0.304893         8.2966 
  19   0.0000       0.526986        14.3400 
  20   0.0000       0.531692        14.4681 
  21   0.0000       0.551233        14.9998 
  22   0.0000       0.723768        19.6947 
  23   0.0000       0.725928        19.7535 
  24   0.0000       0.733501        19.9596 
  25   0.0000       0.734977        19.9998 
  26   0.0000       0.737271        20.0622 
  27   0.0000       0.752033        20.4639 
  28   0.0000       0.757678        20.6175 
  29   0.0000       1.047594        28.5065 
  30   0.0000      11.745237       319.6041 
  31   0.0000      33.786288       919.3716 

                    ********************************
                    * MULLIKEN POPULATION ANALYSIS *
                    ********************************

--------------------------------------------
MULLIKEN ATOMIC CHARGES AND SPIN POPULATIONS
--------------------------------------------
   0 La:    0.000000    1.000000
Sum of atomic charges         :    0.0000000
Sum of atomic spin populations:    1.0000000

-----------------------------------------------------
MULLIKEN REDUCED ORBITAL CHARGES AND SPIN POPULATIONS
-----------------------------------------------------
CHARGE
  0 Las       :     1.999793  s :     1.999793
      pz      :     1.999512  p :     5.997527
      px      :     1.999742
      py      :     1.998274
      dz2     :     0.000120  d :     3.000207
      dxz     :     0.000020
      dyz     :     0.999980
      dx2y2   :     0.000231
      dxy     :     1.999856
      f0      :     0.000135  f :     0.002473
      f+1     :     0.000012
      f-1     :     0.000823
      f+2     :     0.000353
      f-2     :     0.000000
      f+3     :     0.000247
      f-3     :     0.000903

SPIN
  0 Las       :     0.000013  s :     0.000013
      pz      :    -0.000052  p :    -0.000856
      px      :    -0.000137
      py      :    -0.000667
      dz2     :     0.000073  d :     0.999987
      dxz     :     0.000019
      dyz     :     0.999980
      dx2y2   :    -0.000087
      dxy     :     0.000003
      f0      :    -0.000103  f :     0.000856
      f+1     :     0.000011
      f-1     :     0.000821
      f+2     :     0.000154
      f-2     :     0.000000
      f+3     :     0.000126
      f-3     :    -0.000154


                     *******************************
                     * LOEWDIN POPULATION ANALYSIS *
                     *******************************

-------------------------------------------
LOEWDIN ATOMIC CHARGES AND SPIN POPULATIONS
-------------------------------------------
   0 La:   -0.000000    1.000000

----------------------------------------------------
LOEWDIN REDUCED ORBITAL CHARGES AND SPIN POPULATIONS
----------------------------------------------------
CHARGE
  0 Las       :     1.999793  s :     1.999793
      pz      :     1.999512  p :     5.997527
      px      :     1.999742
      py      :     1.998274
      dz2     :     0.000120  d :     3.000207
      dxz     :     0.000020
      dyz     :     0.999980
      dx2y2   :     0.000231
      dxy     :     1.999856
      f0      :     0.000135  f :     0.002473
      f+1     :     0.000012
      f-1     :     0.000823
      f+2     :     0.000353
      f-2     :     0.000000
      f+3     :     0.000247
      f-3     :     0.000903

SPIN
  0 Las       :     0.000013  s :     0.000013
      pz      :    -0.000052  p :    -0.000856
      px      :    -0.000137
      py      :    -0.000667
      dz2     :     0.000073  d :     0.999987
      dxz     :     0.000019
      dyz     :     0.999980
      dx2y2   :    -0.000087
      dxy     :     0.000003
      f0      :    -0.000103  f :     0.000856
      f+1     :     0.000011
      f-1     :     0.000821
      f+2     :     0.000154
      f-2     :     0.000000
      f+3     :     0.000126
      f-3     :    -0.000154


                      *****************************
                      * MAYER POPULATION ANALYSIS *
                      *****************************

  NA   - Mulliken gross atomic population
  ZA   - Total nuclear charge
  QA   - Mulliken gross atomic charge
  VA   - Mayer's total valence
  BVA  - Mayer's bonded valence
  FA   - Mayer's free valence

  ATOM       NA         ZA         QA         VA         BVA        FA
  0 La    11.0000    11.0000    -0.0000     1.0087     0.0000     1.0087

  Mayer bond orders larger than 0.100000



                ***UHF Natural Orbitals were saved in 57_La.unso***


                ***UHF Natural Orbitals were saved in 57_La.uno***

QR-MO GENERATION
 Dim     =   32
 Mult    =    2
 NEl     =   11
 N(DOMO) =    5
 N(SOMO) =    1
 N(VMO)  =   26


                ***Quasi-Restricted Orbitals were saved in 57_La.qro***

Orbital Energies of Quasi-Restricted MO's
   0( 2) :    -1.719401 a.u.   -46.787 eV
   1( 2) :    -0.952622 a.u.   -25.922 eV
   2( 2) :    -0.940069 a.u.   -25.581 eV
   3( 2) :    -0.925003 a.u.   -25.171 eV
   4( 2) :    -0.103305 a.u.    -2.811 eV
   5( 1) :    -0.001038 a.u.    -0.028 eV alpha=   -4.125 beta=    4.068
   6( 0) :     0.003841 a.u.     0.105 eV
   7( 0) :     0.040157 a.u.     1.093 eV
   8( 0) :     0.048441 a.u.     1.318 eV
   9( 0) :     0.049229 a.u.     1.340 eV
  10( 0) :     0.089286 a.u.     2.430 eV
  11( 0) :     0.090013 a.u.     2.449 eV
  12( 0) :     0.112803 a.u.     3.070 eV
  13( 0) :     0.147811 a.u.     4.022 eV
  14( 0) :     0.231124 a.u.     6.289 eV
  15( 0) :     0.249886 a.u.     6.800 eV
  16( 0) :     0.273559 a.u.     7.444 eV
  17( 0) :     0.274225 a.u.     7.462 eV
  18( 0) :     0.297787 a.u.     8.103 eV
  19( 0) :     0.508189 a.u.    13.829 eV
  20( 0) :     0.527873 a.u.    14.364 eV
  21( 0) :     0.529294 a.u.    14.403 eV
  22( 0) :     0.692071 a.u.    18.832 eV
  23( 0) :     0.694765 a.u.    18.906 eV
  24( 0) :     0.699823 a.u.    19.043 eV
  25( 0) :     0.718579 a.u.    19.554 eV
  26( 0) :     0.719249 a.u.    19.572 eV
  27( 0) :     0.725043 a.u.    19.729 eV
  28( 0) :     0.730797 a.u.    19.886 eV
  29( 0) :     1.037322 a.u.    28.227 eV
  30( 0) :    11.744179 a.u.   319.575 eV
  31( 0) :    33.786177 a.u.   919.369 eV
-------
TIMINGS
-------

Total SCF time: 0 days 0 hours 0 min 0 sec 

Total time                  ....       0.839 sec
Sum of individual times     ....       0.520 sec  ( 62.0%)

Fock matrix formation       ....       0.415 sec  ( 49.4%)
Diagonalization             ....       0.009 sec  (  1.1%)
Density matrix formation    ....       0.000 sec  (  0.0%)
Population analysis         ....       0.089 sec  ( 10.6%)
Initial guess               ....       0.006 sec  (  0.7%)
Orbital Transformation      ....       0.000 sec  (  0.0%)
Orbital Orthonormalization  ....       0.001 sec  (  0.1%)
DIIS solution               ....       0.000 sec  (  0.0%)


           ************************************************************
           *        Program running with 24 parallel MPI-processes    *
           *              working on a common directory               *
           ************************************************************


------------------------------------------------------------------------------- 
                              ORCA-MATRIX DRIVEN CI                            
------------------------------------------------------------------------------- 

--------------------------------
AUTOMATIC CHOICE OF INCORE LEVEL
--------------------------------

Memory available                           ...   2500.00 MB
Memory needed for S+T                      ...      0.32 MB
Memory needed for J+K                      ...      0.66 MB
Memory needed for DIIS                     ...     25.99 MB
Memory needed for 3-ext                    ...      0.80 MB
Memory needed for 4-ext                    ...      1.81 MB
Memory needed for triples                  ...      0.67 MB
 -> Final InCoreLevel    ... 5
 -> check shows that triples correction can be computed


Wavefunction type
-----------------
Correlation treatment                      ...      CCSD     
Single excitations                         ... ON
Orbital optimization                       ... OFF
Calculation of Z vector                    ... OFF
Calculation of Brueckner orbitals          ... OFF
Perturbative triple excitations            ... ON
Calculation of F12 correction              ... OFF
Frozen core treatment                      ... chemical core (0 el)
Reference Wavefunction                     ... UHF
  Alpha-MOs occ    :     0 ...    5 (  6 MO's/  6 electrons)
  Beta-MOs occ     :     0 ...    4 (  5 MO's/  5 electrons)
  Alpha-MOs virt   :     6 ...   31 ( 26 MO's              )
  Beta-MOs virt    :     5 ...   31 ( 27 MO's              )
  Quasi restricted orbitals will be used (this is similar to a ROHF determinant)
Number of AO's                             ...     32
Number of electrons                        ...     11
Number of correlated electrons             ...     11

Algorithmic settings
--------------------
Integral transformation                    ... AO direct full transformation
K(C) Formation                             ... FULL-MO TRAFO
Maximum number of iterations               ...       200
Convergence tolerance (max. residuum)      ... 1.000e-06
Level shift for amplitude update           ... 2.000e-01
Maximum number of DIIS vectors             ...        40
DIIS turned on at iteration                ...         0
Damping before turning on DIIS             ...     0.500
Damping after turning on DIIS              ...     0.000
Pair specific amplitude update             ... OFF
Natural orbital iterations                 ... OFF
Perturbative natural orbital generation    ... OFF
Printlevel                                 ... 2

Memory handling:
----------------
Maximum memory for working arrays          ...   2500 MB
Data storage in matrix containers          ... UNCOMPRESSED
Data type for integral storage             ... DOUBLE
In-Core Storage of quantities:
   Amplitudes+Sigma Vector      ... YES
   J+K operators                ... YES
   DIIS vectors                 ... YES
   3-external integrals         ... YES
   4-external integrals         ... YES


Initializing the integral package          ... done
Re-Reading QRO orbitals for the actual calculation
  ... duplicating orbitals and energies 
  ... adjusting occupation numbers
Warning: reference  - re-canonicalizations have been set to INT 1 VIRT 1

--------------------------
UNRESTRICTED FOCK OPERATOR
--------------------------

<ss|ss>:          231 b            0 skpd (  0.0%)    0.000 s ( 0.000 ms/b)
<ss|sp>:          378 b            0 skpd (  0.0%)    0.000 s ( 0.000 ms/b)
<ss|sd>:          252 b            0 skpd (  0.0%)    0.000 s ( 0.000 ms/b)
<ss|sf>:          126 b            0 skpd (  0.0%)    0.000 s ( 0.000 ms/b)
<ss|pp>:          126 b            0 skpd (  0.0%)    0.000 s ( 0.000 ms/b)
<ss|pd>:          126 b            0 skpd (  0.0%)    0.000 s ( 0.001 ms/b)
<ss|pf>:           63 b            0 skpd (  0.0%)    0.000 s ( 0.001 ms/b)
<ss|dd>:           63 b            0 skpd (  0.0%)    0.000 s ( 0.002 ms/b)
<ss|df>:           42 b            0 skpd (  0.0%)    0.000 s ( 0.002 ms/b)
<ss|ff>:           21 b            0 skpd (  0.0%)    0.000 s ( 0.004 ms/b)
<sp|sp>:          171 b            0 skpd (  0.0%)    0.000 s ( 0.000 ms/b)
<sp|sd>:          216 b            0 skpd (  0.0%)    0.000 s ( 0.000 ms/b)
<sp|sf>:          108 b            0 skpd (  0.0%)    0.000 s ( 0.000 ms/b)
<sp|pp>:          108 b            0 skpd (  0.0%)    0.000 s ( 0.001 ms/b)
<sp|pd>:          108 b            0 skpd (  0.0%)    0.000 s ( 0.002 ms/b)
<sp|pf>:           54 b            0 skpd (  0.0%)    0.000 s ( 0.003 ms/b)
<sp|dd>:           54 b            0 skpd (  0.0%)    0.000 s ( 0.006 ms/b)
<sp|df>:           36 b            0 skpd (  0.0%)    0.000 s ( 0.006 ms/b)
<sp|ff>:           18 b            0 skpd (  0.0%)    0.000 s ( 0.009 ms/b)
<sd|sd>:           78 b            0 skpd (  0.0%)    0.000 s ( 0.001 ms/b)
<sd|sf>:           72 b            0 skpd (  0.0%)    0.000 s ( 0.001 ms/b)
<sd|pp>:           72 b            0 skpd (  0.0%)    0.000 s ( 0.003 ms/b)
<sd|pd>:           72 b            0 skpd (  0.0%)    0.000 s ( 0.007 ms/b)
<sd|pf>:           36 b            0 skpd (  0.0%)    0.000 s ( 0.007 ms/b)
<sd|dd>:           36 b            0 skpd (  0.0%)    0.001 s ( 0.016 ms/b)
<sd|df>:           24 b            0 skpd (  0.0%)    0.000 s ( 0.015 ms/b)
<sd|ff>:           12 b            0 skpd (  0.0%)    0.000 s ( 0.021 ms/b)
<sf|sf>:           21 b            0 skpd (  0.0%)    0.000 s ( 0.002 ms/b)
<sf|pp>:           36 b            0 skpd (  0.0%)    0.000 s ( 0.003 ms/b)
<sf|pd>:           36 b            0 skpd (  0.0%)    0.000 s ( 0.006 ms/b)
<sf|pf>:           18 b            0 skpd (  0.0%)    0.000 s ( 0.009 ms/b)
<sf|dd>:           18 b            0 skpd (  0.0%)    0.000 s ( 0.016 ms/b)
<sf|df>:           12 b            0 skpd (  0.0%)    0.000 s ( 0.018 ms/b)
<sf|ff>:            6 b            0 skpd (  0.0%)    0.000 s ( 0.027 ms/b)
<pp|pp>:           21 b            0 skpd (  0.0%)    0.000 s ( 0.007 ms/b)
<pp|pd>:           36 b            0 skpd (  0.0%)    0.000 s ( 0.011 ms/b)
<pp|pf>:           18 b            0 skpd (  0.0%)    0.000 s ( 0.012 ms/b)
<pp|dd>:           18 b            0 skpd (  0.0%)    0.000 s ( 0.025 ms/b)
<pp|df>:           12 b            0 skpd (  0.0%)    0.000 s ( 0.023 ms/b)
<pp|ff>:            6 b            0 skpd (  0.0%)    0.000 s ( 0.032 ms/b)
<pd|pd>:           21 b            0 skpd (  0.0%)    0.001 s ( 0.040 ms/b)
<pd|pf>:           18 b            0 skpd (  0.0%)    0.000 s ( 0.027 ms/b)
<pd|dd>:           18 b            0 skpd (  0.0%)    0.001 s ( 0.063 ms/b)
<pd|df>:           12 b            0 skpd (  0.0%)    0.001 s ( 0.057 ms/b)
<pd|ff>:            6 b            0 skpd (  0.0%)    0.000 s ( 0.071 ms/b)
<pf|pf>:            6 b            0 skpd (  0.0%)    0.000 s ( 0.034 ms/b)
<pf|dd>:            9 b            0 skpd (  0.0%)    0.000 s ( 0.053 ms/b)
<pf|df>:            6 b            0 skpd (  0.0%)    0.000 s ( 0.059 ms/b)
<pf|ff>:            3 b            0 skpd (  0.0%)    0.000 s ( 0.086 ms/b)
<dd|dd>:            6 b            0 skpd (  0.0%)    0.002 s ( 0.253 ms/b)
<dd|df>:            6 b            0 skpd (  0.0%)    0.001 s ( 0.144 ms/b)
<dd|ff>:            3 b            0 skpd (  0.0%)    0.001 s ( 0.168 ms/b)
<df|df>:            3 b            0 skpd (  0.0%)    0.000 s ( 0.164 ms/b)
<df|ff>:            2 b            0 skpd (  0.0%)    0.000 s ( 0.193 ms/b)
<ff|ff>:            1 b            0 skpd (  0.0%)    0.000 s ( 0.276 ms/b)
Recanonicalizing the internal orbitals
Recanonicalizing the virtual orbitals
Time needed for Fock operator              ...            0.055 sec
Reference energy                           ...    -30.985487396
Warning: for UHF the TrafoType has to be JK
Warning: for UHF the K(C)-option cannot be MO but must be AOX

-------------------------------
PARTIAL EXCHANGE TRANSFORMATION
-------------------------------

Transformation type                        ... two-operators
Generation of integrals (i,mue|j,nue)      ... ON
Generation of integrals (mue,kappa|nue,tau)... ON
Generation of integrals (i,mue|a,nue)      ... ON
Dimension of the basis                     ...   32
Number of internal alpha-MOs               ...    6 (   0-   5)
Number of internal beta-MOs                ...    5 (   0-   4)
Number of external alpha-MOs               ...   26 (   6-  31)
Number of external beta-MOs                ...   27 (   5-  31)
Pair cutoff                                ... 0.000e+00 Eh
Number of AO pairs in the trafo            ...  528
Total Number of distinct AO pairs          ...  528
Memory devoted for trafo                   ... 2500.0 MB 
Max. Number of MO pairs treated together   ... 320000      
Number Format for Storage                  ... Double (8 Byte)
Integral package used                      ... LIBINT

Starting integral evaluation:
    ... done with AO integral generation
Closing buffer AOK[aa] ( 0.00 GB; CompressionRatio= 0.00)
Closing buffer AOK[bb] ( 0.00 GB; CompressionRatio= 0.00)
Closing buffer AOK[ab] ( 0.00 GB; CompressionRatio= 0.00)
Closing buffer AOK[ba] ( 0.00 GB; CompressionRatio= 0.00)
Collecting buffer AOK 
Closing buffer IAAO1[aa] ( 0.00 GB; CompressionRatio= 0.00)
Closing buffer IAAO1[bb] ( 0.00 GB; CompressionRatio= 0.00)
Closing buffer IAAO1[ab] ( 0.00 GB; CompressionRatio= 0.00)
Closing buffer IAAO1[ba] ( 0.00 GB; CompressionRatio= 0.00)
Closing buffer IAAO2[aa] ( 0.00 GB; CompressionRatio= 0.00)
Closing buffer IAAO2[bb] ( 0.00 GB; CompressionRatio= 0.00)
Closing buffer IAAO2[ab] ( 0.00 GB; CompressionRatio= 0.00)
Closing buffer IAAO2[ba] ( 0.00 GB; CompressionRatio= 0.00)
Collecting buffer IAAO 
Closing buffer PRQS    ( 0.00 GB; CompressionRatio= 0.00)
Collecting buffer PRQS 
Number of alpha/alpha MO pairs in trafo    ...   21
Number of beta /beta  MO pairs in trafo    ...   15
Number of alpha/ beta MO pairs in trafo    ...   30
------------------------
SORTING OF (i,mue|j,nue)
------------------------

SORTING OF ALPHA/ALPHA PAIRS
IBATCH = 1 of  1
Closing buffer KAO[aa] ( 0.00 GB; CompressionRatio= 1.00)
Collecting buffer KAO 
SORTING OF BETA /BETA  PAIRS
IBATCH = 1 of  1
Closing buffer KAO[bb] ( 0.00 GB; CompressionRatio= 1.00)
Collecting buffer KAO 
SORTING OF ALPHA/BETA  PAIRS
IBATCH = 1 of  1
Closing buffer KAO[ab] ( 0.00 GB; CompressionRatio= 0.998537298879)
Collecting buffer KAO[ab] 
------------------------
SORTING OF (i,mue|a,nue)
------------------------

Number of alpha/alpha (i,a) pairs in trafo  ...  156
Number of beta /beta  (i,a) pairs in trafo  ...  135
Number of alpha/ beta (i,a) pairs in trafo  ...  162
Number of beta /alpha (i,a) pairs in trafo  ...  130
Setting up the alpha/alpha list             ... done
Setting up the beta /beta  list             ... done
Setting up the alpha/beta  list             ... done
Setting up the beta /alpha list             ... done
    ... Now sorting (i,mue|a,nue)integrals
    ... Integrals (i,b|a,c) will be made on the fly
SORTING OF ALPHA/ALPHA PAIRS
IBATCH = 1 of  1
Closing buffer IPAQ[aa]  0.00 GB; CompressionRatio= 1.00)
SORTING OF BETA /BETA  PAIRS
IBATCH = 1 of  1
Closing buffer IPAQ[bb]( 0.00 GB; CompressionRatio= 1.00)
SORTING OF ALPHA/BETA  PAIRS (NMatSort_ab=7)
IBATCH = 1 of  1
Closing buffer IPAQ[ab]( 0.00 GB; CompressionRatio= 1.00)
SORTING OF BETA/ALPHA  PAIRS
IBATCH = 1 of  1
Closing buffer IPAQ[ba]( 0.00 GB; CompressionRatio= 1.00)
N(AO-Batches) Done                         ...         0 
N(AO-Batches) Skipped                      ...         0 
N(IJ)-pairs Skipped                        ...         0 
TOTAL TIME for half transformation         ...     1.684 sec
AO-integral generation                     ...     0.000 sec
Half transformation                        ...     0.000 sec
K-integral sorting                         ...     0.691 sec
<ss|**>: 
------------------------------
PARTIAL COULOMB TRANSFORMATION
------------------------------

Transformation type                        ... two-operators
Dimension of the basis                     ...   32
Number of internal alpha-MOs               ...    6 (0-5)
Number of internal beta-MOs                ...    5 (0-4)
Pair cutoff                                ... 0.000e+00 Eh
Number of AO pairs included in the trafo   ...  528
Total Number of distinct AO pairs          ...  528
Memory devoted for trafo                   ... 2500.0 MB 
Max. Number of MO pairs treated together   ... 620606      
Max. Number of MOs treated per batch       ... 19393      
Number Format for Storage                  ... Double (8 Byte)
AO-integral source                         ... DIRECT
Integral package used                      ... LIBINT

Starting integral evaluation:
        1638 b        0 skpd     0.001 s (  0.001 ms/b)
<sp|**>:         1404 b        0 skpd     0.009 s (  0.006 ms/b)
<sd|**>: <sf|**>:          936 b        0 skpd     0.009 s (  0.009 ms/b)
         468 b        0 skpd     0.007 s (  0.015 ms/b)
<pp|**>:          468 b        0 skpd     0.010 s (  0.022 ms/b)
<pd|**>:          468 b        0 skpd     0.017 s (  0.036 ms/b)
<pf|**>:          234 b        0 skpd     0.019 s (  0.081 ms/b)
<dd|**>:          234 b        0 skpd     0.020 s (  0.087 ms/b)
<df|**>:          156 b        0 skpd     0.027 s (  0.171 ms/b)
<ff|**>:           78 b        0 skpd     0.018 s (  0.230 ms/b)
Closing buffer AOJ[aa] ( 0.00 GB; CompressionRatio= 0.93)
Closing buffer AOJ[bb] ( 0.00 GB; CompressionRatio= 0.00)
Collecting buffer AOJ 
    ... done with AO integral generation
Number of Alpha-MO pairs included          ...   21
Number of Beta-MO pairs included           ...   15
    ... Now sorting integrals
SORTING ALPHA/ALPHA PAIRS
IBATCH = 1 of  1
Closing buffer JAO[aa] ( 0.00 GB; CompressionRatio= 1.00)
SORTING BETA/BETA PAIRS
IBATCH = 1 of  1
Closing buffer JAO[bb] ( 0.00 GB; CompressionRatio= 1.00)
Collecting buffer JAO 
TOTAL TIME for half transformation         ...     0.271 sec
AO-integral generation                     ...     0.105 sec
Half transformation                        ...     0.031 sec
J-integral sorting                         ...     0.100 sec

-------------------------- SECOND HALF TRANSFORMATION -------------------------
Formation of (ij|kl),(ij|ka), (ij|ab)      ... ok (     0.150 sec)
Formation of (ik|jl),(ik|ja), (ia|jb)      ... ok (     0.229 sec)


-----------------------
SPIN UNRESTRICTED GUESS
-----------------------

Entering MDCI_UHF_Guess, Tailored=0
UHF-GUESS: QRO flag is detected
Spin-components of the MP2 energy:
EMP2(aa)=     -0.021630886
EMP2(bb)=     -0.015289250
EMP2(ab)=     -0.091884259
EMP2(a) =     -0.000584431
EMP2(b) =     -0.000585126

Initial guess performed in     0.002 sec
E(0)                                       ...    -30.985487396
E(MP2)                                     ...     -0.129973951
Initial E(tot)                             ...    -31.115461347
<T|T>                                      ...      0.073561557
Number of pairs included                   ... 55

------------------------------------------------
                  UHF COUPLED CLUSTER ITERATIONS
------------------------------------------------

Number of amplitudes to be optimized       ...        29915

Iter       E(tot)           E(Corr)          Delta-E          Residual     Time      <S|S>**1/2
  0    -31.115470444     -0.129983048     -0.000009097      0.012851730    0.07      0.019893746
                           *** Turning on DIIS ***
  1    -31.122406961     -0.136919564     -0.006936517      0.007303507    0.04      0.025342324
  2    -31.126984629     -0.141497233     -0.004577668      0.008401627    0.04      0.029303334
  3    -31.128784571     -0.143297175     -0.001799942      0.009541965    0.03      0.030572421
  4    -31.129956937     -0.144469541     -0.001172366      0.010663372    0.03      0.031025338
  5    -31.128821296     -0.143333900      0.001135641      0.009137089    0.03      0.030915853
  6    -31.126620311     -0.141132914      0.002200986      0.005051268    0.03      0.032171177
  7    -31.126899731     -0.141412335     -0.000279421      0.005217685    0.03      0.032830015
  8    -31.127626359     -0.142138963     -0.000726628      0.005143714    0.04      0.032462193
  9    -31.129058257     -0.143570860     -0.001431898      0.004714401    0.05      0.031914971
 10    -31.130493315     -0.145005919     -0.001435059      0.004114210    0.03      0.032216858
 11    -31.132811804     -0.147324408     -0.002318488      0.003200658    0.03      0.033522535
 12    -31.133937359     -0.148449962     -0.001125555      0.003136110    0.03      0.034760985
 13    -31.134670634     -0.149183237     -0.000733275      0.003071006    0.03      0.035664962
 14    -31.133983478     -0.148496081      0.000687156      0.003953299    0.03      0.037977953
 15    -31.132290756     -0.146803360      0.001692721      0.004132631    0.04      0.033335703
 16    -31.132082714     -0.146595318      0.000208042      0.004241112    0.04      0.033349073
 17    -31.132127656     -0.146640259     -0.000044941      0.004285593    0.04      0.034014387
 18    -31.132051273     -0.146563877      0.000076382      0.004166696    0.04      0.033528483
 19    -31.132302766     -0.146815370     -0.000251492      0.003827461    0.04      0.033235940
 20    -31.132422346     -0.146934950     -0.000119580      0.003205600    0.04      0.033453153
 21    -31.133500305     -0.148012909     -0.001077959      0.002347200    0.04      0.036157511
 22    -31.133163998     -0.147676602      0.000336307      0.002165155    0.05      0.040194519
 23    -31.133736636     -0.148249240     -0.000572638      0.002100057    0.05      0.043696240
 24    -31.134375385     -0.148887988     -0.000638748      0.002007992    0.04      0.037698409
 25    -31.134205550     -0.148718154      0.000169834      0.001698335    0.04      0.034951533
 26    -31.133914029     -0.148426633      0.000291521      0.001448852    0.04      0.033755345
 27    -31.134448108     -0.148960711     -0.000534079      0.001106570    0.04      0.033316401
 28    -31.134368196     -0.148880800      0.000079911      0.000804367    0.04      0.033201753
 29    -31.134479461     -0.148992064     -0.000111264      0.000735278    0.04      0.033327052
 30    -31.134525397     -0.149038001     -0.000045937      0.000661626    0.04      0.033624657
 31    -31.134524516     -0.149037119      0.000000882      0.000661780    0.04      0.033670479
 32    -31.134528681     -0.149041285     -0.000004165      0.000615831    0.04      0.033151644
 33    -31.134570991     -0.149083594     -0.000042310      0.000558480    0.04      0.032892450
 34    -31.134514276     -0.149026880      0.000056714      0.000561025    0.05      0.032883234
 35    -31.134569081     -0.149081684     -0.000054804      0.000544051    0.05      0.032934427
 36    -31.134543455     -0.149056059      0.000025625      0.000560567    0.05      0.032928250
 37    -31.134480607     -0.148993211      0.000062848      0.000549223    0.04      0.032953900
 38    -31.134507230     -0.149019834     -0.000026623      0.000455244    0.04      0.032978749
 39    -31.134513986     -0.149026590     -0.000006756      0.000405842    0.04      0.032883881
 40    -31.134463542     -0.148976146      0.000050444      0.000397947    0.04      0.032773814
 41    -31.134521609     -0.149034213     -0.000058067      0.000369267    0.04      0.032780331
 42    -31.134524428     -0.149037032     -0.000002819      0.000344330    0.04      0.032848389
 43    -31.134535672     -0.149048276     -0.000011244      0.000285142    0.04      0.032900208
 44    -31.134533678     -0.149046282      0.000001994      0.000203389    0.04      0.032886318
 45    -31.134550943     -0.149063547     -0.000017265      0.000176789    0.05      0.032825899
 46    -31.134570983     -0.149083586     -0.000020039      0.000163043    0.05      0.032793733
 47    -31.134604705     -0.149117309     -0.000033723      0.000128519    0.05      0.032860974
 48    -31.134604977     -0.149117581     -0.000000272      0.000097656    0.05      0.032952477
 49    -31.134611000     -0.149123604     -0.000006023      0.000115557    0.04      0.032988763
 50    -31.134612856     -0.149125459     -0.000001855      0.000117803    0.04      0.032990476
 51    -31.134620557     -0.149133161     -0.000007701      0.000103437    0.04      0.032988179
 52    -31.134616269     -0.149128873      0.000004288      0.000091014    0.04      0.032967492
 53    -31.134613176     -0.149125780      0.000003093      0.000068785    0.04      0.032960538
 54    -31.134627977     -0.149140581     -0.000014802      0.000053354    0.04      0.032977449
 55    -31.134624781     -0.149137385      0.000003196      0.000054292    0.04      0.032998708
 56    -31.134624429     -0.149137032      0.000000353      0.000054215    0.04      0.033013486
 57    -31.134625807     -0.149138411     -0.000001378      0.000048495    0.04      0.033029593
 58    -31.134626443     -0.149139047     -0.000000636      0.000046374    0.04      0.033040833
 59    -31.134625377     -0.149137981      0.000001066      0.000046823    0.04      0.033043645
 60    -31.134624284     -0.149136887      0.000001094      0.000048911    0.04      0.033031099
 61    -31.134626887     -0.149139491     -0.000002604      0.000047331    0.04      0.033012884
 62    -31.134621326     -0.149133930      0.000005561      0.000048161    0.04      0.032984562
 63    -31.134626542     -0.149139145     -0.000005215      0.000042752    0.04      0.032981963
 64    -31.134627208     -0.149139812     -0.000000667      0.000037886    0.04      0.032981084
 65    -31.134626276     -0.149138879      0.000000933      0.000027099    0.04      0.032984322
 66    -31.134627270     -0.149139874     -0.000000994      0.000015440    0.04      0.032994255
 67    -31.134628232     -0.149140835     -0.000000962      0.000014723    0.04      0.033005498
 68    -31.134628537     -0.149141141     -0.000000305      0.000016577    0.04      0.033012391
 69    -31.134628636     -0.149141240     -0.000000099      0.000016209    0.04      0.033010892
 70    -31.134628209     -0.149140812      0.000000427      0.000012558    0.04      0.032996162
 71    -31.134628777     -0.149141381     -0.000000568      0.000008189    0.04      0.032983949
 72    -31.134629134     -0.149141737     -0.000000357      0.000007006    0.04      0.032980746
 73    -31.134628707     -0.149141311      0.000000427      0.000006610    0.04      0.032981465
 74    -31.134628975     -0.149141579     -0.000000268      0.000006371    0.04      0.032984319
 75    -31.134628827     -0.149141430      0.000000148      0.000006316    0.04      0.032988407
 76    -31.134628994     -0.149141598     -0.000000168      0.000006500    0.04      0.032992586
 77    -31.134628986     -0.149141590      0.000000008      0.000006742    0.04      0.032995830
 78    -31.134628994     -0.149141598     -0.000000008      0.000006703    0.04      0.032995338
 79    -31.134629008     -0.149141612     -0.000000014      0.000006260    0.04      0.032989298
 80    -31.134629055     -0.149141659     -0.000000047      0.000005777    0.04      0.032980179
 81    -31.134628931     -0.149141534      0.000000125      0.000006060    0.04      0.032970050
 82    -31.134629126     -0.149141730     -0.000000196      0.000005934    0.04      0.032963767
 83    -31.134629137     -0.149141741     -0.000000011      0.000005394    0.04      0.032960756
 84    -31.134629261     -0.149141864     -0.000000123      0.000004838    0.04      0.032960699
 85    -31.134629201     -0.149141805      0.000000059      0.000004710    0.04      0.032961677
 86    -31.134629185     -0.149141789      0.000000016      0.000004673    0.04      0.032962537
 87    -31.134629186     -0.149141790     -0.000000001      0.000004668    0.04      0.032961844
 88    -31.134629172     -0.149141775      0.000000014      0.000004686    0.04      0.032959060
 89    -31.134629108     -0.149141712      0.000000064      0.000004909    0.04      0.032956027
 90    -31.134628971     -0.149141575      0.000000137      0.000004913    0.04      0.032954834
 91    -31.134628932     -0.149141536      0.000000039      0.000004516    0.04      0.032955257
 92    -31.134628941     -0.149141545     -0.000000009      0.000004251    0.04      0.032956309
 93    -31.134628948     -0.149141552     -0.000000007      0.000004197    0.04      0.032956780
 94    -31.134628943     -0.149141547      0.000000005      0.000004326    0.04      0.032955891
 95    -31.134628917     -0.149141520      0.000000027      0.000004643    0.05      0.032953789
 96    -31.134628957     -0.149141561     -0.000000041      0.000004522    0.05      0.032951739
 97    -31.134629015     -0.149141618     -0.000000057      0.000003842    0.05      0.032950280
 98    -31.134629022     -0.149141626     -0.000000007      0.000003249    0.05      0.032950620
 99    -31.134628997     -0.149141601      0.000000024      0.000003380    0.05      0.032951626
100    -31.134629045     -0.149141649     -0.000000047      0.000003459    0.05      0.032952446
101    -31.134629062     -0.149141666     -0.000000017      0.000003485    0.05      0.032952742
102    -31.134629072     -0.149141675     -0.000000009      0.000003453    0.05      0.032952349
103    -31.134629125     -0.149141729     -0.000000054      0.000003403    0.05      0.032951626
104    -31.134629172     -0.149141776     -0.000000047      0.000003403    0.05      0.032951222
105    -31.134629145     -0.149141749      0.000000027      0.000003419    0.05      0.032951151
106    -31.134629209     -0.149141812     -0.000000064      0.000003395    0.05      0.032951029
107    -31.134629362     -0.149141966     -0.000000153      0.000003362    0.05      0.032950567
108    -31.134629467     -0.149142071     -0.000000105      0.000003335    0.05      0.032950120
109    -31.134629485     -0.149142089     -0.000000018      0.000003312    0.05      0.032949875
110    -31.134629455     -0.149142059      0.000000030      0.000003295    0.04      0.032949717
111    -31.134629456     -0.149142060     -0.000000001      0.000003297    0.04      0.032949675
112    -31.134629428     -0.149142032      0.000000028      0.000003279    0.04      0.032949752
113    -31.134629415     -0.149142018      0.000000014      0.000003265    0.05      0.032949688
114    -31.134629415     -0.149142019     -0.000000001      0.000003264    0.04      0.032949675
115    -31.134629407     -0.149142010      0.000000009      0.000003265    0.04      0.032949687
116    -31.134629407     -0.149142011     -0.000000001      0.000003266    0.04      0.032949725
117    -31.134629400     -0.149142004      0.000000007      0.000003261    0.04      0.032949604
118    -31.134629382     -0.149141986      0.000000018      0.000003257    0.04      0.032949363
119    -31.134629383     -0.149141986     -0.000000000      0.000003258    0.04      0.032949394
120    -31.134629384     -0.149141987     -0.000000001      0.000003257    0.04      0.032949360
121    -31.134629386     -0.149141989     -0.000000002      0.000003258    0.04      0.032949423
122    -31.134629401     -0.149142005     -0.000000016      0.000003246    0.04      0.032949311
123    -31.134629400     -0.149142004      0.000000001      0.000003246    0.04      0.032949434
124    -31.134629394     -0.149141998      0.000000006      0.000003247    0.04      0.032949152
125    -31.134629362     -0.149141966      0.000000032      0.000003237    0.04      0.032949073
126    -31.134629376     -0.149141980     -0.000000014      0.000003187    0.04      0.032948911
127    -31.134629395     -0.149141999     -0.000000019      0.000003071    0.04      0.032948465
128    -31.134629142     -0.149141746      0.000000253      0.000002729    0.04      0.032945623
129    -31.134628996     -0.149141600      0.000000146      0.000002271    0.04      0.032940256
130    -31.134628919     -0.149141523      0.000000078      0.000002032    0.04      0.032938400
131    -31.134628750     -0.149141354      0.000000169      0.000001685    0.04      0.032938000
132    -31.134628840     -0.149141444     -0.000000090      0.000001552    0.04      0.032937772
133    -31.134629002     -0.149141606     -0.000000162      0.000001498    0.04      0.032937455
134    -31.134629000     -0.149141604      0.000000002      0.000001528    0.04      0.032937148
135    -31.134628954     -0.149141558      0.000000046      0.000001559    0.04      0.032937057
136    -31.134628943     -0.149141547      0.000000010      0.000001567    0.04      0.032937074
137    -31.134628948     -0.149141551     -0.000000004      0.000001536    0.04      0.032936923
138    -31.134628915     -0.149141518      0.000000033      0.000001432    0.04      0.032936526
139    -31.134628874     -0.149141478      0.000000041      0.000001308    0.04      0.032936070
140    -31.134628860     -0.149141464      0.000000013      0.000001246    0.04      0.032935931
141    -31.134628873     -0.149141476     -0.000000012      0.000001202    0.04      0.032935971
142    -31.134628887     -0.149141490     -0.000000014      0.000001179    0.05      0.032935961
143    -31.134628894     -0.149141498     -0.000000008      0.000001182    0.05      0.032935913
144    -31.134628903     -0.149141507     -0.000000009      0.000001206    0.04      0.032935892
145    -31.134628909     -0.149141513     -0.000000006      0.000001223    0.04      0.032935894
146    -31.134628915     -0.149141518     -0.000000006      0.000001221    0.04      0.032935901
147    -31.134628919     -0.149141523     -0.000000004      0.000001205    0.04      0.032935901
148    -31.134628917     -0.149141521      0.000000002      0.000001193    0.04      0.032935896
149    -31.134628918     -0.149141522     -0.000000001      0.000001196    0.04      0.032935899
150    -31.134628916     -0.149141520      0.000000002      0.000001198    0.04      0.032935903
151    -31.134628917     -0.149141521     -0.000000001      0.000001199    0.04      0.032935904
152    -31.134628916     -0.149141520      0.000000001      0.000001212    0.04      0.032935919
153    -31.134628919     -0.149141522     -0.000000002      0.000001224    0.04      0.032935921
154    -31.134628918     -0.149141522      0.000000000      0.000001224    0.04      0.032935915
155    -31.134628919     -0.149141523     -0.000000001      0.000001232    0.04      0.032935923
156    -31.134628919     -0.149141523     -0.000000001      0.000001230    0.04      0.032935921
157    -31.134628920     -0.149141524     -0.000000001      0.000001228    0.04      0.032935914
158    -31.134628924     -0.149141528     -0.000000004      0.000001232    0.04      0.032935920
159    -31.134628917     -0.149141521      0.000000007      0.000001223    0.04      0.032935921
160    -31.134628935     -0.149141538     -0.000000018      0.000001202    0.04      0.032935963
161    -31.134628948     -0.149141552     -0.000000014      0.000001187    0.04      0.032935979
162    -31.134628944     -0.149141547      0.000000005      0.000001189    0.04      0.032935949
163    -31.134628957     -0.149141561     -0.000000014      0.000001186    0.04      0.032935928
164    -31.134628962     -0.149141565     -0.000000004      0.000001183    0.04      0.032935918
165    -31.134628959     -0.149141563      0.000000002      0.000001186    0.05      0.032935914
166    -31.134628960     -0.149141564     -0.000000001      0.000001186    0.05      0.032935915
167    -31.134628955     -0.149141559      0.000000005      0.000001185    0.05      0.032935903
168    -31.134628956     -0.149141560     -0.000000001      0.000001188    0.05      0.032935919
169    -31.134628961     -0.149141564     -0.000000005      0.000001180    0.04      0.032935902
170    -31.134628985     -0.149141588     -0.000000024      0.000001167    0.04      0.032935890
171    -31.134628995     -0.149141599     -0.000000010      0.000001144    0.04      0.032935872
172    -31.134628985     -0.149141589      0.000000010      0.000001123    0.04      0.032935846
173    -31.134628967     -0.149141570      0.000000018      0.000001104    0.04      0.032935804
174    -31.134628967     -0.149141571     -0.000000001      0.000001103    0.04      0.032935793
175    -31.134628956     -0.149141560      0.000000011      0.000001098    0.04      0.032935832
176    -31.134628966     -0.149141570     -0.000000010      0.000001090    0.04      0.032935855
177    -31.134628963     -0.149141567      0.000000003      0.000001093    0.04      0.032935850
178    -31.134628961     -0.149141564      0.000000002      0.000001119    0.04      0.032935815
179    -31.134628977     -0.149141580     -0.000000016      0.000001149    0.04      0.032935796
180    -31.134628963     -0.149141567      0.000000013      0.000001164    0.04      0.032935865
181    -31.134628965     -0.149141569     -0.000000002      0.000001179    0.05      0.032935944
182    -31.134628994     -0.149141597     -0.000000029      0.000001195    0.05      0.032935964
183    -31.134629004     -0.149141607     -0.000000010      0.000001204    0.05      0.032935981
184    -31.134629004     -0.149141608     -0.000000000      0.000001204    0.05      0.032935981
185    -31.134629004     -0.149141608     -0.000000000      0.000001205    0.05      0.032935979
186    -31.134629004     -0.149141608      0.000000000      0.000001201    0.04      0.032935983
187    -31.134629004     -0.149141607      0.000000000      0.000001199    0.04      0.032935985
188    -31.134629000     -0.149141604      0.000000003      0.000001211    0.04      0.032935981
189    -31.134629002     -0.149141606     -0.000000002      0.000001208    0.04      0.032935980
190    -31.134629001     -0.149141605      0.000000001      0.000001202    0.04      0.032935976
191    -31.134628994     -0.149141598      0.000000007      0.000001197    0.04      0.032935972
192    -31.134628989     -0.149141592      0.000000006      0.000001195    0.04      0.032935973
193    -31.134628992     -0.149141596     -0.000000004      0.000001194    0.04      0.032935966
194    -31.134628994     -0.149141598     -0.000000002      0.000001192    0.05      0.032935948
195    -31.134628996     -0.149141600     -0.000000002      0.000001194    0.05      0.032935899
196    -31.134628994     -0.149141598      0.000000002      0.000001202    0.05      0.032935894
197    -31.134628995     -0.149141598     -0.000000001      0.000001204    0.05      0.032935897
198    -31.134628992     -0.149141596      0.000000003      0.000001207    0.05      0.032935906
199    -31.134628995     -0.149141599     -0.000000003      0.000001214    0.05      0.032935923
               --- The Coupled-Cluster iterations have NOT converged ---

-------------------------   --------------------
FINAL SINGLE POINT ENERGY       -30.987114430008   (Wavefunction not fully converged!)
-------------------------   --------------------



     ------------------------------------------------------------------------------
                                      ERROR
     This wavefunction IS NOT FULLY CONVERGED! 
     You can't use it for properties or numerical calculations !
     Aborting the run ...
     Please restart calculation (with larger maxiter/different convergence flags)
     ------------------------------------------------------------------------------


