
                                 *****************
                                 * O   R   C   A *
                                 *****************

           --- An Ab Initio, DFT and Semiempirical electronic structure package ---

                  #######################################################
                  #                        -***-                        #
                  #          Department of theory and spectroscopy      #
                  #               Directorship: Frank Neese             #
                  #        Max Planck Institute fuer Kohlenforschung    #
                  #                Kaiser Wilhelm Platz 1               #
                  #                 D-45470 Muelheim/Ruhr               #
                  #                      Germany                        #
                  #                                                     #
                  #                  All rights reserved                #
                  #                        -***-                        #
                  #######################################################


                         Program Version 4.2.0 -  RELEASE  -


 With contributions from (in alphabetic order):
   Daniel Aravena         : Magnetic Suceptibility
   Michael Atanasov       : Ab Initio Ligand Field Theory (pilot matlab implementation)
   Alexander A. Auer      : GIAO ZORA, VPT2
   Ute Becker             : Parallelization
   Giovanni Bistoni       : ED, misc. LED, open-shell LED, HFLED
   Martin Brehm           : Molecular dynamics
   Dmytro Bykov           : SCF Hessian
   Vijay G. Chilkuri      : MRCI spin determinant printing, contributions to CSF-ICE
   Dipayan Datta          : RHF DLPNO-CCSD density
   Achintya Kumar Dutta   : EOM-CC, STEOM-CC
   Dmitry Ganyushin       : Spin-Orbit,Spin-Spin,Magnetic field MRCI
   Miquel Garcia          : C-PCM Hessian, Gaussian charge scheme
   Yang Guo               : DLPNO-NEVPT2, CIM, IAO-localization
   Andreas Hansen         : Spin unrestricted coupled pair/coupled cluster methods
   Benjamin Helmich-Paris : CASSCF linear response (MC-RPA)
   Lee Huntington         : MR-EOM, pCC
   Robert Izsak           : Overlap fitted RIJCOSX, COSX-SCS-MP3, EOM
   Christian Kollmar      : KDIIS, OOCD, Brueckner-CCSD(T), CCSD density
   Simone Kossmann        : Meta GGA functionals, TD-DFT gradient, OOMP2, MP2 Hessian
   Martin Krupicka        : AUTO-CI
   Lucas Lang             : DCDCAS
   Dagmar Lenk            : GEPOL surface, SMD
   Dimitrios Liakos       : Extrapolation schemes; Compound Job, initial MDCI parallelization
   Dimitrios Manganas     : Further ROCIS development; embedding schemes
   Dimitrios Pantazis     : SARC Basis sets
   Taras Petrenko         : DFT Hessian,TD-DFT gradient, ASA, ECA, R-Raman, ABS, FL, XAS/XES, NRVS
   Peter Pinski           : DLPNO-MP2, DLPNO-MP2 Gradient
   Christoph Reimann      : Effective Core Potentials
   Marius Retegan         : Local ZFS, SOC
   Christoph Riplinger    : Optimizer, TS searches, QM/MM, DLPNO-CCSD(T), (RO)-DLPNO pert. Triples
   Tobias Risthaus        : Range-separated hybrids, TD-DFT gradient, RPA, STAB
   Michael Roemelt        : Original ROCIS implementation
   Masaaki Saitow         : Open-shell DLPNO-CCSD energy and density
   Barbara Sandhoefer     : DKH picture change effects
   Avijit Sen             : IP-ROCIS
   Kantharuban Sivalingam : CASSCF convergence, NEVPT2, FIC-MRCI
   Bernardo de Souza      : ESD, SOC TD-DFT
   Georgi Stoychev        : AutoAux, RI-MP2 NMR
   Willem Van den Heuvel  : Paramagnetic NMR
   Boris Wezisla          : Elementary symmetry handling
   Frank Wennmohs         : Technical directorship


 We gratefully acknowledge several colleagues who have allowed us to
 interface, adapt or use parts of their codes:
   Stefan Grimme, W. Hujo, H. Kruse,             : VdW corrections, initial TS optimization,
                  C. Bannwarth                     DFT functionals, gCP, sTDA/sTD-DF
   Ed Valeev, F. Pavosevic, A. Kumar             : LibInt (2-el integral package), F12 methods
   Garnet Chan, S. Sharma, J. Yang, R. Olivares  : DMRG
   Ulf Ekstrom                                   : XCFun DFT Library
   Mihaly Kallay                                 : mrcc  (arbitrary order and MRCC methods)
   Andreas Klamt, Michael Diedenhofen            : otool_cosmo (COSMO solvation model)
   Jiri Pittner, Ondrej Demel                    : Mk-CCSD
   Frank Weinhold                                : gennbo (NPA and NBO analysis)
   Christopher J. Cramer and Donald G. Truhlar   : smd solvation model
   Lars Goerigk                                  : TD-DFT with DH, B97 family of functionals
   V. Asgeirsson, H. Jonsson                     : NEB implementation
   FAccTs GmbH                                   : IRC, NEB, NEB-TS, Multilevel, MM, QM/MM, CI optimization
   S Lehtola, MJT Oliveira, MAL Marques          : LibXC Library


 Your calculation uses the libint2 library for the computation of 2-el integrals
 For citations please refer to: http://libint.valeyev.net

 Your ORCA version has been built with support for libXC version: 4.2.3
 For citations please refer to: https://tddft.org/programs/libxc/

 This ORCA versions uses:
   CBLAS   interface :  Fast vector & matrix operations
   LAPACKE interface :  Fast linear algebra routines
   SCALAPACK package :  Parallel linear algebra routines


----- Orbital basis set information -----
Your calculation utilizes the basis: def2-SVP
   F. Weigend and R. Ahlrichs, Phys. Chem. Chem. Phys. 7, 3297 (2005).

cite the ECPs for Pr [Def2-ECP] as follows:
Ce-Yb(ecp-28): M. Dolg, H. Stoll, H.Preuss, J. Chem. Phys., 1989, 90, 1730-1734.
Y-Cd(ecp-28), Hf-Hg(ecp-46): D. Andrae,U. Haeussermann, M. Dolg, H. Stoll, H. Preuss, Theor. Chim. Acta, 1990, 77, 123-141.
In-Sb(ecp-28), Tl-Bi(ecp-46): B. Metz, H. Stoll, M. Dolg, J. Chem. Phys., 2000, 113, 2563-2569.
Te-Xe(ecp-28), Po-Rn(ecp-46): K. A. Peterson, D. Figgen, E. Goll, H. Stoll, M. Dolg, J. Chem. Phys., 2003, 119, 11113-11123.
Rb(ecp-28), Cs(ecp-46): T. Leininger, A. Nicklass, W. Kuechle, H. Stoll, M. Dolg, A. Bergner, Chem. Phys. Lett., 1996, 255, 274-280.
Sr(ecp-28), Ba(ecp-46): M. Kaupp, P. V. Schleyer, H. Stoll and H. Preuss, J. Chem. Phys., 1991, 94, 1360-1366.
La(ecp-46): M. Dolg, H. Stoll, A. Savin, H. Preuss, Theor. Chim. Acta, 1989, 75, 173-194.
Lu(ecp-28): X. Cao, M. Dolg, J. Chem. Phys., 2001, 115, 7348-7355.

ECP parameters for Pr [Def2-ECP] have been obtained from:
TURBOMOLE (7.0.2)

================================================================================
                                        WARNINGS
                       Please study these warnings very carefully!
================================================================================


WARNING: your system is open-shell and RHF/RKS was chosen
  ===> : WILL SWITCH to UHF/UKS


WARNING: MDCI localization with Augmented Hessian Foster-Boys
  ===> : Switching off randomization!

WARNING: Post HF methods need fully converged wavefunctions
  ===> : Setting SCFConvForced true
         You can overwrite this default with %scf ConvForced false 


INFO   : the flag for use of LIBINT has been found!

================================================================================
                                       INPUT FILE
================================================================================
NAME = 59_Pr.in
|  1> #
|  2> # 59_Pr CCSD(T)/Def2-SVP
|  3> #
|  4> ! CCSD(T) Def2-SVP tightscf
|  5> 
|  6> *xyz 0 4
|  7>  Pr 0.0 0.0 0.0
|  8> *
|  9> 
| 10> %maxcore 5000 
| 11> 
| 12> %pal
| 13> nprocs 24
| 14> end
| 15> 
| 16> 
| 17>                          ****END OF INPUT****
================================================================================

                       ****************************
                       * Single Point Calculation *
                       ****************************

---------------------------------
CARTESIAN COORDINATES (ANGSTROEM)
---------------------------------
  Pr     0.000000    0.000000    0.000000

----------------------------
CARTESIAN COORDINATES (A.U.)
----------------------------
  NO LB      ZA    FRAG     MASS         X           Y           Z
   0 Pr   31.0000*   0   140.908    0.000000    0.000000    0.000000
* core charge reduced due to ECP

--------------------------------
INTERNAL COORDINATES (ANGSTROEM)
--------------------------------
 Pr     0   0   0     0.000000000000     0.00000000     0.00000000

---------------------------
INTERNAL COORDINATES (A.U.)
---------------------------
 Pr     0   0   0     0.000000000000     0.00000000     0.00000000

---------------------
BASIS SET INFORMATION
---------------------
There are 1 groups of distinct atoms

 Group   1 Type Pr  : 14s12p9d7f1g contracted to 10s6p4d3f1g pattern {5111111111/531111/6111/511/1}

Atom   0Pr   basis set group =>   1
-------------------------
ECP PARAMETER INFORMATION
-------------------------

 Group 1, Type Pr ECP Def2-ECP (replacing 28 core electrons, lmax=5)

Atom   0Pr   ECP group =>   1


Checking for AutoStart:
The File: 59_Pr.gbw exists
Trying to determine its content:
     ... Fine, the file contains calculation information
     ... Fine, the calculation information was read
     ... Fine, the file contains a basis set
     ... Fine, the basis set was read
     ... Fine, the file contains ECP parameters
     ... Fine, ECP parameters were read
     ... Fine, the file contains a geometry
     ... Fine, the geometry was read
     ... The file does not contain orbitals - skipping AutoStart


           ************************************************************
           *        Program running with 24 parallel MPI-processes    *
           *              working on a common directory               *
           ************************************************************
------------------------------------------------------------------------------
                           ORCA GTO INTEGRAL CALCULATION
------------------------------------------------------------------------------

                         BASIS SET STATISTICS AND STARTUP INFO

 # of primitive gaussian shells          ...   43
 # of primitive gaussian functions       ...  153
 # of contracted shells                  ...   24
 # of contracted basis functions         ...   78
 Highest angular momentum                ...    4
 Maximum contraction depth               ...    6
 Integral package used                   ... LIBINT
 Integral threshhold            Thresh   ...  2.500e-11
 Primitive cut-off              TCut     ...  2.500e-12


------------------------------ INTEGRAL EVALUATION ----------------------------


 * One electron integrals 

   ECP integrals                         ... done
 Pre-screening matrix                    ... done
 Shell pair data                         ... done (   0.000 sec)



           ************************************************************
           *        Program running with 24 parallel MPI-processes    *
           *              working on a common directory               *
           ************************************************************
-------------------------------------------------------------------------------
                                 ORCA SCF
-------------------------------------------------------------------------------

------------
SCF SETTINGS
------------
Hamiltonian:
 Ab initio Hamiltonian  Method          .... Hartree-Fock(GTOs)


General Settings:
 Integral files         IntName         .... 59_Pr
 Hartree-Fock type      HFTyp           .... UHF
 Total Charge           Charge          ....    0
 Multiplicity           Mult            ....    4
 Number of Electrons    NEL             ....   31
 Basis Dimension        Dim             ....   78
 Nuclear Repulsion      ENuc            ....      0.0000000000 Eh

Convergence Acceleration:
 DIIS                   CNVDIIS         .... on
   Start iteration      DIISMaxIt       ....    12
   Startup error        DIISStart       ....  0.200000
   # of expansion vecs  DIISMaxEq       ....     5
   Bias factor          DIISBfac        ....   1.050
   Max. coefficient     DIISMaxC        ....  10.000
 Newton-Raphson         CNVNR           .... off
 SOSCF                  CNVSOSCF        .... off
 Level Shifting         CNVShift        .... on
   Level shift para.    LevelShift      ....    0.2500
   Turn off err/grad.   ShiftErr        ....    0.0010
 Zerner damping         CNVZerner       .... off
 Static damping         CNVDamp         .... on
   Fraction old density DampFac         ....    0.7000
   Max. Damping (<1)    DampMax         ....    0.9800
   Min. Damping (>=0)   DampMin         ....    0.0000
   Turn off err/grad.   DampErr         ....    0.1000
 Fernandez-Rico         CNVRico         .... off

SCF Procedure:
 Maximum # iterations   MaxIter         ....   125
 SCF integral mode      SCFMode         .... Direct
   Integral package                     .... LIBINT
 Reset frequency        DirectResetFreq ....    20
 Integral Threshold     Thresh          ....  2.500e-11 Eh
 Primitive CutOff       TCut            ....  2.500e-12 Eh

Convergence Tolerance:
 Convergence Check Mode ConvCheckMode   .... Total+1el-Energy
 Convergence forced     ConvForced      .... 1
 Energy Change          TolE            ....  1.000e-08 Eh
 1-El. energy change                    ....  1.000e-05 Eh
 DIIS Error             TolErr          ....  5.000e-07


Diagonalization of the overlap matrix:
Smallest eigenvalue                        ... 1.218e-03
Time for diagonalization                   ...    0.002 sec
Threshold for overlap eigenvalues          ... 1.000e-08
Number of eigenvalues below threshold      ... 0
Time for construction of square roots      ...    0.010 sec
Total time needed                          ...    0.012 sec

-------------------
DFT GRID GENERATION
-------------------

General Integration Accuracy     IntAcc      ...  4.340
Radial Grid Type                 RadialGrid  ... Gauss-Chebyshev
Angular Grid (max. acc.)         AngularGrid ... Lebedev-110
Angular grid pruning method      GridPruning ... 3 (G Style)
Weight generation scheme         WeightScheme... Becke
Basis function cutoff            BFCut       ...    1.0000e-11
Integration weight cutoff        WCut        ...    1.0000e-14
Grids for H and He will be reduced by one unit

# of grid points (after initial pruning)     ...   3552 (   0.0 sec)
# of grid points (after weights+screening)   ...   3552 (   0.0 sec)
Grid point division into batches done        ...    0.0 sec
Reduced shell lists constructed in    0.0 sec

Total number of grid points                  ...     3552
Total number of batches                      ...       56
Average number of points per batch           ...       63
Average number of grid points per atom       ...     3552
Average number of shells per batch           ...     3.75 (15.62%)
Average number of basis functions per batch  ...     9.75 (12.50%)
Average number of large shells per batch     ...     3.00 (80.00%)
Average number of large basis fcns per batch ...     7.50 (76.92%)
Maximum spatial batch extension              ...  24.96, 38.92, 38.92 au
Average spatial batch extension              ...   1.30,  1.85,  2.08 au

Time for grid setup =    0.049 sec

------------------------------
INITIAL GUESS: MODEL POTENTIAL
------------------------------
Loading Hartree-Fock densities                     ... done
  calling /sw/apps/orca/orca_4_2_0_linux_x86-64_openmpi314/orca 59_Pr_atom59.inp > 59_Pr_atom59.out in order to generate an atomic fitting density for atom 0 (Pr with ECP) on-the-fly... 
    atom 0 (Pr), assumed electronic state with S=4: 1s2 2s2 2p6 3s2 3p6 4s2 3d10 4p6 5s2 4d10 5p6 6s2 4f3           ... done
Calculating cut-offs                               ... done
Setting up the integral package                    ... done
Initializing the effective Hamiltonian             ... done
Starting the Coulomb interaction                   ... done (   0.0 sec)
Reading the grid                                   ... done
Mapping shells                                     ... done
Starting the XC term evaluation                    ... done (   0.0 sec)
Transforming the Hamiltonian                       ... done (   0.0 sec)
Diagonalizing the Hamiltonian                      ... done (   0.0 sec)
Back transforming the eigenvectors                 ... done (   0.0 sec)
Now organizing SCF variables                       ... done
                      ------------------
                      INITIAL GUESS DONE ( 115.2 sec)
                      ------------------
--------------
SCF ITERATIONS
--------------
ITER       Energy         Delta-E        Max-DP      RMS-DP      [F,P]     Damp
               ***  Starting incremental Fock matrix formation  ***
  0   -512.9348203746   0.000000000000 0.87305062  0.01632900  0.9043436 0.7000
  1   -514.1164983778  -1.181678003260 0.40024184  0.00713815  0.4253247 0.7000
  2   -514.0877758951   0.028722482739 0.38196270  0.00673176  0.2048236 0.7000
  3   -514.2979017651  -0.210125869965 0.26738188  0.00462711  0.2073259 0.7000
                               ***Turning on DIIS***
  4   -514.3196026712  -0.021700906098 0.23658859  0.00414633  0.1729695 0.7000
  5   -515.2788131928  -0.959210521601 0.33172040  0.00814973  0.0860410 0.0000
  6   -511.4787060425   3.800107150256 0.06919178  0.00111201  0.1443477 0.7000
  7   -512.1152314379  -0.636525395380 0.09745116  0.00153419  0.1267623 0.7000
  8   -512.7795533373  -0.664321899425 0.11340842  0.00180085  0.1074614 0.7000
  9   -513.3183110826  -0.538757745254 0.38818214  0.00630586  0.0862622 0.0000
 10   -514.9761667385  -1.657855655946 0.09950886  0.00197033  0.0184808 0.0000
 11   -515.2863404419  -0.310173703353 0.06142604  0.00117845  0.0161519 0.0000
 12   -515.2233928560   0.062947585855 0.05579151  0.00104411  0.0149282 0.0000
 13   -515.0966270609   0.126765795051 0.05665979  0.00117283  0.0126111 0.0000
 14   -515.1984614212  -0.101834360200 0.02187912  0.00059928  0.0082315 0.0000
 15   -515.2760223694  -0.077560948210 0.01921211  0.00052554  0.0060061 0.0000
 16   -515.3038632907  -0.027840921318 0.00856747  0.00024723  0.0036992 0.0000
 17   -515.3079464873  -0.004083196573 0.00684905  0.00019922  0.0024264 0.0000
 18   -515.3119670349  -0.004020547604 0.00280743  0.00007615  0.0015595 0.0000
 19   -515.3042246866   0.007742348294 0.00189490  0.00004823  0.0012261 0.0000
               *** Restarting incremental Fock matrix formation ***
                                   *** Resetting DIIS ***
 20   -515.3030152574   0.001209429113 0.00050222  0.00001654  0.0011946 0.0000
 21   -515.3027037101   0.000311547395 0.00065071  0.00002083  0.0011331 0.0000
 22   -515.3027574857  -0.000053775620 0.00128895  0.00004006  0.0010677 0.0000
 23   -515.3017786258   0.000978859855 0.00439343  0.00013685  0.0009418 0.0000
 24   -515.3027111452  -0.000932519408 0.00809997  0.00024657  0.0008255 0.0000
 25   -515.3031602383  -0.000449093079 0.00264642  0.00007628  0.0006072 0.0000
 26   -515.3036334920  -0.000473253713 0.00176164  0.00004877  0.0005169 0.0000
 27   -515.3039397733  -0.000306281293 0.00165547  0.00004448  0.0004441 0.0000
 28   -515.3036413869   0.000298386447 0.00133730  0.00003715  0.0003570 0.0000
 29   -515.3034652461   0.000176140811 0.00132404  0.00003854  0.0002835 0.0000
 30   -515.3034318269   0.000033419159 0.00065125  0.00002138  0.0002908 0.0000
 31   -515.3034266277   0.000005199147 0.00010976  0.00000341  0.0002964 0.0000
 32   -515.3033619665   0.000064661216 0.00017219  0.00000437  0.0002983 0.0000
 33   -515.3033857300  -0.000023763417 0.00003443  0.00000101  0.0002983 0.0000
 34   -515.3034045993  -0.000018869349 0.00015139  0.00000461  0.0002981 0.0000
 35   -515.3033739462   0.000030653119 0.00017237  0.00000559  0.0002992 0.0000
 36   -515.3033899805  -0.000016034360 0.00005223  0.00000166  0.0003017 0.0000
 37   -515.3034003062  -0.000010325682 0.00003501  0.00000092  0.0003026 0.0000
 38   -515.3033917072   0.000008599061 0.00005735  0.00000178  0.0003029 0.0000
 39   -515.3033877335   0.000003973612 0.00009714  0.00000322  0.0003038 0.0000
               *** Restarting incremental Fock matrix formation ***
                                   *** Resetting DIIS ***
 40   -515.3033867088   0.000001024704 0.00022187  0.00000673  0.0003053 0.0000
 41   -515.3033904039  -0.000003695071 0.00016879  0.00000508  0.0003090 0.0000
 42   -515.3033934799  -0.000003076004 0.00001508  0.00000044  0.0003118 0.0000
 43   -515.3033937314  -0.000000251465 0.00000619  0.00000019  0.0003121 0.0000
 44   -515.3033935811   0.000000150257 0.00000004  0.00000000  0.0003120 0.0000
 45   -515.3033911578   0.000002423317 0.00019457  0.00000583  0.0003120 0.0000
 46   -515.3033953459  -0.000004188112 0.00004789  0.00000143  0.0003154 0.0000
 47   -515.3033962228  -0.000000876921 0.00001993  0.00000059  0.0003163 0.0000
 48   -515.3033958491   0.000000373780 0.00005870  0.00000174  0.0003166 0.0000
 49   -515.3033960232  -0.000000174121 0.00007507  0.00000223  0.0003177 0.0000
 50   -515.3033962810  -0.000000257835 0.00012713  0.00000377  0.0003190 0.0000
 51   -515.3033990295  -0.000002748500 0.00001528  0.00000045  0.0003213 0.0000
 52   -515.3033980997   0.000000929841 0.00009700  0.00000286  0.0003210 0.0000
 53   -515.3033993128  -0.000001213109 0.00006357  0.00000188  0.0003228 0.0000
 54   -515.3033998862  -0.000000573390 0.00008340  0.00000246  0.0003240 0.0000
 55   -515.3034009381  -0.000001051896 0.00006543  0.00000193  0.0003255 0.0000
 56   -515.3034019232  -0.000000985165 0.00003203  0.00000094  0.0003267 0.0000
 57   -515.3034016737   0.000000249545 0.00011439  0.00000336  0.0003273 0.0000
 58   -515.3034036462  -0.000001972531 0.00003534  0.00000104  0.0003295 0.0000
 59   -515.3034036051   0.000000041137 0.00009806  0.00000287  0.0003302 0.0000
               *** Restarting incremental Fock matrix formation ***
                                   *** Resetting DIIS ***
 60   -515.3034032747   0.000000330341 0.00025173  0.00000736  0.0003320 0.0000
 61   -515.3034069570  -0.000003682217 0.00017404  0.00000507  0.0003368 0.0000
 62   -515.3034100556  -0.000003098647 0.00001455  0.00000043  0.0003402 0.0000
 63   -515.3034095004   0.000000555202 0.00000025  0.00000001  0.0003400 0.0000
                 **** Energy Check signals convergence ****

               *****************************************************
               *                     SUCCESS                       *
               *           SCF CONVERGED AFTER  64 CYCLES          *
               *****************************************************


----------------
TOTAL SCF ENERGY
----------------

Total Energy       :         -515.30340951 Eh          -14022.11864 eV

Components:
Nuclear Repulsion  :            0.00000000 Eh               0.00000 eV
Electronic Energy  :         -515.30340951 Eh          -14022.11864 eV
One Electron Energy:         -892.87033331 Eh          -24296.23697 eV
Two Electron Energy:          377.56692380 Eh           10274.11832 eV

Virial components:
Potential Energy   :         -732.15112122 Eh          -19922.84487 eV
Kinetic Energy     :          216.84771171 Eh            5900.72622 eV
Virial Ratio       :            3.37633778


---------------
SCF CONVERGENCE
---------------

  Last Energy change         ...   -9.1073e-09  Tolerance :   1.0000e-08
  Last MAX-Density change    ...    2.6140e-07  Tolerance :   1.0000e-07
  Last RMS-Density change    ...    7.6575e-09  Tolerance :   5.0000e-09
  Last DIIS Error            ...    3.3996e-04  Tolerance :   5.0000e-07

             **** THE GBW FILE WAS UPDATED (59_Pr.gbw) ****
             **** DENSITY FILE WAS UPDATED (59_Pr.scfp) ****
             **** ENERGY FILE WAS UPDATED (59_Pr.en.tmp) ****
----------------------
UHF SPIN CONTAMINATION
----------------------

Expectation value of <S**2>     :     3.752940
Ideal value S*(S+1) for S=1.5   :     3.750000
Deviation                       :     0.002940

             **** THE GBW FILE WAS UPDATED (59_Pr.gbw) ****
             **** DENSITY FILE WAS UPDATED (59_Pr.scfp) ****
----------------
ORBITAL ENERGIES
----------------
                 SPIN UP ORBITALS
  NO   OCC          E(Eh)            E(eV) 
   0   1.0000     -12.590502      -342.6050 
   1   1.0000      -9.142990      -248.7934 
   2   1.0000      -9.142918      -248.7914 
   3   1.0000      -9.142871      -248.7902 
   4   1.0000      -4.880538      -132.8062 
   5   1.0000      -4.880242      -132.7981 
   6   1.0000      -4.879288      -132.7722 
   7   1.0000      -4.836343      -131.6036 
   8   1.0000      -4.836272      -131.6016 
   9   1.0000      -1.857824       -50.5540 
  10   1.0000      -1.008732       -27.4490 
  11   1.0000      -1.008665       -27.4472 
  12   1.0000      -1.008622       -27.4460 
  13   1.0000      -0.387004       -10.5309 
  14   1.0000      -0.386972       -10.5300 
  15   1.0000      -0.386850       -10.5267 
  16   1.0000      -0.174314        -4.7433 
  17   0.0000       0.034691         0.9440 
  18   0.0000       0.034703         0.9443 
  19   0.0000       0.034708         0.9444 
  20   0.0000       0.095932         2.6104 
  21   0.0000       0.102113         2.7786 
  22   0.0000       0.102125         2.7790 
  23   0.0000       0.102159         2.7799 
  24   0.0000       0.104873         2.8537 
  25   0.0000       0.104875         2.8538 
  26   0.0000       0.464708        12.6454 
  27   0.0000       0.465051        12.6547 
  28   0.0000       0.465219        12.6593 
  29   0.0000       0.494874        13.4662 
  30   0.0000       0.583176        15.8690 
  31   0.0000       0.583218        15.8702 
  32   0.0000       0.583243        15.8708 
  33   0.0000       0.701918        19.1001 
  34   0.0000       0.701934        19.1006 
  35   0.0000       0.701973        19.1017 
  36   0.0000       0.705614        19.2007 
  37   0.0000       0.705621        19.2009 
  38   0.0000       1.104280        30.0490 
  39   0.0000       1.207859        32.8675 
  40   0.0000       1.207878        32.8680 
  41   0.0000       1.207937        32.8696 
  42   0.0000       1.325800        36.0769 
  43   0.0000       1.325943        36.0807 
  44   0.0000       1.326019        36.0828 
  45   0.0000       1.339583        36.4519 
  46   0.0000       1.667722        45.3810 
  47   0.0000       1.667728        45.3812 
  48   0.0000       1.673830        45.5472 
  49   0.0000       1.673904        45.5492 
  50   0.0000       1.673931        45.5500 
  51   0.0000       1.674641        45.5693 
  52   0.0000       1.674717        45.5714 
  53   0.0000       1.674749        45.5723 
  54   0.0000       1.684077        45.8261 
  55   0.0000       2.977256        81.0153 
  56   0.0000       2.977368        81.0183 
  57   0.0000       2.977440        81.0203 
  58   0.0000       4.342601       118.1682 
  59   0.0000       4.342644       118.1694 
  60   0.0000       4.342775       118.1729 
  61   0.0000       4.452426       121.1567 
  62   0.0000       4.452582       121.1609 
  63   0.0000       4.452676       121.1635 
  64   0.0000       4.468483       121.5936 
  65   0.0000       4.554068       123.9225 
  66   0.0000       4.554102       123.9234 
  67   0.0000       4.554109       123.9236 
  68   0.0000       4.557968       124.0286 
  69   0.0000       4.558000       124.0295 
  70   0.0000       6.826474       185.7578 
  71   0.0000      42.690843      1161.6769 
  72   0.0000      42.691005      1161.6813 
  73   0.0000      42.691111      1161.6842 
  74   0.0000      56.356705      1533.5439 
  75   0.0000     101.128002      2751.8328 
  76   0.0000     221.452685      6026.0339 
  77   0.0000     450.296495     12253.1906 

                 SPIN DOWN ORBITALS
  NO   OCC          E(Eh)            E(eV) 
   0   1.0000     -12.425758      -338.1221 
   1   1.0000      -8.956900      -243.7296 
   2   1.0000      -8.956502      -243.7188 
   3   1.0000      -8.956243      -243.7118 
   4   1.0000      -4.627435      -125.9189 
   5   1.0000      -4.627328      -125.9160 
   6   1.0000      -4.610222      -125.4505 
   7   1.0000      -4.609588      -125.4333 
   8   1.0000      -4.609423      -125.4288 
   9   1.0000      -1.782893       -48.5150 
  10   1.0000      -0.951029       -25.8788 
  11   1.0000      -0.950839       -25.8737 
  12   1.0000      -0.950716       -25.8703 
  13   1.0000      -0.170662        -4.6439 
  14   0.0000       0.036227         0.9858 
  15   0.0000       0.036237         0.9861 
  16   0.0000       0.036246         0.9863 
  17   0.0000       0.098554         2.6818 
  18   0.0000       0.117537         3.1984 
  19   0.0000       0.117553         3.1988 
  20   0.0000       0.119903         3.2627 
  21   0.0000       0.119990         3.2651 
  22   0.0000       0.120011         3.2657 
  23   0.0000       0.526412        14.3244 
  24   0.0000       0.526444        14.3253 
  25   0.0000       0.526475        14.3261 
  26   0.0000       0.531470        14.4620 
  27   0.0000       0.546538        14.8721 
  28   0.0000       0.546598        14.8737 
  29   0.0000       0.546764        14.8782 
  30   0.0000       0.598964        16.2986 
  31   0.0000       0.599033        16.3005 
  32   0.0000       0.599079        16.3018 
  33   0.0000       0.734107        19.9761 
  34   0.0000       0.734137        19.9769 
  35   0.0000       0.738648        20.0996 
  36   0.0000       0.738822        20.1044 
  37   0.0000       0.738867        20.1056 
  38   0.0000       1.127983        30.6940 
  39   0.0000       1.355425        36.8830 
  40   0.0000       1.355446        36.8836 
  41   0.0000       1.355467        36.8841 
  42   0.0000       1.358746        36.9734 
  43   0.0000       1.368757        37.2458 
  44   0.0000       1.368799        37.2469 
  45   0.0000       1.368914        37.2501 
  46   0.0000       1.685377        45.8614 
  47   0.0000       1.688513        45.9468 
  48   0.0000       1.688542        45.9476 
  49   0.0000       1.688585        45.9487 
  50   0.0000       1.689649        45.9777 
  51   0.0000       1.689653        45.9778 
  52   0.0000       1.689658        45.9779 
  53   0.0000       1.690848        46.0103 
  54   0.0000       1.690857        46.0106 
  55   0.0000       3.021499        82.2192 
  56   0.0000       3.021688        82.2243 
  57   0.0000       3.021810        82.2276 
  58   0.0000       4.493008       122.2610 
  59   0.0000       4.493040       122.2618 
  60   0.0000       4.493070       122.2627 
  61   0.0000       4.497909       122.3943 
  62   0.0000       4.512890       122.8020 
  63   0.0000       4.512953       122.8037 
  64   0.0000       4.513126       122.8084 
  65   0.0000       4.620110       125.7196 
  66   0.0000       4.620181       125.7215 
  67   0.0000       4.631152       126.0201 
  68   0.0000       4.631569       126.0314 
  69   0.0000       4.631677       126.0343 
  70   0.0000       6.880564       187.2297 
  71   0.0000      42.738235      1162.9665 
  72   0.0000      42.738475      1162.9730 
  73   0.0000      42.738632      1162.9773 
  74   0.0000      56.403322      1534.8124 
  75   0.0000     101.129713      2751.8794 
  76   0.0000     221.465117      6026.3722 
  77   0.0000     450.300892     12253.3102 

                    ********************************
                    * MULLIKEN POPULATION ANALYSIS *
                    ********************************

--------------------------------------------
MULLIKEN ATOMIC CHARGES AND SPIN POPULATIONS
--------------------------------------------
   0 Pr:   -0.000000    3.000000
Sum of atomic charges         :   -0.0000000
Sum of atomic spin populations:    3.0000000

-----------------------------------------------------
MULLIKEN REDUCED ORBITAL CHARGES AND SPIN POPULATIONS
-----------------------------------------------------
CHARGE
  0 Prs       :     5.999999  s :     5.999999
      pz      :     3.999979  p :    11.999939
      px      :     3.999980
      py      :     3.999980
      dz2     :     1.999986  d :     9.999930
      dxz     :     1.999986
      dyz     :     1.999986
      dx2y2   :     1.999986
      dxy     :     1.999986
      f0      :     0.932733  f :     3.000061
      f+1     :     0.076501
      f-1     :     0.086968
      f+2     :     0.993327
      f-2     :     0.070766
      f+3     :     0.517658
      f-3     :     0.322109
      g0      :     0.000013  g :     0.000071
      g+1     :     0.000007
      g-1     :     0.000006
      g+2     :     0.000008
      g-2     :     0.000005
      g+3     :     0.000009
      g-3     :     0.000007
      g+4     :     0.000011
      g-4     :     0.000006

SPIN
  0 Prs       :     0.000001  s :     0.000001
      pz      :    -0.000005  p :    -0.000017
      px      :    -0.000006
      py      :    -0.000005
      dz2     :    -0.000014  d :    -0.000070
      dxz     :    -0.000014
      dyz     :    -0.000014
      dx2y2   :    -0.000014
      dxy     :    -0.000014
      f0      :     0.932732  f :     3.000017
      f+1     :     0.076492
      f-1     :     0.086958
      f+2     :     0.993327
      f-2     :     0.070752
      f+3     :     0.517653
      f-3     :     0.322102
      g0      :     0.000013  g :     0.000069
      g+1     :     0.000007
      g-1     :     0.000006
      g+2     :     0.000008
      g-2     :     0.000003
      g+3     :     0.000009
      g-3     :     0.000007
      g+4     :     0.000010
      g-4     :     0.000006


                     *******************************
                     * LOEWDIN POPULATION ANALYSIS *
                     *******************************

-------------------------------------------
LOEWDIN ATOMIC CHARGES AND SPIN POPULATIONS
-------------------------------------------
   0 Pr:   -0.000000    3.000000

----------------------------------------------------
LOEWDIN REDUCED ORBITAL CHARGES AND SPIN POPULATIONS
----------------------------------------------------
CHARGE
  0 Prs       :     5.999999  s :     5.999999
      pz      :     3.999979  p :    11.999939
      px      :     3.999980
      py      :     3.999980
      dz2     :     1.999986  d :     9.999930
      dxz     :     1.999986
      dyz     :     1.999986
      dx2y2   :     1.999986
      dxy     :     1.999986
      f0      :     0.932733  f :     3.000061
      f+1     :     0.076501
      f-1     :     0.086968
      f+2     :     0.993327
      f-2     :     0.070766
      f+3     :     0.517658
      f-3     :     0.322109
      g0      :     0.000013  g :     0.000071
      g+1     :     0.000007
      g-1     :     0.000006
      g+2     :     0.000008
      g-2     :     0.000005
      g+3     :     0.000009
      g-3     :     0.000007
      g+4     :     0.000011
      g-4     :     0.000006

SPIN
  0 Prs       :     0.000001  s :     0.000001
      pz      :    -0.000005  p :    -0.000017
      px      :    -0.000006
      py      :    -0.000005
      dz2     :    -0.000014  d :    -0.000070
      dxz     :    -0.000014
      dyz     :    -0.000014
      dx2y2   :    -0.000014
      dxy     :    -0.000014
      f0      :     0.932732  f :     3.000017
      f+1     :     0.076492
      f-1     :     0.086958
      f+2     :     0.993327
      f-2     :     0.070752
      f+3     :     0.517653
      f-3     :     0.322102
      g0      :     0.000013  g :     0.000069
      g+1     :     0.000007
      g-1     :     0.000006
      g+2     :     0.000008
      g-2     :     0.000003
      g+3     :     0.000009
      g-3     :     0.000007
      g+4     :     0.000010
      g-4     :     0.000006


                      *****************************
                      * MAYER POPULATION ANALYSIS *
                      *****************************

  NA   - Mulliken gross atomic population
  ZA   - Total nuclear charge
  QA   - Mulliken gross atomic charge
  VA   - Mayer's total valence
  BVA  - Mayer's bonded valence
  FA   - Mayer's free valence

  ATOM       NA         ZA         QA         VA         BVA        FA
  0 Pr    31.0000    31.0000    -0.0000     3.0059     0.0000     3.0059

  Mayer bond orders larger than 0.100000


-------
TIMINGS
-------

Total SCF time: 0 days 0 hours 2 min 22 sec 

Total time                  ....     142.931 sec
Sum of individual times     ....     142.029 sec  ( 99.4%)

Fock matrix formation       ....      15.488 sec  ( 10.8%)
Diagonalization             ....       0.304 sec  (  0.2%)
Density matrix formation    ....       0.029 sec  (  0.0%)
Population analysis         ....       0.053 sec  (  0.0%)
Initial guess               ....     115.199 sec  ( 80.6%)
Orbital Transformation      ....       0.000 sec  (  0.0%)
Orbital Orthonormalization  ....       0.000 sec  (  0.0%)
DIIS solution               ....      10.907 sec  (  7.6%)


           ************************************************************
           *        Program running with 24 parallel MPI-processes    *
           *              working on a common directory               *
           ************************************************************


------------------------------------------------------------------------------- 
                              ORCA-MATRIX DRIVEN CI                            
------------------------------------------------------------------------------- 

--------------------------------
AUTOMATIC CHOICE OF INCORE LEVEL
--------------------------------

Memory available                           ...   2500.00 MB
Memory needed for S+T                      ...      7.75 MB
Memory needed for J+K                      ...     15.59 MB
Memory needed for DIIS                     ...    108.50 MB
Memory needed for 3-ext                    ...     22.51 MB
Memory needed for 4-ext                    ...     53.68 MB
Memory needed for triples                  ...      8.66 MB
 -> Final InCoreLevel    ... 5
 -> check shows that triples correction can be computed


Wavefunction type
-----------------
Correlation treatment                      ...      CCSD     
Single excitations                         ... ON
Orbital optimization                       ... OFF
Calculation of Z vector                    ... OFF
Calculation of Brueckner orbitals          ... OFF
Perturbative triple excitations            ... ON
Calculation of F12 correction              ... OFF
Frozen core treatment                      ... chemical core (8 el)
Reference Wavefunction                     ... UHF
  Alpha-MOs occ    :     4 ...   16 ( 13 MO's/ 13 electrons)
  Beta-MOs occ     :     4 ...   13 ( 10 MO's/ 10 electrons)
  Alpha-MOs virt   :    17 ...   77 ( 61 MO's              )
  Beta-MOs virt    :    14 ...   77 ( 64 MO's              )
Number of AO's                             ...     78
Number of electrons                        ...     31
Number of correlated electrons             ...     23

Algorithmic settings
--------------------
Integral transformation                    ... AO direct full transformation
K(C) Formation                             ... FULL-MO TRAFO
Maximum number of iterations               ...        50
Convergence tolerance (max. residuum)      ... 1.000e-05
Level shift for amplitude update           ... 2.000e-01
Maximum number of DIIS vectors             ...         7
DIIS turned on at iteration                ...         0
Damping before turning on DIIS             ...     0.500
Damping after turning on DIIS              ...     0.000
Pair specific amplitude update             ... OFF
Natural orbital iterations                 ... OFF
Perturbative natural orbital generation    ... OFF
Printlevel                                 ... 2

Memory handling:
----------------
Maximum memory for working arrays          ...   2500 MB
Data storage in matrix containers          ... UNCOMPRESSED
Data type for integral storage             ... DOUBLE
In-Core Storage of quantities:
   Amplitudes+Sigma Vector      ... YES
   J+K operators                ... YES
   DIIS vectors                 ... YES
   3-external integrals         ... YES
   4-external integrals         ... YES


Initializing the integral package          ... done
Warning: reference  - re-canonicalizations have been set to INT 1 VIRT 1

--------------------------
UNRESTRICTED FOCK OPERATOR
--------------------------

<ss|ss>:         1540 b            0 skpd (  0.0%)    0.000 s ( 0.000 ms/b)
<ss|sp>:         3300 b            0 skpd (  0.0%)    0.000 s ( 0.000 ms/b)
<ss|sd>:         2200 b            0 skpd (  0.0%)    0.001 s ( 0.000 ms/b)
<ss|sf>:         1650 b            1 skpd (  0.1%)    0.000 s ( 0.000 ms/b)
<ss|sg>:          550 b            2 skpd (  0.4%)    0.000 s ( 0.000 ms/b)
<ss|pp>:         1155 b            0 skpd (  0.0%)    0.001 s ( 0.001 ms/b)
<ss|pd>:         1320 b            0 skpd (  0.0%)    0.001 s ( 0.001 ms/b)
<ss|pf>:          990 b            0 skpd (  0.0%)    0.002 s ( 0.002 ms/b)
<ss|pg>:          330 b            0 skpd (  0.0%)    0.000 s ( 0.001 ms/b)
<ss|dd>:          550 b            0 skpd (  0.0%)    0.001 s ( 0.002 ms/b)
<ss|df>:          660 b            0 skpd (  0.0%)    0.001 s ( 0.002 ms/b)
<ss|dg>:          220 b            0 skpd (  0.0%)    0.000 s ( 0.002 ms/b)
<ss|ff>:          330 b            0 skpd (  0.0%)    0.002 s ( 0.005 ms/b)
<ss|fg>:          165 b            0 skpd (  0.0%)    0.001 s ( 0.004 ms/b)
<ss|gg>:           55 b            0 skpd (  0.0%)    0.000 s ( 0.007 ms/b)
<sp|sp>:         1830 b            1 skpd (  0.1%)    0.000 s ( 0.000 ms/b)
<sp|sd>:         2400 b           11 skpd (  0.5%)    0.001 s ( 0.001 ms/b)
<sp|sf>:         1800 b            8 skpd (  0.4%)    0.001 s ( 0.001 ms/b)
<sp|sg>:          600 b           32 skpd (  5.3%)    0.000 s ( 0.001 ms/b)
<sp|pp>:         1260 b            0 skpd (  0.0%)    0.002 s ( 0.001 ms/b)
<sp|pd>:         1440 b            0 skpd (  0.0%)    0.003 s ( 0.002 ms/b)
<sp|pf>:         1080 b            0 skpd (  0.0%)    0.004 s ( 0.004 ms/b)
<sp|pg>:          360 b            0 skpd (  0.0%)    0.001 s ( 0.004 ms/b)
<sp|dd>:          600 b            0 skpd (  0.0%)    0.003 s ( 0.005 ms/b)
<sp|df>:          720 b            0 skpd (  0.0%)    0.004 s ( 0.005 ms/b)
<sp|dg>:          240 b            0 skpd (  0.0%)    0.001 s ( 0.006 ms/b)
<sp|ff>:          360 b            0 skpd (  0.0%)    0.005 s ( 0.014 ms/b)
<sp|fg>:          180 b            0 skpd (  0.0%)    0.002 s ( 0.011 ms/b)
<sp|gg>:           60 b            0 skpd (  0.0%)    0.001 s ( 0.020 ms/b)
<sd|sd>:          820 b            8 skpd (  1.0%)    0.001 s ( 0.001 ms/b)
<sd|sf>:         1200 b           18 skpd (  1.5%)    0.001 s ( 0.001 ms/b)
<sd|sg>:          400 b           27 skpd (  6.8%)    0.000 s ( 0.001 ms/b)
<sd|pp>:          840 b            0 skpd (  0.0%)    0.002 s ( 0.002 ms/b)
<sd|pd>:          960 b            6 skpd (  0.6%)    0.004 s ( 0.004 ms/b)
<sd|pf>:          720 b            3 skpd (  0.4%)    0.006 s ( 0.008 ms/b)
<sd|pg>:          240 b            5 skpd (  2.1%)    0.002 s ( 0.008 ms/b)
<sd|dd>:          400 b            0 skpd (  0.0%)    0.005 s ( 0.013 ms/b)
<sd|df>:          480 b            2 skpd (  0.4%)    0.008 s ( 0.016 ms/b)
<sd|dg>:          160 b            0 skpd (  0.0%)    0.003 s ( 0.017 ms/b)
<sd|ff>:          240 b            0 skpd (  0.0%)    0.011 s ( 0.045 ms/b)
<sd|fg>:          120 b            1 skpd (  0.8%)    0.004 s ( 0.031 ms/b)
<sd|gg>:           40 b            0 skpd (  0.0%)    0.002 s ( 0.048 ms/b)
<sf|sf>:          465 b            3 skpd (  0.6%)    0.001 s ( 0.002 ms/b)
<sf|sg>:          300 b           23 skpd (  7.7%)    0.000 s ( 0.001 ms/b)
<sf|pp>:          630 b            0 skpd (  0.0%)    0.003 s ( 0.004 ms/b)
<sf|pd>:          720 b            7 skpd (  1.0%)    0.006 s ( 0.008 ms/b)
<sf|pf>:          540 b            0 skpd (  0.0%)    0.008 s ( 0.014 ms/b)
<sf|pg>:          180 b            3 skpd (  1.7%)    0.003 s ( 0.014 ms/b)
<sf|dd>:          300 b            0 skpd (  0.0%)    0.009 s ( 0.030 ms/b)
<sf|df>:          360 b            0 skpd (  0.0%)    0.014 s ( 0.039 ms/b)
<sf|dg>:          120 b            1 skpd (  0.8%)    0.005 s ( 0.041 ms/b)
<sf|ff>:          180 b            0 skpd (  0.0%)    0.021 s ( 0.115 ms/b)
<sf|fg>:           90 b            0 skpd (  0.0%)    0.007 s ( 0.077 ms/b)
<sf|gg>:           30 b            0 skpd (  0.0%)    0.003 s ( 0.099 ms/b)
<sg|sg>:           55 b           11 skpd ( 20.0%)    0.000 s ( 0.002 ms/b)
<sg|pp>:          210 b            2 skpd (  1.0%)    0.001 s ( 0.003 ms/b)
<sg|pd>:          240 b           16 skpd (  6.7%)    0.001 s ( 0.006 ms/b)
<sg|pf>:          180 b           13 skpd (  7.2%)    0.002 s ( 0.010 ms/b)
<sg|pg>:           60 b            8 skpd ( 13.3%)    0.000 s ( 0.009 ms/b)
<sg|dd>:          100 b            3 skpd (  3.0%)    0.003 s ( 0.027 ms/b)
<sg|df>:          120 b            8 skpd (  6.7%)    0.004 s ( 0.038 ms/b)
<sg|dg>:           40 b            4 skpd ( 10.0%)    0.001 s ( 0.032 ms/b)
<sg|ff>:           60 b            0 skpd (  0.0%)    0.006 s ( 0.104 ms/b)
<sg|fg>:           30 b            4 skpd ( 13.3%)    0.001 s ( 0.057 ms/b)
<sg|gg>:           10 b            1 skpd ( 10.0%)    0.001 s ( 0.096 ms/b)
<pp|pp>:          231 b            0 skpd (  0.0%)    0.001 s ( 0.003 ms/b)
<pp|pd>:          504 b            0 skpd (  0.0%)    0.002 s ( 0.004 ms/b)
<pp|pf>:          378 b            0 skpd (  0.0%)    0.002 s ( 0.007 ms/b)
<pp|pg>:          126 b            0 skpd (  0.0%)    0.001 s ( 0.008 ms/b)
<pp|dd>:          210 b            0 skpd (  0.0%)    0.004 s ( 0.019 ms/b)
<pp|df>:          252 b            0 skpd (  0.0%)    0.006 s ( 0.023 ms/b)
<pp|dg>:           84 b            0 skpd (  0.0%)    0.002 s ( 0.026 ms/b)
<pp|ff>:          126 b            0 skpd (  0.0%)    0.008 s ( 0.065 ms/b)
<pp|fg>:           63 b            0 skpd (  0.0%)    0.003 s ( 0.047 ms/b)
<pp|gg>:           21 b            0 skpd (  0.0%)    0.001 s ( 0.071 ms/b)
<pd|pd>:          300 b            0 skpd (  0.0%)    0.004 s ( 0.013 ms/b)
<pd|pf>:          432 b            0 skpd (  0.0%)    0.007 s ( 0.015 ms/b)
<pd|pg>:          144 b            0 skpd (  0.0%)    0.003 s ( 0.019 ms/b)
<pd|dd>:          240 b            0 skpd (  0.0%)    0.010 s ( 0.044 ms/b)
<pd|df>:          288 b            0 skpd (  0.0%)    0.016 s ( 0.057 ms/b)
<pd|dg>:           96 b            0 skpd (  0.0%)    0.006 s ( 0.063 ms/b)
<pd|ff>:          144 b            0 skpd (  0.0%)    0.024 s ( 0.170 ms/b)
<pd|fg>:           72 b            0 skpd (  0.0%)    0.008 s ( 0.117 ms/b)
<pd|gg>:           24 b            0 skpd (  0.0%)    0.004 s ( 0.162 ms/b)
<pf|pf>:          171 b            0 skpd (  0.0%)    0.008 s ( 0.048 ms/b)
<pf|pg>:          108 b            0 skpd (  0.0%)    0.004 s ( 0.040 ms/b)
<pf|dd>:          180 b            0 skpd (  0.0%)    0.016 s ( 0.088 ms/b)
<pf|df>:          216 b            0 skpd (  0.0%)    0.026 s ( 0.120 ms/b)
<pf|dg>:           72 b            0 skpd (  0.0%)    0.009 s ( 0.129 ms/b)
<pf|ff>:          108 b            0 skpd (  0.0%)    0.039 s ( 0.359 ms/b)
<pf|fg>:           54 b            0 skpd (  0.0%)    0.011 s ( 0.197 ms/b)
<pf|gg>:           18 b            0 skpd (  0.0%)    0.005 s ( 0.301 ms/b)
<pg|pg>:           21 b            0 skpd (  0.0%)    0.001 s ( 0.038 ms/b)
<pg|dd>:           60 b            0 skpd (  0.0%)    0.005 s ( 0.080 ms/b)
<pg|df>:           72 b            0 skpd (  0.0%)    0.008 s ( 0.105 ms/b)
<pg|dg>:           24 b            0 skpd (  0.0%)    0.003 s ( 0.123 ms/b)
<pg|ff>:           36 b            0 skpd (  0.0%)    0.011 s ( 0.300 ms/b)
<pg|fg>:           18 b            0 skpd (  0.0%)    0.003 s ( 0.183 ms/b)
<pg|gg>:            6 b            0 skpd (  0.0%)    0.002 s ( 0.316 ms/b)
<dd|dd>:           55 b            0 skpd (  0.0%)    0.011 s ( 0.208 ms/b)
<dd|df>:          120 b            0 skpd (  0.0%)    0.019 s ( 0.157 ms/b)
<dd|dg>:           40 b            0 skpd (  0.0%)    0.007 s ( 0.170 ms/b)
<dd|ff>:           60 b            0 skpd (  0.0%)    0.028 s ( 0.462 ms/b)
<dd|fg>:           30 b            0 skpd (  0.0%)    0.008 s ( 0.251 ms/b)
<dd|gg>:           10 b            0 skpd (  0.0%)    0.004 s ( 0.383 ms/b)
<df|df>:           78 b            0 skpd (  0.0%)    0.037 s ( 0.475 ms/b)
<df|dg>:           48 b            0 skpd (  0.0%)    0.014 s ( 0.284 ms/b)
<df|ff>:           72 b            0 skpd (  0.0%)    0.046 s ( 0.646 ms/b)
<df|fg>:           36 b            0 skpd (  0.0%)    0.015 s ( 0.418 ms/b)
<df|gg>:           12 b            0 skpd (  0.0%)    0.006 s ( 0.520 ms/b)
<dg|dg>:           10 b            0 skpd (  0.0%)    0.002 s ( 0.197 ms/b)
<dg|ff>:           24 b            0 skpd (  0.0%)    0.012 s ( 0.490 ms/b)
<dg|fg>:           12 b            0 skpd (  0.0%)    0.004 s ( 0.358 ms/b)
<dg|gg>:            4 b            0 skpd (  0.0%)    0.002 s ( 0.511 ms/b)
<ff|ff>:           21 b            0 skpd (  0.0%)    0.049 s ( 2.356 ms/b)
<ff|fg>:           18 b            0 skpd (  0.0%)    0.016 s ( 0.881 ms/b)
<ff|gg>:            6 b            0 skpd (  0.0%)    0.006 s ( 1.083 ms/b)
<fg|fg>:            6 b            0 skpd (  0.0%)    0.004 s ( 0.588 ms/b)
<fg|gg>:            3 b            0 skpd (  0.0%)    0.003 s ( 0.912 ms/b)
<gg|gg>:            1 b            0 skpd (  0.0%)    0.001 s ( 1.123 ms/b)
Recanonicalizing the internal orbitals
Recanonicalizing the virtual orbitals
Time needed for Fock operator              ...            0.791 sec
Reference energy                           ...   -515.303408012
Warning: for UHF the TrafoType has to be JK
Warning: for UHF the K(C)-option cannot be MO but must be AOX

-------------------------------
PARTIAL EXCHANGE TRANSFORMATION
-------------------------------

Transformation type                        ... two-operators
Generation of integrals (i,mue|j,nue)      ... ON
Generation of integrals (mue,kappa|nue,tau)... ON
Generation of integrals (i,mue|a,nue)      ... ON
Dimension of the basis                     ...   78
Number of internal alpha-MOs               ...   13 (   4-  16)
Number of internal beta-MOs                ...   10 (   4-  13)
Number of external alpha-MOs               ...   61 (  17-  77)
Number of external beta-MOs                ...   64 (  14-  77)
Pair cutoff                                ... 0.000e+00 Eh
Number of AO pairs in the trafo            ... 3081
Total Number of distinct AO pairs          ... 3081
Memory devoted for trafo                   ... 2500.0 MB 
Max. Number of MO pairs treated together   ... 53859      
Number Format for Storage                  ... Double (8 Byte)
Integral package used                      ... LIBINT

Starting integral evaluation:
    ... done with AO integral generation
Closing buffer AOK[aa] ( 0.00 GB; CompressionRatio= 0.99)
Closing buffer AOK[bb] ( 0.00 GB; CompressionRatio= 0.99)
Closing buffer AOK[ab] ( 0.00 GB; CompressionRatio= 0.99)
Closing buffer AOK[ba] ( 0.00 GB; CompressionRatio= 0.99)
Collecting buffer AOK 
Closing buffer IAAO1[aa] ( 0.00 GB; CompressionRatio= 1.00)
Closing buffer IAAO1[bb] ( 0.00 GB; CompressionRatio= 1.00)
Closing buffer IAAO1[ab] ( 0.00 GB; CompressionRatio= 1.00)
Closing buffer IAAO1[ba] ( 0.00 GB; CompressionRatio= 1.00)
Closing buffer IAAO2[aa] ( 0.00 GB; CompressionRatio= 1.00)
Closing buffer IAAO2[bb] ( 0.00 GB; CompressionRatio= 1.00)
Closing buffer IAAO2[ab] ( 0.00 GB; CompressionRatio= 1.00)
Closing buffer IAAO2[ba] ( 0.00 GB; CompressionRatio= 1.00)
Collecting buffer IAAO 
Closing buffer PRQS    ( 0.00 GB; CompressionRatio= 1.00)
Collecting buffer PRQS 
Number of alpha/alpha MO pairs in trafo    ...   91
Number of beta /beta  MO pairs in trafo    ...   55
Number of alpha/ beta MO pairs in trafo    ...  130
------------------------
SORTING OF (i,mue|j,nue)
------------------------

SORTING OF ALPHA/ALPHA PAIRS
IBATCH = 1 of  1
Closing buffer KAO[aa] ( 0.00 GB; CompressionRatio= 1.00)
Collecting buffer KAO 
SORTING OF BETA /BETA  PAIRS
IBATCH = 1 of  1
Closing buffer KAO[bb] ( 0.00 GB; CompressionRatio= 1.00)
Collecting buffer KAO 
SORTING OF ALPHA/BETA  PAIRS
IBATCH = 1 of  1
Closing buffer KAO[ab] ( 0.00 GB; CompressionRatio= 0.999753512448)
Collecting buffer KAO[ab] 
------------------------
SORTING OF (i,mue|a,nue)
------------------------

Number of alpha/alpha (i,a) pairs in trafo  ...  793
Number of beta /beta  (i,a) pairs in trafo  ...  640
Number of alpha/ beta (i,a) pairs in trafo  ...  832
Number of beta /alpha (i,a) pairs in trafo  ...  610
Setting up the alpha/alpha list             ... done
Setting up the beta /beta  list             ... done
Setting up the alpha/beta  list             ... done
Setting up the beta /alpha list             ... done
    ... Now sorting (i,mue|a,nue)integrals
    ... Integrals (i,b|a,c) will be made on the fly
SORTING OF ALPHA/ALPHA PAIRS
IBATCH = 1 of  1
Closing buffer IPAQ[aa]  0.00 GB; CompressionRatio= 1.00)
SORTING OF BETA /BETA  PAIRS
IBATCH = 1 of  1
Closing buffer IPAQ[bb]( 0.00 GB; CompressionRatio= 1.00)
SORTING OF ALPHA/BETA  PAIRS (NMatSort_ab=35)
IBATCH = 1 of  1
Closing buffer IPAQ[ab]( 0.00 GB; CompressionRatio= 1.00)
SORTING OF BETA/ALPHA  PAIRS
IBATCH = 1 of  1
Closing buffer IPAQ[ba]( 0.00 GB; CompressionRatio= 1.00)
N(AO-Batches) Done                         ...       576 
N(AO-Batches) Skipped                      ...         0 
N(IJ)-pairs Skipped                        ...         0 
TOTAL TIME for half transformation         ...     4.696 sec
AO-integral generation                     ...     0.027 sec
Half transformation                        ...     0.172 sec
K-integral sorting                         ...     1.124 sec
<ss|**>: 
------------------------------
PARTIAL COULOMB TRANSFORMATION
------------------------------

Transformation type                        ... two-operators
Dimension of the basis                     ...   78
Number of internal alpha-MOs               ...   13 (4-16)
Number of internal beta-MOs                ...   10 (4-13)
Pair cutoff                                ... 0.000e+00 Eh
Number of AO pairs included in the trafo   ... 3081
Total Number of distinct AO pairs          ... 3081
Memory devoted for trafo                   ... 2500.0 MB 
Max. Number of MO pairs treated together   ... 106355      
Max. Number of MOs treated per batch       ... 1363      
Number Format for Storage                  ... Double (8 Byte)
AO-integral source                         ... DIRECT
Integral package used                      ... LIBINT

Starting integral evaluation:
<sp|**>:        16500 b        0 skpd     0.003 s (  0.000 ms/b)
<sd|**>:        18000 b        0 skpd     0.031 s (  0.002 ms/b)
<sf|**>:        12000 b        0 skpd     0.059 s (  0.005 ms/b)
        9000 b        0 skpd     0.043 s (  0.005 ms/b)
<sg|**>: <pp|**>:         3000 b        0 skpd     0.020 s (  0.007 ms/b)
        6300 b        0 skpd     0.027 s (  0.004 ms/b)
<pd|**>:         7200 b        0 skpd     0.071 s (  0.010 ms/b)
<pf|**>:         5400 b        0 skpd     0.121 s (  0.022 ms/b)
<pg|**>:         1800 b        0 skpd     0.061 s (  0.034 ms/b)
<dd|**>:         3000 b        0 skpd     0.139 s (  0.046 ms/b)
<df|**>:         3600 b        0 skpd     0.228 s (  0.063 ms/b)
<dg|**>:         1200 b        0 skpd     0.087 s (  0.073 ms/b)
<ff|**>:         1800 b        0 skpd     0.265 s (  0.147 ms/b)
<fg|**>:          900 b        0 skpd     0.116 s (  0.129 ms/b)
<gg|**>:          300 b        0 skpd     0.064 s (  0.212 ms/b)
Closing buffer AOJ[aa] ( 0.00 GB; CompressionRatio= 0.98)
Closing buffer AOJ[bb] ( 0.00 GB; CompressionRatio= 0.00)
Collecting buffer AOJ 
    ... done with AO integral generation
Number of Alpha-MO pairs included          ...   91
Number of Beta-MO pairs included           ...   55
    ... Now sorting integrals
SORTING ALPHA/ALPHA PAIRS
IBATCH = 1 of  1
Closing buffer JAO[aa] ( 0.00 GB; CompressionRatio= 1.00)
SORTING BETA/BETA PAIRS
IBATCH = 1 of  1
Closing buffer JAO[bb] ( 0.00 GB; CompressionRatio= 1.00)
Collecting buffer JAO 
TOTAL TIME for half transformation         ...     1.488 sec
AO-integral generation                     ...     1.119 sec
Half transformation                        ...     0.217 sec
J-integral sorting                         ...     0.102 sec

-------------------------- SECOND HALF TRANSFORMATION -------------------------
Formation of (ij|kl),(ij|ka), (ij|ab)      ... ok (     0.153 sec)
Formation of (ik|jl),(ik|ja), (ia|jb)      ... ok (     0.252 sec)


-----------------------
SPIN UNRESTRICTED GUESS
-----------------------

Entering MDCI_UHF_Guess, Tailored=0
Spin-components of the MP2 energy:
EMP2(aa)=     -0.148240386
EMP2(bb)=     -0.150481308
EMP2(ab)=     -0.491016000

Initial guess performed in     0.028 sec
E(0)                                       ...   -515.303408012
E(MP2)                                     ...     -0.789737694
Initial E(tot)                             ...   -516.093145705
<T|T>                                      ...      0.163764213
Number of pairs included                   ... 253

------------------------------------------------
                  UHF COUPLED CLUSTER ITERATIONS
------------------------------------------------

Number of amplitudes to be optimized       ...       745476

Iter       E(tot)           E(Corr)          Delta-E          Residual     Time      <S|S>**1/2
  0   -516.093147241     -0.789739229     -0.000001535      0.055906952    1.04      0.000735771
                           *** Turning on DIIS ***
  1   -516.031043699     -0.727635688      0.062103541      0.009886174    0.95      0.051858663
  2   -516.050024697     -0.746616685     -0.018980997      0.009102869    0.97      0.065019910
  3   -516.055462372     -0.752054360     -0.005437675      0.005544836    0.96      0.083857749
  4   -516.057161644     -0.753753632     -0.001699272      0.004657298    0.97      0.092590545
  5   -516.057498037     -0.754090025     -0.000336393      0.003811597    1.00      0.096604307
  6   -516.057946053     -0.754538042     -0.000448016      0.001873294    1.01      0.101289834
  7   -516.058102295     -0.754694284     -0.000156242      0.000606664    1.01      0.101171892
  8   -516.058069731     -0.754661720      0.000032564      0.000344730    1.00      0.099325491
  9   -516.058082400     -0.754674389     -0.000012669      0.000338465    0.99      0.098597133
 10   -516.058077469     -0.754669457      0.000004931      0.000333772    1.02      0.098411647
 11   -516.058084446     -0.754676435     -0.000006977      0.000328715    1.01      0.098510054
 12   -516.058090420     -0.754682408     -0.000005974      0.000319824    0.99      0.098757650
 13   -516.058101056     -0.754693045     -0.000010636      0.000299480    0.98      0.099371763
 14   -516.058110408     -0.754702396     -0.000009351      0.000250155    0.99      0.101276872
 15   -516.058122859     -0.754714847     -0.000012451      0.000183642    0.99      0.104641407
 16   -516.058162852     -0.754754840     -0.000039993      0.000092021    0.99      0.110764002
 17   -516.058195261     -0.754787250     -0.000032410      0.000072476    0.99      0.114742368
 18   -516.058211389     -0.754803378     -0.000016128      0.000049540    0.99      0.116293033
 19   -516.058217254     -0.754809243     -0.000005865      0.000045799    1.00      0.116945732
 20   -516.058220151     -0.754812139     -0.000002897      0.000043328    1.01      0.117261486
 21   -516.058221543     -0.754813531     -0.000001392      0.000040551    0.98      0.117355607
 22   -516.058222781     -0.754814769     -0.000001238      0.000037416    1.00      0.117371115
 23   -516.058224570     -0.754816558     -0.000001789      0.000031096    1.02      0.117419417
 24   -516.058224838     -0.754816826     -0.000000268      0.000023695    1.00      0.117447898
 25   -516.058223161     -0.754815149      0.000001677      0.000017970    1.00      0.117412301
 26   -516.058221855     -0.754813843      0.000001306      0.000014251    1.01      0.117378671
 27   -516.058221307     -0.754813296      0.000000547      0.000011423    1.01      0.117353164
 28   -516.058221520     -0.754813508     -0.000000212      0.000010090    1.01      0.117361227
 29   -516.058221980     -0.754813968     -0.000000460      0.000009116    1.00      0.117389366
               --- The Coupled-Cluster iterations have converged ---

----------------------
COUPLED CLUSTER ENERGY
----------------------

E(0)                                       ...   -515.303408012
E(CORR)                                    ...     -0.754813968
E(TOT)                                     ...   -516.058221980
Singles norm <S|S>**1/2                    ...      0.117389366 ( 0.081828136, 0.035561230)  
T1 diagnostic                              ...      0.024477375                              

------------------
LARGEST AMPLITUDES
------------------
  16a-> 19a  13b-> 16b       0.109442
  16a-> 17a  13b-> 14b       0.108573
  16a-> 18a  13b-> 15b       0.108520
  13b-> 17b  -1b-> -1b       0.078347
  16a-> 20a  -1a-> -1a       0.072893
  15a-> 26a  -1a-> -1a       0.053269
  13a-> 28a  -1a-> -1a       0.052839
  14a-> 27a  -1a-> -1a       0.052624
  14a-> 27a  13a-> 28a       0.048863
  14a-> 28a  13a-> 27a       0.048863
  15a-> 26a  14a-> 27a       0.048766
  15a-> 27a  14a-> 26a       0.048766
  15a-> 26a  13a-> 28a       0.048355
  15a-> 28a  13a-> 26a       0.048355
  15a-> 41a  -1a-> -1a       0.045801
  13a-> 39a  -1a-> -1a       0.045604

----------------------
UHF TRIPLES CORRECTION (Algorithm 1)
----------------------

Multiplier for the singles contribution    ...      1.000000000

SPIN-CASE Alpha-Alpha-Alpha:
10% done
20% done
30% done
40% done
50% done
60% done
70% done
80% done
90% done


SPIN-CASE Beta-Beta-Beta:
10% done
20% done
30% done
40% done
50% done
60% done
70% done
80% done
90% done


SPIN-CASE Alpha-Alpha-Beta:
10% done
20% done
30% done
40% done
50% done
60% done
70% done
80% done
90% done


SPIN-CASE Beta-Beta-Alpha:
10% done
20% done
30% done
40% done
50% done
60% done
70% done
80% done
90% done


Triples Correction (T)                     ...     -0.023495943
    alpha-alpha-alpha ... -0.002108242 (  9.0%)
    alpha-alpha-beta  ... -0.012132361 ( 51.6%)
    alpha-beta -beta  ... -0.008712340 ( 37.1%)
    beta -beta -beta  ... -0.000542999 (  2.3%)
Scaling of triples based on CCSD energies (Peterson et al. Molecular Physics 113, 1551 (2015))
E(T*) = f*E(T) where f = E(F12-CCSD)/E(CCSD) 
f = CCSD (with F12)/ CCSD (without F12)    ...      1.000000000
Scaled triples correction (T)              ...     -0.023495943

Final correlation energy                   ...     -0.778309911
E(CCSD)                                    ...   -516.058221980
E(CCSD(T))                                 ...   -516.081717922



        !!!!!!!!!!!!!!!!!!!!!!!!!!!!!!!!!!!!!!!!!!!!!!!!!!!!!!!!!!!!!!!!!!!!!!!!!! 
        !  Warning: Densities are linearized densities                           !
        !!!!!!!!!!!!!!!!!!!!!!!!!!!!!!!!!!!!!!!!!!!!!!!!!!!!!!!!!!!!!!!!!!!!!!!!!! 

NORM  =      1.216319509 sqrt=     1.102868763
W(HF) =      0.822152397
------------------------------------------------------------------------------
                           ORCA POPULATION ANALYSIS
------------------------------------------------------------------------------
Input electron density              ... 59_Pr.mdcip
Input spin density                  ... 59_Pr.mdcir
BaseName (.gbw .S,...)              ... 59_Pr

                    ********************************
                    * MULLIKEN POPULATION ANALYSIS *
                    ********************************

------------------------------------------
MULLIKEN ATOMIC CHARGES AND SPIN DENSITIES
------------------------------------------
   0 Pr:   -0.000000    3.000000
Sum of atomic charges       :   -0.0000000
Sum of atomic spin densities:    3.0000000

---------------------------------------------------
MULLIKEN REDUCED ORBITAL CHARGES AND SPIN DENSITIES
---------------------------------------------------
CHARGE
  0 Prs       :     5.874789  s :     5.874789
      pz      :     3.996024  p :    11.988100
      px      :     3.996044
      py      :     3.996033
      dz2     :     2.017115  d :    10.084367
      dxz     :     2.016780
      dyz     :     2.016655
      dx2y2   :     2.017500
      dxy     :     2.016316
      f0      :     0.919865  f :     3.045218
      f+1     :     0.094922
      f-1     :     0.105465
      f+2     :     0.977430
      f-2     :     0.092785
      f+3     :     0.520651
      f-3     :     0.334100
      g0      :     0.000995  g :     0.007526
      g+1     :     0.000839
      g-1     :     0.000836
      g+2     :     0.000831
      g-2     :     0.000520
      g+3     :     0.000958
      g-3     :     0.000901
      g+4     :     0.000826
      g-4     :     0.000821

SPIN
  0 Prs       :     0.002476  s :     0.002476
      pz      :     0.003677  p :     0.011023
      px      :     0.003671
      py      :     0.003675
      dz2     :     0.004883  d :     0.023053
      dxz     :     0.004505
      dyz     :     0.004364
      dx2y2   :     0.005320
      dxy     :     0.003981
      f0      :     0.907944  f :     2.959645
      f+1     :     0.082517
      f-1     :     0.093050
      f+2     :     0.965553
      f-2     :     0.080259
      f+3     :     0.508490
      f-3     :     0.321833
      g0      :     0.000565  g :     0.003804
      g+1     :     0.000428
      g-1     :     0.000424
      g+2     :     0.000425
      g-2     :     0.000135
      g+3     :     0.000524
      g-3     :     0.000474
      g+4     :     0.000416
      g-4     :     0.000413


                     *******************************
                     * LOEWDIN POPULATION ANALYSIS *
                     *******************************

-----------------------------------------
LOEWDIN ATOMIC CHARGES AND SPIN DENSITIES
-----------------------------------------
   0 Pr:   -0.000000    3.000000

--------------------------------------------------
LOEWDIN REDUCED ORBITAL CHARGES AND SPIN DENSITIES
--------------------------------------------------
CHARGE
  0 Prs       :     5.874789  s :     5.874789
      pz      :     3.996024  p :    11.988100
      px      :     3.996044
      py      :     3.996033
      dz2     :     2.017115  d :    10.084367
      dxz     :     2.016780
      dyz     :     2.016655
      dx2y2   :     2.017500
      dxy     :     2.016316
      f0      :     0.919865  f :     3.045218
      f+1     :     0.094922
      f-1     :     0.105465
      f+2     :     0.977430
      f-2     :     0.092785
      f+3     :     0.520651
      f-3     :     0.334100
      g0      :     0.000995  g :     0.007526
      g+1     :     0.000839
      g-1     :     0.000836
      g+2     :     0.000831
      g-2     :     0.000520
      g+3     :     0.000958
      g-3     :     0.000901
      g+4     :     0.000826
      g-4     :     0.000821

SPIN
  0 Prs       :     0.002476  s :     0.002476
      pz      :     0.003677  p :     0.011023
      px      :     0.003671
      py      :     0.003675
      dz2     :     0.004883  d :     0.023053
      dxz     :     0.004505
      dyz     :     0.004364
      dx2y2   :     0.005320
      dxy     :     0.003981
      f0      :     0.907944  f :     2.959645
      f+1     :     0.082517
      f-1     :     0.093050
      f+2     :     0.965553
      f-2     :     0.080259
      f+3     :     0.508490
      f-3     :     0.321833
      g0      :     0.000565  g :     0.003804
      g+1     :     0.000428
      g-1     :     0.000424
      g+2     :     0.000425
      g-2     :     0.000135
      g+3     :     0.000524
      g-3     :     0.000474
      g+4     :     0.000416
      g-4     :     0.000413


                      *****************************
                      * MAYER POPULATION ANALYSIS *
                      *****************************

  NA   - Mulliken gross atomic population
  ZA   - Total nuclear charge
  QA   - Mulliken gross atomic charge
  VA   - Mayer's total valence
  BVA  - Mayer's bonded valence
  FA   - Mayer's free valence

  ATOM       NA         ZA         QA         VA         BVA        FA
  0 Pr    31.0000    31.0000    -0.0000     4.3353     0.0000     4.3353





------------------------------------------------------------------------------- 
                                     TIMINGS                                   
------------------------------------------------------------------------------- 


Total execution time                   ...       39.504 sec

Fock Matrix Formation                  ...        0.791 sec (  2.0%)
Initial Guess                          ...        0.028 sec (  0.1%)
DIIS Solver                            ...        2.254 sec (  5.7%)
State Vector Update                    ...        0.095 sec (  0.2%)
Sigma-vector construction              ...       27.561 sec ( 69.8%)
  <0|H|D>                              ...        0.005 sec (  0.0% of sigma)
  <D|H|D>(0-ext Fock)                  ...        0.038 sec (  0.1% of sigma)
  <D|H|D>(0-ext)                       ...        0.189 sec (  0.7% of sigma)
  <D|H|D>(2-ext Fock)                  ...        0.011 sec (  0.0% of sigma)
  <D|H|D>(2-ext)                       ...        0.525 sec (  1.9% of sigma)
  <D|H|D>(4-ext)                       ...        5.356 sec ( 19.4% of sigma)
  <S|H|0>                              ...        1.189 sec (  4.3% of sigma)
  <S|H|S>                              ...        0.004 sec (  0.0% of sigma)
  <S|H|D>(1-ext)                       ...        0.014 sec (  0.0% of sigma)
  <D|H|S>(1-ext)                       ...        0.183 sec (  0.7% of sigma)
  Fock-dressing                        ...       14.828 sec ( 53.8% of sigma)
  (ik|jl)-dressing                     ...        0.252 sec (  0.9% of sigma)
  (ij|ab),(ia|jb)-dressing             ...        3.879 sec ( 14.1% of sigma)
  Pair energies                        ...        0.009 sec (  0.0% of sigma)
Total Time for computing (T)           ...        1.295 sec (  3.3% of ALL)
  I/O of integral and amplitudes       ...        0.233 sec ( 18.0% of (T))
  External N**7 contributions          ...        0.309 sec ( 23.8% of (T))
  Internal N**7 contributions          ...        0.163 sec ( 12.6% of (T))
  N**6 triples energy contributions    ...        0.563 sec ( 43.5% of (T))


-------------------------   --------------------
FINAL SINGLE POINT ENERGY      -516.081717922253
-------------------------   --------------------


                            ***************************************
                            *     ORCA property calculations      *
                            ***************************************

                                    ---------------------
                                    Active property flags
                                    ---------------------
   (+) Dipole Moment


------------------------------------------------------------------------------
                       ORCA ELECTRIC PROPERTIES CALCULATION
------------------------------------------------------------------------------

Dipole Moment Calculation                       ... on
Quadrupole Moment Calculation                   ... off
Polarizability Calculation                      ... off
GBWName                                         ... 59_Pr.gbw
Electron density file                           ... 59_Pr.scfp
The origin for moment calculation is the CENTER OF MASS  = ( 0.000000,  0.000000  0.000000)

-------------
DIPOLE MOMENT
-------------
                                X             Y             Z
Electronic contribution:     -0.00000       0.00000       0.00000
Nuclear contribution   :      0.00000       0.00000       0.00000
                        -----------------------------------------
Total Dipole Moment    :     -0.00000       0.00000       0.00000
                        -----------------------------------------
Magnitude (a.u.)       :      0.00000
Magnitude (Debye)      :      0.00000



--------------------
Rotational spectrum 
--------------------
 
Rotational constants in cm-1:     0.000000     0.000000     0.000000 
Rotational constants in MHz :     0.000000     0.000000     0.000000 

 Dipole components along the rotational axes: 
x,y,z [a.u.] :    -0.000000     0.000000     0.000000 
x,y,z [Debye]:    -0.000000     0.000000     0.000000 

 

                           *** MDCI DENSITY ***

------------------------------------------------------------------------------
                       ORCA ELECTRIC PROPERTIES CALCULATION
------------------------------------------------------------------------------

Dipole Moment Calculation                       ... on
Quadrupole Moment Calculation                   ... off
Polarizability Calculation                      ... off
GBWName                                         ... 59_Pr.gbw
Electron density file                           ... 59_Pr.mdcip
The origin for moment calculation is the CENTER OF MASS  = ( 0.000000,  0.000000  0.000000)

-------------
DIPOLE MOMENT
-------------
                                X             Y             Z
Electronic contribution:     -0.00000       0.00000       0.00000
Nuclear contribution   :      0.00000       0.00000       0.00000
                        -----------------------------------------
Total Dipole Moment    :     -0.00000       0.00000       0.00000
                        -----------------------------------------
Magnitude (a.u.)       :      0.00000
Magnitude (Debye)      :      0.00000



--------------------
Rotational spectrum 
--------------------
 
Rotational constants in cm-1:     0.000000     0.000000     0.000000 
Rotational constants in MHz :     0.000000     0.000000     0.000000 

 Dipole components along the rotational axes: 
x,y,z [a.u.] :    -0.000000     0.000000     0.000000 
x,y,z [Debye]:    -0.000000     0.000000     0.000000 

 

Timings for individual modules:

Sum of individual times         ...      184.605 sec (=   3.077 min)
GTO integral calculation        ...        0.997 sec (=   0.017 min)   0.5 %
SCF iterations                  ...      143.367 sec (=   2.389 min)  77.7 %
MDCI module                     ...       40.241 sec (=   0.671 min)  21.8 %
                             ****ORCA TERMINATED NORMALLY****
TOTAL RUN TIME: 0 days 0 hours 3 minutes 5 seconds 487 msec
