
                                 *****************
                                 * O   R   C   A *
                                 *****************

           --- An Ab Initio, DFT and Semiempirical electronic structure package ---

                  #######################################################
                  #                        -***-                        #
                  #          Department of theory and spectroscopy      #
                  #               Directorship: Frank Neese             #
                  #        Max Planck Institute fuer Kohlenforschung    #
                  #                Kaiser Wilhelm Platz 1               #
                  #                 D-45470 Muelheim/Ruhr               #
                  #                      Germany                        #
                  #                                                     #
                  #                  All rights reserved                #
                  #                        -***-                        #
                  #######################################################


                         Program Version 4.2.0 -  RELEASE  -


 With contributions from (in alphabetic order):
   Daniel Aravena         : Magnetic Suceptibility
   Michael Atanasov       : Ab Initio Ligand Field Theory (pilot matlab implementation)
   Alexander A. Auer      : GIAO ZORA, VPT2
   Ute Becker             : Parallelization
   Giovanni Bistoni       : ED, misc. LED, open-shell LED, HFLED
   Martin Brehm           : Molecular dynamics
   Dmytro Bykov           : SCF Hessian
   Vijay G. Chilkuri      : MRCI spin determinant printing, contributions to CSF-ICE
   Dipayan Datta          : RHF DLPNO-CCSD density
   Achintya Kumar Dutta   : EOM-CC, STEOM-CC
   Dmitry Ganyushin       : Spin-Orbit,Spin-Spin,Magnetic field MRCI
   Miquel Garcia          : C-PCM Hessian, Gaussian charge scheme
   Yang Guo               : DLPNO-NEVPT2, CIM, IAO-localization
   Andreas Hansen         : Spin unrestricted coupled pair/coupled cluster methods
   Benjamin Helmich-Paris : CASSCF linear response (MC-RPA)
   Lee Huntington         : MR-EOM, pCC
   Robert Izsak           : Overlap fitted RIJCOSX, COSX-SCS-MP3, EOM
   Christian Kollmar      : KDIIS, OOCD, Brueckner-CCSD(T), CCSD density
   Simone Kossmann        : Meta GGA functionals, TD-DFT gradient, OOMP2, MP2 Hessian
   Martin Krupicka        : AUTO-CI
   Lucas Lang             : DCDCAS
   Dagmar Lenk            : GEPOL surface, SMD
   Dimitrios Liakos       : Extrapolation schemes; Compound Job, initial MDCI parallelization
   Dimitrios Manganas     : Further ROCIS development; embedding schemes
   Dimitrios Pantazis     : SARC Basis sets
   Taras Petrenko         : DFT Hessian,TD-DFT gradient, ASA, ECA, R-Raman, ABS, FL, XAS/XES, NRVS
   Peter Pinski           : DLPNO-MP2, DLPNO-MP2 Gradient
   Christoph Reimann      : Effective Core Potentials
   Marius Retegan         : Local ZFS, SOC
   Christoph Riplinger    : Optimizer, TS searches, QM/MM, DLPNO-CCSD(T), (RO)-DLPNO pert. Triples
   Tobias Risthaus        : Range-separated hybrids, TD-DFT gradient, RPA, STAB
   Michael Roemelt        : Original ROCIS implementation
   Masaaki Saitow         : Open-shell DLPNO-CCSD energy and density
   Barbara Sandhoefer     : DKH picture change effects
   Avijit Sen             : IP-ROCIS
   Kantharuban Sivalingam : CASSCF convergence, NEVPT2, FIC-MRCI
   Bernardo de Souza      : ESD, SOC TD-DFT
   Georgi Stoychev        : AutoAux, RI-MP2 NMR
   Willem Van den Heuvel  : Paramagnetic NMR
   Boris Wezisla          : Elementary symmetry handling
   Frank Wennmohs         : Technical directorship


 We gratefully acknowledge several colleagues who have allowed us to
 interface, adapt or use parts of their codes:
   Stefan Grimme, W. Hujo, H. Kruse,             : VdW corrections, initial TS optimization,
                  C. Bannwarth                     DFT functionals, gCP, sTDA/sTD-DF
   Ed Valeev, F. Pavosevic, A. Kumar             : LibInt (2-el integral package), F12 methods
   Garnet Chan, S. Sharma, J. Yang, R. Olivares  : DMRG
   Ulf Ekstrom                                   : XCFun DFT Library
   Mihaly Kallay                                 : mrcc  (arbitrary order and MRCC methods)
   Andreas Klamt, Michael Diedenhofen            : otool_cosmo (COSMO solvation model)
   Jiri Pittner, Ondrej Demel                    : Mk-CCSD
   Frank Weinhold                                : gennbo (NPA and NBO analysis)
   Christopher J. Cramer and Donald G. Truhlar   : smd solvation model
   Lars Goerigk                                  : TD-DFT with DH, B97 family of functionals
   V. Asgeirsson, H. Jonsson                     : NEB implementation
   FAccTs GmbH                                   : IRC, NEB, NEB-TS, Multilevel, MM, QM/MM, CI optimization
   S Lehtola, MJT Oliveira, MAL Marques          : LibXC Library


 Your calculation uses the libint2 library for the computation of 2-el integrals
 For citations please refer to: http://libint.valeyev.net

 Your ORCA version has been built with support for libXC version: 4.2.3
 For citations please refer to: https://tddft.org/programs/libxc/

 This ORCA versions uses:
   CBLAS   interface :  Fast vector & matrix operations
   LAPACKE interface :  Fast linear algebra routines
   SCALAPACK package :  Parallel linear algebra routines


----- Orbital basis set information -----
Your calculation utilizes the basis: def2-SVP
   F. Weigend and R. Ahlrichs, Phys. Chem. Chem. Phys. 7, 3297 (2005).

cite the ECPs for Nd [Def2-ECP] as follows:
Ce-Yb(ecp-28): M. Dolg, H. Stoll, H.Preuss, J. Chem. Phys., 1989, 90, 1730-1734.
Y-Cd(ecp-28), Hf-Hg(ecp-46): D. Andrae,U. Haeussermann, M. Dolg, H. Stoll, H. Preuss, Theor. Chim. Acta, 1990, 77, 123-141.
In-Sb(ecp-28), Tl-Bi(ecp-46): B. Metz, H. Stoll, M. Dolg, J. Chem. Phys., 2000, 113, 2563-2569.
Te-Xe(ecp-28), Po-Rn(ecp-46): K. A. Peterson, D. Figgen, E. Goll, H. Stoll, M. Dolg, J. Chem. Phys., 2003, 119, 11113-11123.
Rb(ecp-28), Cs(ecp-46): T. Leininger, A. Nicklass, W. Kuechle, H. Stoll, M. Dolg, A. Bergner, Chem. Phys. Lett., 1996, 255, 274-280.
Sr(ecp-28), Ba(ecp-46): M. Kaupp, P. V. Schleyer, H. Stoll and H. Preuss, J. Chem. Phys., 1991, 94, 1360-1366.
La(ecp-46): M. Dolg, H. Stoll, A. Savin, H. Preuss, Theor. Chim. Acta, 1989, 75, 173-194.
Lu(ecp-28): X. Cao, M. Dolg, J. Chem. Phys., 2001, 115, 7348-7355.

ECP parameters for Nd [Def2-ECP] have been obtained from:
TURBOMOLE (7.0.2)

================================================================================
                                        WARNINGS
                       Please study these warnings very carefully!
================================================================================


WARNING: your system is open-shell and RHF/RKS was chosen
  ===> : WILL SWITCH to UHF/UKS


WARNING: MDCI localization with Augmented Hessian Foster-Boys
  ===> : Switching off randomization!

WARNING: Post HF methods need fully converged wavefunctions
  ===> : Setting SCFConvForced true
         You can overwrite this default with %scf ConvForced false 


INFO   : the flag for use of LIBINT has been found!

================================================================================
                                       INPUT FILE
================================================================================
NAME = 60_Nd.in
|  1> #
|  2> # 60_Nd CCSD(T)/Def2-SVP
|  3> #
|  4> ! CCSD(T) Def2-SVP tightscf
|  5> 
|  6> *xyz 0 5
|  7>  Nd 0.0 0.0 0.0
|  8> *
|  9> 
| 10> %maxcore 5000 
| 11> 
| 12> %pal
| 13> nprocs 24
| 14> end
| 15> 
| 16> 
| 17>                          ****END OF INPUT****
================================================================================

                       ****************************
                       * Single Point Calculation *
                       ****************************

---------------------------------
CARTESIAN COORDINATES (ANGSTROEM)
---------------------------------
  Nd     0.000000    0.000000    0.000000

----------------------------
CARTESIAN COORDINATES (A.U.)
----------------------------
  NO LB      ZA    FRAG     MASS         X           Y           Z
   0 Nd   32.0000*   0   144.240    0.000000    0.000000    0.000000
* core charge reduced due to ECP

--------------------------------
INTERNAL COORDINATES (ANGSTROEM)
--------------------------------
 Nd     0   0   0     0.000000000000     0.00000000     0.00000000

---------------------------
INTERNAL COORDINATES (A.U.)
---------------------------
 Nd     0   0   0     0.000000000000     0.00000000     0.00000000

---------------------
BASIS SET INFORMATION
---------------------
There are 1 groups of distinct atoms

 Group   1 Type Nd  : 14s12p9d7f1g contracted to 10s6p4d3f1g pattern {5111111111/531111/6111/511/1}

Atom   0Nd   basis set group =>   1
-------------------------
ECP PARAMETER INFORMATION
-------------------------

 Group 1, Type Nd ECP Def2-ECP (replacing 28 core electrons, lmax=5)

Atom   0Nd   ECP group =>   1



           ************************************************************
           *        Program running with 24 parallel MPI-processes    *
           *              working on a common directory               *
           ************************************************************
------------------------------------------------------------------------------
                           ORCA GTO INTEGRAL CALCULATION
------------------------------------------------------------------------------

                         BASIS SET STATISTICS AND STARTUP INFO

 # of primitive gaussian shells          ...   43
 # of primitive gaussian functions       ...  153
 # of contracted shells                  ...   24
 # of contracted basis functions         ...   78
 Highest angular momentum                ...    4
 Maximum contraction depth               ...    6
 Integral package used                   ... LIBINT
 Integral threshhold            Thresh   ...  2.500e-11
 Primitive cut-off              TCut     ...  2.500e-12


------------------------------ INTEGRAL EVALUATION ----------------------------


 * One electron integrals 

   ECP integrals                         ... done
 Pre-screening matrix                    ... done
 Shell pair data                         ... done (   0.000 sec)



           ************************************************************
           *        Program running with 24 parallel MPI-processes    *
           *              working on a common directory               *
           ************************************************************
-------------------------------------------------------------------------------
                                 ORCA SCF
-------------------------------------------------------------------------------

------------
SCF SETTINGS
------------
Hamiltonian:
 Ab initio Hamiltonian  Method          .... Hartree-Fock(GTOs)


General Settings:
 Integral files         IntName         .... 60_Nd
 Hartree-Fock type      HFTyp           .... UHF
 Total Charge           Charge          ....    0
 Multiplicity           Mult            ....    5
 Number of Electrons    NEL             ....   32
 Basis Dimension        Dim             ....   78
 Nuclear Repulsion      ENuc            ....      0.0000000000 Eh

Convergence Acceleration:
 DIIS                   CNVDIIS         .... on
   Start iteration      DIISMaxIt       ....    12
   Startup error        DIISStart       ....  0.200000
   # of expansion vecs  DIISMaxEq       ....     5
   Bias factor          DIISBfac        ....   1.050
   Max. coefficient     DIISMaxC        ....  10.000
 Newton-Raphson         CNVNR           .... off
 SOSCF                  CNVSOSCF        .... off
 Level Shifting         CNVShift        .... on
   Level shift para.    LevelShift      ....    0.2500
   Turn off err/grad.   ShiftErr        ....    0.0010
 Zerner damping         CNVZerner       .... off
 Static damping         CNVDamp         .... on
   Fraction old density DampFac         ....    0.7000
   Max. Damping (<1)    DampMax         ....    0.9800
   Min. Damping (>=0)   DampMin         ....    0.0000
   Turn off err/grad.   DampErr         ....    0.1000
 Fernandez-Rico         CNVRico         .... off

SCF Procedure:
 Maximum # iterations   MaxIter         ....   125
 SCF integral mode      SCFMode         .... Direct
   Integral package                     .... LIBINT
 Reset frequency        DirectResetFreq ....    20
 Integral Threshold     Thresh          ....  2.500e-11 Eh
 Primitive CutOff       TCut            ....  2.500e-12 Eh

Convergence Tolerance:
 Convergence Check Mode ConvCheckMode   .... Total+1el-Energy
 Convergence forced     ConvForced      .... 1
 Energy Change          TolE            ....  1.000e-08 Eh
 1-El. energy change                    ....  1.000e-05 Eh
 DIIS Error             TolErr          ....  5.000e-07


Diagonalization of the overlap matrix:
Smallest eigenvalue                        ... 1.295e-03
Time for diagonalization                   ...    0.002 sec
Threshold for overlap eigenvalues          ... 1.000e-08
Number of eigenvalues below threshold      ... 0
Time for construction of square roots      ...    0.011 sec
Total time needed                          ...    0.013 sec

-------------------
DFT GRID GENERATION
-------------------

General Integration Accuracy     IntAcc      ...  4.340
Radial Grid Type                 RadialGrid  ... Gauss-Chebyshev
Angular Grid (max. acc.)         AngularGrid ... Lebedev-110
Angular grid pruning method      GridPruning ... 3 (G Style)
Weight generation scheme         WeightScheme... Becke
Basis function cutoff            BFCut       ...    1.0000e-11
Integration weight cutoff        WCut        ...    1.0000e-14
Grids for H and He will be reduced by one unit

# of grid points (after initial pruning)     ...   3552 (   0.0 sec)
# of grid points (after weights+screening)   ...   3552 (   0.0 sec)
Grid point division into batches done        ...    0.0 sec
Reduced shell lists constructed in    0.0 sec

Total number of grid points                  ...     3552
Total number of batches                      ...       56
Average number of points per batch           ...       63
Average number of grid points per atom       ...     3552
Average number of shells per batch           ...     3.75 (15.62%)
Average number of basis functions per batch  ...     9.75 (12.50%)
Average number of large shells per batch     ...     2.50 (66.67%)
Average number of large basis fcns per batch ...     5.00 (51.28%)
Maximum spatial batch extension              ...  24.96, 38.92, 38.92 au
Average spatial batch extension              ...   1.30,  1.85,  2.08 au

Time for grid setup =    0.046 sec

------------------------------
INITIAL GUESS: MODEL POTENTIAL
------------------------------
Loading Hartree-Fock densities                     ... done
  calling /sw/apps/orca/orca_4_2_0_linux_x86-64_openmpi314/orca 60_Nd_atom60.inp > 60_Nd_atom60.out in order to generate an atomic fitting density for atom 0 (Nd with ECP) on-the-fly... 
    atom 0 (Nd), assumed electronic state with S=5: 1s2 2s2 2p6 3s2 3p6 4s2 3d10 4p6 5s2 4d10 5p6 6s2 4f4           ... done
Calculating cut-offs                               ... done
Setting up the integral package                    ... done
Initializing the effective Hamiltonian             ... done
Starting the Coulomb interaction                   ... done (   0.0 sec)
Reading the grid                                   ... done
Mapping shells                                     ... done
Starting the XC term evaluation                    ... done (   0.0 sec)
Transforming the Hamiltonian                       ... done (   0.0 sec)
Diagonalizing the Hamiltonian                      ... done (   0.0 sec)
Back transforming the eigenvectors                 ... done (   0.0 sec)
Now organizing SCF variables                       ... done
                      ------------------
                      INITIAL GUESS DONE (  14.5 sec)
                      ------------------
--------------
SCF ITERATIONS
--------------
ITER       Energy         Delta-E        Max-DP      RMS-DP      [F,P]     Damp
               ***  Starting incremental Fock matrix formation  ***
  0   -559.5000413651   0.000000000000 0.07823103  0.00195077  0.7023601 0.7000
  1   -559.5386835626  -0.038642197559 0.06488639  0.00156530  0.4700497 0.7000
  2   -559.5625718189  -0.023888256305 0.06534778  0.00125695  0.3167263 0.7000
  3   -559.5789669260  -0.016395107019 0.05897065  0.00103187  0.2160971 0.7000
                               ***Turning on DIIS***
  4   -559.5906995281  -0.011732602110 0.05104493  0.00085492  0.1489127 0.7000
  5   -559.7128322360  -0.122132707964 0.04769810  0.00078328  0.1033673 0.7000
  6   -559.6863981759   0.026434060105 0.14287143  0.00233180  0.0731424 0.0000
  7   -559.6234044490   0.062993726957 0.02660727  0.00044633  0.0134239 0.0000
  8   -559.6519479218  -0.028543472869 0.02238001  0.00041483  0.0123768 0.0000
  9   -559.6662329485  -0.014285026618 0.02378501  0.00063144  0.0107181 0.0000
 10   -559.6461830532   0.020049895295 0.01555566  0.00036646  0.0068033 0.0000
 11   -559.6369224037   0.009260649451 0.01929190  0.00042903  0.0048989 0.0000
 12   -559.6202526303   0.016669773431 0.00767712  0.00017474  0.0025163 0.0000
 13   -559.6312416550  -0.010989024702 0.00701811  0.00015776  0.0013505 0.0000
 14   -559.6309616482   0.000280006783 0.00193319  0.00004723  0.0008452 0.0000
 15   -559.6280135677   0.002948080495 0.00033700  0.00001073  0.0001193 0.0000
 16   -559.6283786876  -0.000365119896 0.00026283  0.00000493  0.0000981 0.0000
 17   -559.6283464711   0.000032216491 0.00019143  0.00000348  0.0000949 0.0000
 18   -559.6283748448  -0.000028373734 0.00022596  0.00000446  0.0000911 0.0000
 19   -559.6283489791   0.000025865761 0.00038094  0.00000824  0.0000855 0.0000
               *** Restarting incremental Fock matrix formation ***
                                   *** Resetting DIIS ***
 20   -559.6283504701  -0.000001491050 0.00004469  0.00000114  0.0000736 0.0000
 21   -559.6283327293   0.000017740848 0.00006106  0.00000144  0.0000718 0.0000
 22   -559.6283603792  -0.000027649882 0.00015669  0.00000358  0.0000694 0.0000
 23   -559.6282695832   0.000090795984 0.00047199  0.00001051  0.0000634 0.0000
 24   -559.6283985497  -0.000128966513 0.00062810  0.00001367  0.0000475 0.0000
 25   -559.6283567196   0.000041830049 0.00024906  0.00000534  0.0000294 0.0000
 26   -559.6283385845   0.000018135191 0.00018502  0.00000417  0.0000217 0.0000
 27   -559.6283677066  -0.000029122150 0.00016298  0.00000386  0.0000190 0.0000
 28   -559.6283468251   0.000020881516 0.00012812  0.00000260  0.0000161 0.0000
 29   -559.6283495577  -0.000002732625 0.00009454  0.00000202  0.0000119 0.0000
 30   -559.6283487638   0.000000793884 0.00003765  0.00000103  0.0000070 0.0000
 31   -559.6283510201  -0.000002256295 0.00003458  0.00000058  0.0000044 0.0000
 32   -559.6283520838  -0.000001063720 0.00004103  0.00000070  0.0000030 0.0000
 33   -559.6283512931   0.000000790797 0.00004020  0.00000071  0.0000029 0.0000
 34   -559.6283518905  -0.000000597441 0.00002893  0.00000052  0.0000027 0.0000
 35   -559.6283509658   0.000000924691 0.00001897  0.00000035  0.0000025 0.0000
 36   -559.6283520039  -0.000001038055 0.00001036  0.00000022  0.0000023 0.0000
 37   -559.6283508174   0.000001186494 0.00000550  0.00000015  0.0000021 0.0000
 38   -559.6283521448  -0.000001327416 0.00000634  0.00000016  0.0000019 0.0000
 39   -559.6283511411   0.000001003720 0.00000554  0.00000016  0.0000018 0.0000
               *** Restarting incremental Fock matrix formation ***
                                   *** Resetting DIIS ***
 40   -559.6283515438  -0.000000402712 0.00000542  0.00000010  0.0000018 0.0000
 41   -559.6283515032   0.000000040583 0.00000444  0.00000009  0.0000018 0.0000
                 **** Energy Check signals convergence ****

               *****************************************************
               *                     SUCCESS                       *
               *           SCF CONVERGED AFTER  42 CYCLES          *
               *****************************************************


----------------
TOTAL SCF ENERGY
----------------

Total Energy       :         -559.62835150 Eh          -15228.26163 eV

Components:
Nuclear Repulsion  :            0.00000000 Eh               0.00000 eV
Electronic Energy  :         -559.62835150 Eh          -15228.26163 eV
One Electron Energy:         -975.07623106 Eh          -26533.17317 eV
Two Electron Energy:          415.44787956 Eh           11304.91153 eV

Virial components:
Potential Energy   :         -804.97034117 Eh          -21904.35658 eV
Kinetic Energy     :          245.34198967 Eh            6676.09494 eV
Virial Ratio       :            3.28101334


---------------
SCF CONVERGENCE
---------------

  Last Energy change         ...    2.9643e-09  Tolerance :   1.0000e-08
  Last MAX-Density change    ...    4.3324e-06  Tolerance :   1.0000e-07
  Last RMS-Density change    ...    8.5695e-08  Tolerance :   5.0000e-09
  Last DIIS Error            ...    1.8542e-06  Tolerance :   5.0000e-07

             **** THE GBW FILE WAS UPDATED (60_Nd.gbw) ****
             **** DENSITY FILE WAS UPDATED (60_Nd.scfp) ****
             **** ENERGY FILE WAS UPDATED (60_Nd.en.tmp) ****
----------------------
UHF SPIN CONTAMINATION
----------------------

Expectation value of <S**2>     :     6.004695
Ideal value S*(S+1) for S=2.0   :     6.000000
Deviation                       :     0.004695

             **** THE GBW FILE WAS UPDATED (60_Nd.gbw) ****
             **** DENSITY FILE WAS UPDATED (60_Nd.scfp) ****
----------------
ORBITAL ENERGIES
----------------
                 SPIN UP ORBITALS
  NO   OCC          E(Eh)            E(eV) 
   0   1.0000     -13.185288      -358.7899 
   1   1.0000      -9.548296      -259.8224 
   2   1.0000      -9.548295      -259.8223 
   3   1.0000      -9.548294      -259.8223 
   4   1.0000      -5.165203      -140.5523 
   5   1.0000      -5.165203      -140.5523 
   6   1.0000      -5.121150      -139.3536 
   7   1.0000      -5.121142      -139.3534 
   8   1.0000      -5.121128      -139.3530 
   9   1.0000      -1.928721       -52.4832 
  10   1.0000      -1.043932       -28.4068 
  11   1.0000      -1.043931       -28.4068 
  12   1.0000      -1.043930       -28.4068 
  13   1.0000      -0.467010       -12.7080 
  14   1.0000      -0.423335       -11.5195 
  15   1.0000      -0.423327       -11.5193 
  16   1.0000      -0.423322       -11.5192 
  17   1.0000      -0.177423        -4.8279 
  18   0.0000       0.030567         0.8318 
  19   0.0000       0.030567         0.8318 
  20   0.0000       0.030567         0.8318 
  21   0.0000       0.095664         2.6032 
  22   0.0000       0.122765         3.3406 
  23   0.0000       0.122766         3.3406 
  24   0.0000       0.125275         3.4089 
  25   0.0000       0.125276         3.4089 
  26   0.0000       0.125277         3.4089 
  27   0.0000       0.463733        12.6188 
  28   0.0000       0.463734        12.6188 
  29   0.0000       0.463735        12.6189 
  30   0.0000       0.580212        15.7884 
  31   0.0000       0.580212        15.7884 
  32   0.0000       0.580213        15.7884 
  33   0.0000       1.102789        30.0084 
  34   0.0000       1.110676        30.2230 
  35   0.0000       1.110677        30.2231 
  36   0.0000       1.110678        30.2231 
  37   0.0000       1.115865        30.3642 
  38   0.0000       1.224165        33.3112 
  39   0.0000       1.224166        33.3112 
  40   0.0000       1.224167        33.3113 
  41   0.0000       1.262168        34.3453 
  42   0.0000       1.262168        34.3454 
  43   0.0000       1.266976        34.4762 
  44   0.0000       1.266976        34.4762 
  45   0.0000       1.266977        34.4762 
  46   0.0000       1.753443        47.7136 
  47   0.0000       1.762768        47.9674 
  48   0.0000       1.762769        47.9674 
  49   0.0000       1.762770        47.9674 
  50   0.0000       1.763961        47.9998 
  51   0.0000       1.763962        47.9998 
  52   0.0000       1.763962        47.9999 
  53   0.0000       1.769820        48.1592 
  54   0.0000       1.769820        48.1593 
  55   0.0000       3.220775        87.6418 
  56   0.0000       3.220777        87.6418 
  57   0.0000       3.220778        87.6418 
  58   0.0000       4.011254       109.1518 
  59   0.0000       4.028040       109.6086 
  60   0.0000       4.028043       109.6086 
  61   0.0000       4.028045       109.6087 
  62   0.0000       4.145034       112.7921 
  63   0.0000       4.145035       112.7921 
  64   0.0000       4.145037       112.7922 
  65   0.0000       7.064489       192.2345 
  66   0.0000       7.086488       192.8331 
  67   0.0000       7.086488       192.8331 
  68   0.0000       7.089135       192.9052 
  69   0.0000       7.089135       192.9052 
  70   0.0000       7.089136       192.9052 
  71   0.0000      40.292749      1096.4214 
  72   0.0000      40.292752      1096.4215 
  73   0.0000      40.292753      1096.4216 
  74   0.0000      57.937389      1576.5565 
  75   0.0000      67.826051      1845.6407 
  76   0.0000     217.571628      5920.4250 
  77   0.0000     468.118144     12738.1423 

                 SPIN DOWN ORBITALS
  NO   OCC          E(Eh)            E(eV) 
   0   1.0000     -12.951385      -352.4251 
   1   1.0000      -9.284993      -252.6575 
   2   1.0000      -9.284986      -252.6573 
   3   1.0000      -9.284982      -252.6572 
   4   1.0000      -4.800667      -130.6328 
   5   1.0000      -4.800658      -130.6326 
   6   1.0000      -4.800653      -130.6324 
   7   1.0000      -4.782792      -130.1464 
   8   1.0000      -4.782792      -130.1464 
   9   1.0000      -1.829873       -49.7934 
  10   1.0000      -0.968404       -26.3516 
  11   1.0000      -0.968401       -26.3515 
  12   1.0000      -0.968399       -26.3515 
  13   1.0000      -0.172559        -4.6956 
  14   0.0000       0.032157         0.8750 
  15   0.0000       0.032158         0.8751 
  16   0.0000       0.032158         0.8751 
  17   0.0000       0.099014         2.6943 
  18   0.0000       0.144181         3.9234 
  19   0.0000       0.144182         3.9234 
  20   0.0000       0.144183         3.9234 
  21   0.0000       0.146567         3.9883 
  22   0.0000       0.146569         3.9883 
  23   0.0000       0.537817        14.6347 
  24   0.0000       0.537818        14.6348 
  25   0.0000       0.537820        14.6348 
  26   0.0000       0.553074        15.0499 
  27   0.0000       0.557617        15.1735 
  28   0.0000       0.557618        15.1736 
  29   0.0000       0.557618        15.1736 
  30   0.0000       0.602094        16.3838 
  31   0.0000       0.602096        16.3839 
  32   0.0000       0.602097        16.3839 
  33   0.0000       1.147334        31.2205 
  34   0.0000       1.260298        34.2944 
  35   0.0000       1.260299        34.2945 
  36   0.0000       1.260300        34.2945 
  37   0.0000       1.270461        34.5710 
  38   0.0000       1.273528        34.6544 
  39   0.0000       1.273528        34.6545 
  40   0.0000       1.273528        34.6545 
  41   0.0000       1.333265        36.2800 
  42   0.0000       1.333268        36.2801 
  43   0.0000       1.333270        36.2801 
  44   0.0000       1.340519        36.4774 
  45   0.0000       1.340520        36.4774 
  46   0.0000       1.781242        48.4701 
  47   0.0000       1.781242        48.4701 
  48   0.0000       1.782346        48.5001 
  49   0.0000       1.782346        48.5001 
  50   0.0000       1.782346        48.5001 
  51   0.0000       1.783402        48.5288 
  52   0.0000       1.783402        48.5288 
  53   0.0000       1.783403        48.5289 
  54   0.0000       1.786463        48.6121 
  55   0.0000       3.284228        89.3684 
  56   0.0000       3.284232        89.3685 
  57   0.0000       3.284233        89.3685 
  58   0.0000       4.195649       114.1694 
  59   0.0000       4.195651       114.1695 
  60   0.0000       4.195653       114.1695 
  61   0.0000       4.210713       114.5793 
  62   0.0000       4.215261       114.7031 
  63   0.0000       4.215261       114.7031 
  64   0.0000       4.215262       114.7031 
  65   0.0000       7.139980       194.2887 
  66   0.0000       7.179688       195.3693 
  67   0.0000       7.179694       195.3694 
  68   0.0000       7.179698       195.3695 
  69   0.0000       7.191857       195.7004 
  70   0.0000       7.191857       195.7004 
  71   0.0000      40.361820      1098.3010 
  72   0.0000      40.361824      1098.3011 
  73   0.0000      40.361826      1098.3011 
  74   0.0000      58.004376      1578.3793 
  75   0.0000      67.828023      1845.6943 
  76   0.0000     217.590752      5920.9454 
  77   0.0000     468.124670     12738.3199 

                    ********************************
                    * MULLIKEN POPULATION ANALYSIS *
                    ********************************

--------------------------------------------
MULLIKEN ATOMIC CHARGES AND SPIN POPULATIONS
--------------------------------------------
   0 Nd:   -0.000000    4.000000
Sum of atomic charges         :   -0.0000000
Sum of atomic spin populations:    4.0000000

-----------------------------------------------------
MULLIKEN REDUCED ORBITAL CHARGES AND SPIN POPULATIONS
-----------------------------------------------------
CHARGE
  0 Nds       :     5.999999  s :     5.999999
      pz      :     4.000000  p :    11.999999
      px      :     4.000000
      py      :     4.000000
      dz2     :     1.999988  d :     9.999938
      dxz     :     1.999987
      dyz     :     1.999987
      dx2y2   :     1.999987
      dxy     :     1.999988
      f0      :     0.999946  f :     4.000001
      f+1     :     0.375068
      f-1     :     0.374991
      f+2     :     0.999944
      f-2     :     0.000051
      f+3     :     0.625041
      f-3     :     0.624960
      g0      :     0.000006  g :     0.000063
      g+1     :     0.000002
      g-1     :     0.000002
      g+2     :     0.000013
      g-2     :     0.000012
      g+3     :     0.000011
      g-3     :     0.000011
      g+4     :     0.000008
      g-4     :     0.000000

SPIN
  0 Nds       :     0.000001  s :     0.000001
      pz      :     0.000012  p :     0.000036
      px      :     0.000012
      py      :     0.000012
      dz2     :    -0.000012  d :    -0.000062
      dxz     :    -0.000013
      dyz     :    -0.000013
      dx2y2   :    -0.000013
      dxy     :    -0.000012
      f0      :     0.999934  f :     3.999964
      f+1     :     0.375063
      f-1     :     0.374987
      f+2     :     0.999944
      f-2     :     0.000051
      f+3     :     0.625033
      f-3     :     0.624952
      g0      :     0.000005  g :     0.000061
      g+1     :     0.000002
      g-1     :     0.000002
      g+2     :     0.000013
      g-2     :     0.000012
      g+3     :     0.000011
      g-3     :     0.000011
      g+4     :     0.000007
      g-4     :     0.000000


                     *******************************
                     * LOEWDIN POPULATION ANALYSIS *
                     *******************************

-------------------------------------------
LOEWDIN ATOMIC CHARGES AND SPIN POPULATIONS
-------------------------------------------
   0 Nd:   -0.000000    4.000000

----------------------------------------------------
LOEWDIN REDUCED ORBITAL CHARGES AND SPIN POPULATIONS
----------------------------------------------------
CHARGE
  0 Nds       :     5.999999  s :     5.999999
      pz      :     4.000000  p :    11.999999
      px      :     4.000000
      py      :     4.000000
      dz2     :     1.999988  d :     9.999938
      dxz     :     1.999987
      dyz     :     1.999987
      dx2y2   :     1.999987
      dxy     :     1.999988
      f0      :     0.999946  f :     4.000001
      f+1     :     0.375068
      f-1     :     0.374991
      f+2     :     0.999944
      f-2     :     0.000051
      f+3     :     0.625041
      f-3     :     0.624960
      g0      :     0.000006  g :     0.000063
      g+1     :     0.000002
      g-1     :     0.000002
      g+2     :     0.000013
      g-2     :     0.000012
      g+3     :     0.000011
      g-3     :     0.000011
      g+4     :     0.000008
      g-4     :     0.000000

SPIN
  0 Nds       :     0.000001  s :     0.000001
      pz      :     0.000012  p :     0.000036
      px      :     0.000012
      py      :     0.000012
      dz2     :    -0.000012  d :    -0.000062
      dxz     :    -0.000013
      dyz     :    -0.000013
      dx2y2   :    -0.000013
      dxy     :    -0.000012
      f0      :     0.999934  f :     3.999964
      f+1     :     0.375063
      f-1     :     0.374987
      f+2     :     0.999944
      f-2     :     0.000051
      f+3     :     0.625033
      f-3     :     0.624952
      g0      :     0.000005  g :     0.000061
      g+1     :     0.000002
      g-1     :     0.000002
      g+2     :     0.000013
      g-2     :     0.000012
      g+3     :     0.000011
      g-3     :     0.000011
      g+4     :     0.000007
      g-4     :     0.000000


                      *****************************
                      * MAYER POPULATION ANALYSIS *
                      *****************************

  NA   - Mulliken gross atomic population
  ZA   - Total nuclear charge
  QA   - Mulliken gross atomic charge
  VA   - Mayer's total valence
  BVA  - Mayer's bonded valence
  FA   - Mayer's free valence

  ATOM       NA         ZA         QA         VA         BVA        FA
  0 Nd    32.0000    32.0000    -0.0000     4.0094     0.0000     4.0094

  Mayer bond orders larger than 0.100000


-------
TIMINGS
-------

Total SCF time: 0 days 0 hours 0 min 36 sec 

Total time                  ....      36.357 sec
Sum of individual times     ....      35.459 sec  ( 97.5%)

Fock matrix formation       ....      10.161 sec  ( 27.9%)
Diagonalization             ....       0.241 sec  (  0.7%)
Density matrix formation    ....       0.019 sec  (  0.1%)
Population analysis         ....       0.049 sec  (  0.1%)
Initial guess               ....      14.417 sec  ( 39.7%)
Orbital Transformation      ....       0.000 sec  (  0.0%)
Orbital Orthonormalization  ....       0.000 sec  (  0.0%)
DIIS solution               ....      10.525 sec  ( 28.9%)


           ************************************************************
           *        Program running with 24 parallel MPI-processes    *
           *              working on a common directory               *
           ************************************************************


------------------------------------------------------------------------------- 
                              ORCA-MATRIX DRIVEN CI                            
------------------------------------------------------------------------------- 

--------------------------------
AUTOMATIC CHOICE OF INCORE LEVEL
--------------------------------

Memory available                           ...   2500.00 MB
Memory needed for S+T                      ...      8.65 MB
Memory needed for J+K                      ...     17.40 MB
Memory needed for DIIS                     ...    121.12 MB
Memory needed for 3-ext                    ...     23.07 MB
Memory needed for 4-ext                    ...     50.26 MB
Memory needed for triples                  ...      8.24 MB
 -> Final InCoreLevel    ... 5
 -> check shows that triples correction can be computed


Wavefunction type
-----------------
Correlation treatment                      ...      CCSD     
Single excitations                         ... ON
Orbital optimization                       ... OFF
Calculation of Z vector                    ... OFF
Calculation of Brueckner orbitals          ... OFF
Perturbative triple excitations            ... ON
Calculation of F12 correction              ... OFF
Frozen core treatment                      ... chemical core (8 el)
Reference Wavefunction                     ... UHF
  Alpha-MOs occ    :     4 ...   17 ( 14 MO's/ 14 electrons)
  Beta-MOs occ     :     4 ...   13 ( 10 MO's/ 10 electrons)
  Alpha-MOs virt   :    18 ...   77 ( 60 MO's              )
  Beta-MOs virt    :    14 ...   77 ( 64 MO's              )
Number of AO's                             ...     78
Number of electrons                        ...     32
Number of correlated electrons             ...     24

Algorithmic settings
--------------------
Integral transformation                    ... AO direct full transformation
K(C) Formation                             ... FULL-MO TRAFO
Maximum number of iterations               ...        50
Convergence tolerance (max. residuum)      ... 1.000e-05
Level shift for amplitude update           ... 2.000e-01
Maximum number of DIIS vectors             ...         7
DIIS turned on at iteration                ...         0
Damping before turning on DIIS             ...     0.500
Damping after turning on DIIS              ...     0.000
Pair specific amplitude update             ... OFF
Natural orbital iterations                 ... OFF
Perturbative natural orbital generation    ... OFF
Printlevel                                 ... 2

Memory handling:
----------------
Maximum memory for working arrays          ...   2500 MB
Data storage in matrix containers          ... UNCOMPRESSED
Data type for integral storage             ... DOUBLE
In-Core Storage of quantities:
   Amplitudes+Sigma Vector      ... YES
   J+K operators                ... YES
   DIIS vectors                 ... YES
   3-external integrals         ... YES
   4-external integrals         ... YES


Initializing the integral package          ... done
Warning: reference  - re-canonicalizations have been set to INT 1 VIRT 1

--------------------------
UNRESTRICTED FOCK OPERATOR
--------------------------

<ss|ss>:         1540 b            0 skpd (  0.0%)    0.000 s ( 0.000 ms/b)
<ss|sp>:         3300 b            0 skpd (  0.0%)    0.000 s ( 0.000 ms/b)
<ss|sd>:         2200 b            0 skpd (  0.0%)    0.000 s ( 0.000 ms/b)
<ss|sf>:         1650 b            1 skpd (  0.1%)    0.000 s ( 0.000 ms/b)
<ss|sg>:          550 b            2 skpd (  0.4%)    0.000 s ( 0.000 ms/b)
<ss|pp>:         1155 b            0 skpd (  0.0%)    0.000 s ( 0.000 ms/b)
<ss|pd>:         1320 b            0 skpd (  0.0%)    0.001 s ( 0.001 ms/b)
<ss|pf>:          990 b            0 skpd (  0.0%)    0.001 s ( 0.001 ms/b)
<ss|pg>:          330 b            0 skpd (  0.0%)    0.000 s ( 0.001 ms/b)
<ss|dd>:          550 b            0 skpd (  0.0%)    0.001 s ( 0.002 ms/b)
<ss|df>:          660 b            0 skpd (  0.0%)    0.001 s ( 0.002 ms/b)
<ss|dg>:          220 b            0 skpd (  0.0%)    0.001 s ( 0.002 ms/b)
<ss|ff>:          330 b            0 skpd (  0.0%)    0.002 s ( 0.005 ms/b)
<ss|fg>:          165 b            0 skpd (  0.0%)    0.001 s ( 0.004 ms/b)
<ss|gg>:           55 b            0 skpd (  0.0%)    0.000 s ( 0.007 ms/b)
<sp|sp>:         1830 b            1 skpd (  0.1%)    0.000 s ( 0.000 ms/b)
<sp|sd>:         2400 b            8 skpd (  0.3%)    0.001 s ( 0.000 ms/b)
<sp|sf>:         1800 b            8 skpd (  0.4%)    0.001 s ( 0.000 ms/b)
<sp|sg>:          600 b           26 skpd (  4.3%)    0.000 s ( 0.000 ms/b)
<sp|pp>:         1260 b            0 skpd (  0.0%)    0.001 s ( 0.001 ms/b)
<sp|pd>:         1440 b            0 skpd (  0.0%)    0.002 s ( 0.001 ms/b)
<sp|pf>:         1080 b            0 skpd (  0.0%)    0.003 s ( 0.003 ms/b)
<sp|pg>:          360 b            0 skpd (  0.0%)    0.001 s ( 0.002 ms/b)
<sp|dd>:          600 b            0 skpd (  0.0%)    0.003 s ( 0.005 ms/b)
<sp|df>:          720 b            0 skpd (  0.0%)    0.004 s ( 0.005 ms/b)
<sp|dg>:          240 b            0 skpd (  0.0%)    0.002 s ( 0.007 ms/b)
<sp|ff>:          360 b            0 skpd (  0.0%)    0.005 s ( 0.014 ms/b)
<sp|fg>:          180 b            0 skpd (  0.0%)    0.002 s ( 0.011 ms/b)
<sp|gg>:           60 b            0 skpd (  0.0%)    0.001 s ( 0.020 ms/b)
<sd|sd>:          820 b            4 skpd (  0.5%)    0.001 s ( 0.001 ms/b)
<sd|sf>:         1200 b           15 skpd (  1.2%)    0.001 s ( 0.001 ms/b)
<sd|sg>:          400 b           23 skpd (  5.8%)    0.000 s ( 0.001 ms/b)
<sd|pp>:          840 b            0 skpd (  0.0%)    0.001 s ( 0.002 ms/b)
<sd|pd>:          960 b           10 skpd (  1.0%)    0.003 s ( 0.003 ms/b)
<sd|pf>:          720 b            0 skpd (  0.0%)    0.004 s ( 0.005 ms/b)
<sd|pg>:          240 b            6 skpd (  2.5%)    0.001 s ( 0.005 ms/b)
<sd|dd>:          400 b            0 skpd (  0.0%)    0.005 s ( 0.013 ms/b)
<sd|df>:          480 b            5 skpd (  1.0%)    0.008 s ( 0.016 ms/b)
<sd|dg>:          160 b            1 skpd (  0.6%)    0.003 s ( 0.017 ms/b)
<sd|ff>:          240 b            0 skpd (  0.0%)    0.011 s ( 0.045 ms/b)
<sd|fg>:          120 b            2 skpd (  1.7%)    0.004 s ( 0.031 ms/b)
<sd|gg>:           40 b            0 skpd (  0.0%)    0.002 s ( 0.048 ms/b)
<sf|sf>:          465 b            4 skpd (  0.9%)    0.001 s ( 0.002 ms/b)
<sf|sg>:          300 b           23 skpd (  7.7%)    0.000 s ( 0.001 ms/b)
<sf|pp>:          630 b            0 skpd (  0.0%)    0.002 s ( 0.003 ms/b)
<sf|pd>:          720 b            3 skpd (  0.4%)    0.004 s ( 0.006 ms/b)
<sf|pf>:          540 b            0 skpd (  0.0%)    0.006 s ( 0.011 ms/b)
<sf|pg>:          180 b            2 skpd (  1.1%)    0.002 s ( 0.012 ms/b)
<sf|dd>:          300 b            1 skpd (  0.3%)    0.009 s ( 0.030 ms/b)
<sf|df>:          360 b            0 skpd (  0.0%)    0.014 s ( 0.039 ms/b)
<sf|dg>:          120 b            1 skpd (  0.8%)    0.004 s ( 0.034 ms/b)
<sf|ff>:          180 b            0 skpd (  0.0%)    0.021 s ( 0.115 ms/b)
<sf|fg>:           90 b            0 skpd (  0.0%)    0.007 s ( 0.077 ms/b)
<sf|gg>:           30 b            0 skpd (  0.0%)    0.003 s ( 0.097 ms/b)
<sg|sg>:           55 b           10 skpd ( 18.2%)    0.000 s ( 0.003 ms/b)
<sg|pp>:          210 b            2 skpd (  1.0%)    0.000 s ( 0.002 ms/b)
<sg|pd>:          240 b           14 skpd (  5.8%)    0.001 s ( 0.005 ms/b)
<sg|pf>:          180 b            9 skpd (  5.0%)    0.001 s ( 0.008 ms/b)
<sg|pg>:           60 b           10 skpd ( 16.7%)    0.000 s ( 0.010 ms/b)
<sg|dd>:          100 b            3 skpd (  3.0%)    0.003 s ( 0.027 ms/b)
<sg|df>:          120 b            8 skpd (  6.7%)    0.004 s ( 0.038 ms/b)
<sg|dg>:           40 b            4 skpd ( 10.0%)    0.001 s ( 0.026 ms/b)
<sg|ff>:           60 b            0 skpd (  0.0%)    0.006 s ( 0.104 ms/b)
<sg|fg>:           30 b            4 skpd ( 13.3%)    0.001 s ( 0.056 ms/b)
<sg|gg>:           10 b            1 skpd ( 10.0%)    0.001 s ( 0.094 ms/b)
<pp|pp>:          231 b            0 skpd (  0.0%)    0.001 s ( 0.003 ms/b)
<pp|pd>:          504 b            0 skpd (  0.0%)    0.001 s ( 0.003 ms/b)
<pp|pf>:          378 b            0 skpd (  0.0%)    0.002 s ( 0.005 ms/b)
<pp|pg>:          126 b            0 skpd (  0.0%)    0.001 s ( 0.008 ms/b)
<pp|dd>:          210 b            0 skpd (  0.0%)    0.004 s ( 0.019 ms/b)
<pp|df>:          252 b            0 skpd (  0.0%)    0.006 s ( 0.023 ms/b)
<pp|dg>:           84 b            0 skpd (  0.0%)    0.002 s ( 0.021 ms/b)
<pp|ff>:          126 b            0 skpd (  0.0%)    0.008 s ( 0.065 ms/b)
<pp|fg>:           63 b            0 skpd (  0.0%)    0.003 s ( 0.047 ms/b)
<pp|gg>:           21 b            0 skpd (  0.0%)    0.001 s ( 0.071 ms/b)
<pd|pd>:          300 b            0 skpd (  0.0%)    0.003 s ( 0.011 ms/b)
<pd|pf>:          432 b            0 skpd (  0.0%)    0.005 s ( 0.012 ms/b)
<pd|pg>:          144 b            0 skpd (  0.0%)    0.003 s ( 0.019 ms/b)
<pd|dd>:          240 b            0 skpd (  0.0%)    0.010 s ( 0.044 ms/b)
<pd|df>:          288 b            0 skpd (  0.0%)    0.016 s ( 0.057 ms/b)
<pd|dg>:           96 b            0 skpd (  0.0%)    0.005 s ( 0.050 ms/b)
<pd|ff>:          144 b            0 skpd (  0.0%)    0.024 s ( 0.167 ms/b)
<pd|fg>:           72 b            0 skpd (  0.0%)    0.008 s ( 0.116 ms/b)
<pd|gg>:           24 b            0 skpd (  0.0%)    0.004 s ( 0.156 ms/b)
<pf|pf>:          171 b            0 skpd (  0.0%)    0.007 s ( 0.039 ms/b)
<pf|pg>:          108 b            0 skpd (  0.0%)    0.004 s ( 0.039 ms/b)
<pf|dd>:          180 b            0 skpd (  0.0%)    0.014 s ( 0.080 ms/b)
<pf|df>:          216 b            0 skpd (  0.0%)    0.022 s ( 0.104 ms/b)
<pf|dg>:           72 b            0 skpd (  0.0%)    0.008 s ( 0.105 ms/b)
<pf|ff>:          108 b            0 skpd (  0.0%)    0.031 s ( 0.291 ms/b)
<pf|fg>:           54 b            0 skpd (  0.0%)    0.013 s ( 0.234 ms/b)
<pf|gg>:           18 b            0 skpd (  0.0%)    0.004 s ( 0.241 ms/b)
<pg|pg>:           21 b            0 skpd (  0.0%)    0.001 s ( 0.038 ms/b)
<pg|dd>:           60 b            0 skpd (  0.0%)    0.004 s ( 0.064 ms/b)
<pg|df>:           72 b            0 skpd (  0.0%)    0.006 s ( 0.083 ms/b)
<pg|dg>:           24 b            0 skpd (  0.0%)    0.002 s ( 0.098 ms/b)
<pg|ff>:           36 b            0 skpd (  0.0%)    0.009 s ( 0.243 ms/b)
<pg|fg>:           18 b            0 skpd (  0.0%)    0.004 s ( 0.200 ms/b)
<pg|gg>:            6 b            0 skpd (  0.0%)    0.002 s ( 0.254 ms/b)
<dd|dd>:           55 b            0 skpd (  0.0%)    0.009 s ( 0.168 ms/b)
<dd|df>:          120 b            0 skpd (  0.0%)    0.015 s ( 0.126 ms/b)
<dd|dg>:           40 b            0 skpd (  0.0%)    0.005 s ( 0.137 ms/b)
<dd|ff>:           60 b            0 skpd (  0.0%)    0.022 s ( 0.371 ms/b)
<dd|fg>:           30 b            0 skpd (  0.0%)    0.008 s ( 0.250 ms/b)
<dd|gg>:           10 b            0 skpd (  0.0%)    0.003 s ( 0.303 ms/b)
<df|df>:           78 b            0 skpd (  0.0%)    0.031 s ( 0.401 ms/b)
<df|dg>:           48 b            0 skpd (  0.0%)    0.011 s ( 0.231 ms/b)
<df|ff>:           72 b            0 skpd (  0.0%)    0.046 s ( 0.633 ms/b)
<df|fg>:           36 b            0 skpd (  0.0%)    0.015 s ( 0.419 ms/b)
<df|gg>:           12 b            0 skpd (  0.0%)    0.006 s ( 0.516 ms/b)
<dg|dg>:           10 b            0 skpd (  0.0%)    0.002 s ( 0.178 ms/b)
<dg|ff>:           24 b            0 skpd (  0.0%)    0.012 s ( 0.491 ms/b)
<dg|fg>:           12 b            0 skpd (  0.0%)    0.004 s ( 0.353 ms/b)
<dg|gg>:            4 b            0 skpd (  0.0%)    0.002 s ( 0.508 ms/b)
<ff|ff>:           21 b            0 skpd (  0.0%)    0.049 s ( 2.355 ms/b)
<ff|fg>:           18 b            0 skpd (  0.0%)    0.016 s ( 0.878 ms/b)
<ff|gg>:            6 b            0 skpd (  0.0%)    0.006 s ( 1.036 ms/b)
<fg|fg>:            6 b            0 skpd (  0.0%)    0.004 s ( 0.639 ms/b)
<fg|gg>:            3 b            0 skpd (  0.0%)    0.003 s ( 1.069 ms/b)
<gg|gg>:            1 b            0 skpd (  0.0%)    0.001 s ( 1.120 ms/b)
Recanonicalizing the internal orbitals
Recanonicalizing the virtual orbitals
Time needed for Fock operator              ...            0.725 sec
Reference energy                           ...   -559.628351544
Warning: for UHF the TrafoType has to be JK
Warning: for UHF the K(C)-option cannot be MO but must be AOX

-------------------------------
PARTIAL EXCHANGE TRANSFORMATION
-------------------------------

Transformation type                        ... two-operators
Generation of integrals (i,mue|j,nue)      ... ON
Generation of integrals (mue,kappa|nue,tau)... ON
Generation of integrals (i,mue|a,nue)      ... ON
Dimension of the basis                     ...   78
Number of internal alpha-MOs               ...   14 (   4-  17)
Number of internal beta-MOs                ...   10 (   4-  13)
Number of external alpha-MOs               ...   60 (  18-  77)
Number of external beta-MOs                ...   64 (  14-  77)
Pair cutoff                                ... 0.000e+00 Eh
Number of AO pairs in the trafo            ... 3081
Total Number of distinct AO pairs          ... 3081
Memory devoted for trafo                   ... 2500.0 MB 
Max. Number of MO pairs treated together   ... 53859      
Number Format for Storage                  ... Double (8 Byte)
Integral package used                      ... LIBINT

Starting integral evaluation:
    ... done with AO integral generation
Closing buffer AOK[aa] ( 0.00 GB; CompressionRatio= 0.99)
Closing buffer AOK[bb] ( 0.00 GB; CompressionRatio= 0.99)
Closing buffer AOK[ab] ( 0.00 GB; CompressionRatio= 0.99)
Closing buffer AOK[ba] ( 0.00 GB; CompressionRatio= 0.99)
Collecting buffer AOK 
Closing buffer IAAO1[aa] ( 0.00 GB; CompressionRatio= 1.00)
Closing buffer IAAO1[bb] ( 0.00 GB; CompressionRatio= 1.00)
Closing buffer IAAO1[ab] ( 0.00 GB; CompressionRatio= 1.00)
Closing buffer IAAO1[ba] ( 0.00 GB; CompressionRatio= 1.00)
Closing buffer IAAO2[aa] ( 0.00 GB; CompressionRatio= 1.00)
Closing buffer IAAO2[bb] ( 0.00 GB; CompressionRatio= 1.00)
Closing buffer IAAO2[ab] ( 0.00 GB; CompressionRatio= 1.00)
Closing buffer IAAO2[ba] ( 0.00 GB; CompressionRatio= 1.00)
Collecting buffer IAAO 
Closing buffer PRQS    ( 0.00 GB; CompressionRatio= 1.00)
Collecting buffer PRQS 
Number of alpha/alpha MO pairs in trafo    ...  105
Number of beta /beta  MO pairs in trafo    ...   55
Number of alpha/ beta MO pairs in trafo    ...  140
------------------------
SORTING OF (i,mue|j,nue)
------------------------

SORTING OF ALPHA/ALPHA PAIRS
IBATCH = 1 of  1
Closing buffer KAO[aa] ( 0.00 GB; CompressionRatio= 1.00)
Collecting buffer KAO 
SORTING OF BETA /BETA  PAIRS
IBATCH = 1 of  1
Closing buffer KAO[bb] ( 0.00 GB; CompressionRatio= 1.00)
Collecting buffer KAO 
SORTING OF ALPHA/BETA  PAIRS
IBATCH = 1 of  1
Closing buffer KAO[ab] ( 0.00 GB; CompressionRatio= 0.999753512448)
Collecting buffer KAO[ab] 
------------------------
SORTING OF (i,mue|a,nue)
------------------------

Number of alpha/alpha (i,a) pairs in trafo  ...  840
Number of beta /beta  (i,a) pairs in trafo  ...  640
Number of alpha/ beta (i,a) pairs in trafo  ...  896
Number of beta /alpha (i,a) pairs in trafo  ...  600
Setting up the alpha/alpha list             ... done
Setting up the beta /beta  list             ... done
Setting up the alpha/beta  list             ... done
Setting up the beta /alpha list             ... done
    ... Now sorting (i,mue|a,nue)integrals
    ... Integrals (i,b|a,c) will be made on the fly
SORTING OF ALPHA/ALPHA PAIRS
IBATCH = 1 of  1
Closing buffer IPAQ[aa]  0.00 GB; CompressionRatio= 1.00)
SORTING OF BETA /BETA  PAIRS
IBATCH = 1 of  1
Closing buffer IPAQ[bb]( 0.00 GB; CompressionRatio= 1.00)
SORTING OF ALPHA/BETA  PAIRS (NMatSort_ab=38)
IBATCH = 1 of  1
Closing buffer IPAQ[ab]( 0.00 GB; CompressionRatio= 1.00)
SORTING OF BETA/ALPHA  PAIRS
IBATCH = 1 of  1
Closing buffer IPAQ[ba]( 0.00 GB; CompressionRatio= 1.00)
N(AO-Batches) Done                         ...       576 
N(AO-Batches) Skipped                      ...         0 
N(IJ)-pairs Skipped                        ...         0 
TOTAL TIME for half transformation         ...     4.842 sec
AO-integral generation                     ...     0.029 sec
Half transformation                        ...     0.189 sec
K-integral sorting                         ...     1.117 sec
<ss|**>: 
------------------------------
PARTIAL COULOMB TRANSFORMATION
------------------------------

Transformation type                        ... two-operators
Dimension of the basis                     ...   78
Number of internal alpha-MOs               ...   14 (4-17)
Number of internal beta-MOs                ...   10 (4-13)
Pair cutoff                                ... 0.000e+00 Eh
Number of AO pairs included in the trafo   ... 3081
Total Number of distinct AO pairs          ... 3081
Memory devoted for trafo                   ... 2500.0 MB 
Max. Number of MO pairs treated together   ... 106355      
Max. Number of MOs treated per batch       ... 1363      
Number Format for Storage                  ... Double (8 Byte)
AO-integral source                         ... DIRECT
Integral package used                      ... LIBINT

Starting integral evaluation:
       16500 b        0 skpd     0.003 s (  0.000 ms/b)
<sp|**>: <sd|**>:        18000 b        0 skpd     0.026 s (  0.001 ms/b)
       12000 b        0 skpd     0.040 s (  0.003 ms/b)
<sf|**>:         9000 b        0 skpd     0.044 s (  0.005 ms/b)
<sg|**>:         3000 b        0 skpd     0.020 s (  0.007 ms/b)
<pp|**>:         6300 b        0 skpd     0.028 s (  0.004 ms/b)
<pd|**>:         7200 b        0 skpd     0.057 s (  0.008 ms/b)
<pf|**>:         5400 b        0 skpd     0.080 s (  0.015 ms/b)
<pg|**>:         1800 b        0 skpd     0.061 s (  0.034 ms/b)
<dd|**>:         3000 b        0 skpd     0.138 s (  0.046 ms/b)
<df|**>:         3600 b        0 skpd     0.186 s (  0.052 ms/b)
<dg|**>:         1200 b        0 skpd     0.099 s (  0.082 ms/b)
<ff|**>:         1800 b        0 skpd     0.265 s (  0.147 ms/b)
<fg|**>:          900 b        0 skpd     0.137 s (  0.152 ms/b)
<gg|**>:          300 b        0 skpd     0.060 s (  0.199 ms/b)
Closing buffer AOJ[aa] ( 0.00 GB; CompressionRatio= 0.99)
Closing buffer AOJ[bb] ( 0.00 GB; CompressionRatio= 0.00)
Collecting buffer AOJ 
    ... done with AO integral generation
Number of Alpha-MO pairs included          ...  105
Number of Beta-MO pairs included           ...   55
    ... Now sorting integrals
SORTING ALPHA/ALPHA PAIRS
IBATCH = 1 of  1
Closing buffer JAO[aa] ( 0.00 GB; CompressionRatio= 1.00)
SORTING BETA/BETA PAIRS
IBATCH = 1 of  1
Closing buffer JAO[bb] ( 0.00 GB; CompressionRatio= 1.00)
Collecting buffer JAO 
TOTAL TIME for half transformation         ...     1.402 sec
AO-integral generation                     ...     1.026 sec
Half transformation                        ...     0.219 sec
J-integral sorting                         ...     0.119 sec

-------------------------- SECOND HALF TRANSFORMATION -------------------------
Formation of (ij|kl),(ij|ka), (ij|ab)      ... ok (     0.158 sec)
Formation of (ik|jl),(ik|ja), (ia|jb)      ... ok (     0.272 sec)


-----------------------
SPIN UNRESTRICTED GUESS
-----------------------

Entering MDCI_UHF_Guess, Tailored=0
Spin-components of the MP2 energy:
EMP2(aa)=     -0.158825684
EMP2(bb)=     -0.152448714
EMP2(ab)=     -0.482609259

Initial guess performed in     0.031 sec
E(0)                                       ...   -559.628351544
E(MP2)                                     ...     -0.793883658
Initial E(tot)                             ...   -560.422235202
<T|T>                                      ...      0.153025196
Number of pairs included                   ... 276

------------------------------------------------
                  UHF COUPLED CLUSTER ITERATIONS
------------------------------------------------

Number of amplitudes to be optimized       ...       794300

Iter       E(tot)           E(Corr)          Delta-E          Residual     Time      <S|S>**1/2
  0   -560.422235202     -0.793883658     -0.000000000      0.055822464    1.05      0.000005017
                           *** Turning on DIIS ***
  1   -560.361609842     -0.733258298      0.060625360      0.008338427    1.09      0.056248611
  2   -560.381819807     -0.753468263     -0.020209965      0.008949260    1.00      0.068053410
  3   -560.387576565     -0.759225021     -0.005756758      0.006141812    0.99      0.086205045
  4   -560.389481429     -0.761129884     -0.001904863      0.005269440    1.01      0.094185248
  5   -560.389931035     -0.761579491     -0.000449606      0.004333370    1.05      0.098261539
  6   -560.390419917     -0.762068373     -0.000488883      0.002155460    1.02      0.102605921
  7   -560.390655272     -0.762303728     -0.000235355      0.000701300    1.02      0.102659724
  8   -560.390621631     -0.762270087      0.000033641      0.000301902    1.04      0.100764954
  9   -560.390630342     -0.762278798     -0.000008711      0.000096604    1.05      0.099875427
 10   -560.390629100     -0.762277556      0.000001242      0.000033407    1.04      0.099547895
 11   -560.390631821     -0.762280276     -0.000002721      0.000018469    1.04      0.099431420
 12   -560.390634626     -0.762283082     -0.000002805      0.000011024    1.02      0.099430717
 13   -560.390635158     -0.762283613     -0.000000532      0.000006151    1.01      0.099436186
               --- The Coupled-Cluster iterations have converged ---

----------------------
COUPLED CLUSTER ENERGY
----------------------

E(0)                                       ...   -559.628351544
E(CORR)                                    ...     -0.762283613
E(TOT)                                     ...   -560.390635158
Singles norm <S|S>**1/2                    ...      0.099436186 ( 0.067041599, 0.032394587)  
T1 diagnostic                              ...      0.020297326                              

------------------
LARGEST AMPLITUDES
------------------
  17a-> 19a  13b-> 16b       0.106834
  17a-> 20a  13b-> 14b       0.102954
  17a-> 18a  13b-> 15b       0.102657
  13b-> 17b  -1b-> -1b       0.072816
  17a-> 21a  -1a-> -1a       0.066282
  16a-> 27a  14a-> 29a       0.052804
  16a-> 29a  14a-> 27a       0.052804
  16a-> 27a  15a-> 28a       0.052769
  16a-> 28a  15a-> 27a       0.052769
  15a-> 28a  14a-> 29a       0.052750
  15a-> 29a  14a-> 28a       0.052750
  15a-> 35a  -1a-> -1a       0.045350
  14a-> 34a  -1a-> -1a       0.045302
  16a-> 36a  -1a-> -1a       0.045301
  13a-> 33a  -1a-> -1a       0.044917
  17a-> 25a  13b-> 19b       0.034065

----------------------
UHF TRIPLES CORRECTION (Algorithm 1)
----------------------

Multiplier for the singles contribution    ...      1.000000000

SPIN-CASE Alpha-Alpha-Alpha:
10% done
20% done
30% done
40% done
50% done
60% done
70% done
80% done
90% done


SPIN-CASE Beta-Beta-Beta:
10% done
20% done
30% done
40% done
50% done
60% done
70% done
80% done
90% done


SPIN-CASE Alpha-Alpha-Beta:
10% done
20% done
30% done
40% done
50% done
60% done
70% done
80% done
90% done


SPIN-CASE Beta-Beta-Alpha:
10% done
20% done
30% done
40% done
50% done
60% done
70% done
80% done
90% done


Triples Correction (T)                     ...     -0.022882174
    alpha-alpha-alpha ... -0.002532328 ( 11.1%)
    alpha-alpha-beta  ... -0.011913463 ( 52.1%)
    alpha-beta -beta  ... -0.007943738 ( 34.7%)
    beta -beta -beta  ... -0.000492644 (  2.2%)
Scaling of triples based on CCSD energies (Peterson et al. Molecular Physics 113, 1551 (2015))
E(T*) = f*E(T) where f = E(F12-CCSD)/E(CCSD) 
f = CCSD (with F12)/ CCSD (without F12)    ...      1.000000000
Scaled triples correction (T)              ...     -0.022882174

Final correlation energy                   ...     -0.785165787
E(CCSD)                                    ...   -560.390635158
E(CCSD(T))                                 ...   -560.413517331



        !!!!!!!!!!!!!!!!!!!!!!!!!!!!!!!!!!!!!!!!!!!!!!!!!!!!!!!!!!!!!!!!!!!!!!!!!! 
        !  Warning: Densities are linearized densities                           !
        !!!!!!!!!!!!!!!!!!!!!!!!!!!!!!!!!!!!!!!!!!!!!!!!!!!!!!!!!!!!!!!!!!!!!!!!!! 

NORM  =      1.198752318 sqrt=     1.094875480
W(HF) =      0.834200681
------------------------------------------------------------------------------
                           ORCA POPULATION ANALYSIS
------------------------------------------------------------------------------
Input electron density              ... 60_Nd.mdcip
Input spin density                  ... 60_Nd.mdcir
BaseName (.gbw .S,...)              ... 60_Nd

                    ********************************
                    * MULLIKEN POPULATION ANALYSIS *
                    ********************************

------------------------------------------
MULLIKEN ATOMIC CHARGES AND SPIN DENSITIES
------------------------------------------
   0 Nd:   -0.000000    4.000000
Sum of atomic charges       :   -0.0000000
Sum of atomic spin densities:    4.0000000

---------------------------------------------------
MULLIKEN REDUCED ORBITAL CHARGES AND SPIN DENSITIES
---------------------------------------------------
CHARGE
  0 Nds       :     5.883515  s :     5.883515
      pz      :     3.999524  p :    11.998573
      px      :     3.999524
      py      :     3.999524
      dz2     :     2.015775  d :    10.072803
      dxz     :     2.013751
      dyz     :     2.013751
      dx2y2   :     2.013751
      dxy     :     2.015775
      f0      :     0.992712  f :     4.037283
      f+1     :     0.384411
      f-1     :     0.384326
      f+2     :     1.001090
      f-2     :     0.019332
      f+3     :     0.627741
      f-3     :     0.627671
      g0      :     0.001010  g :     0.007825
      g+1     :     0.000899
      g-1     :     0.000899
      g+2     :     0.000838
      g-2     :     0.000667
      g+3     :     0.000847
      g-3     :     0.000847
      g+4     :     0.000912
      g-4     :     0.000908

SPIN
  0 Nds       :     0.002537  s :     0.002537
      pz      :     0.003619  p :     0.010856
      px      :     0.003619
      py      :     0.003619
      dz2     :     0.006145  d :     0.026832
      dxz     :     0.004847
      dyz     :     0.004847
      dx2y2   :     0.004847
      dxy     :     0.006146
      f0      :     0.981225  f :     3.955429
      f+1     :     0.372620
      f-1     :     0.372535
      f+2     :     0.989617
      f-2     :     0.007358
      f+3     :     0.616072
      f-3     :     0.616002
      g0      :     0.000619  g :     0.004346
      g+1     :     0.000515
      g-1     :     0.000515
      g+2     :     0.000436
      g-2     :     0.000309
      g+3     :     0.000448
      g-3     :     0.000448
      g+4     :     0.000531
      g-4     :     0.000526


                     *******************************
                     * LOEWDIN POPULATION ANALYSIS *
                     *******************************

-----------------------------------------
LOEWDIN ATOMIC CHARGES AND SPIN DENSITIES
-----------------------------------------
   0 Nd:   -0.000000    4.000000

--------------------------------------------------
LOEWDIN REDUCED ORBITAL CHARGES AND SPIN DENSITIES
--------------------------------------------------
CHARGE
  0 Nds       :     5.883515  s :     5.883515
      pz      :     3.999524  p :    11.998573
      px      :     3.999524
      py      :     3.999524
      dz2     :     2.015775  d :    10.072803
      dxz     :     2.013751
      dyz     :     2.013751
      dx2y2   :     2.013751
      dxy     :     2.015775
      f0      :     0.992712  f :     4.037283
      f+1     :     0.384411
      f-1     :     0.384326
      f+2     :     1.001090
      f-2     :     0.019332
      f+3     :     0.627741
      f-3     :     0.627671
      g0      :     0.001010  g :     0.007825
      g+1     :     0.000899
      g-1     :     0.000899
      g+2     :     0.000838
      g-2     :     0.000667
      g+3     :     0.000847
      g-3     :     0.000847
      g+4     :     0.000912
      g-4     :     0.000908

SPIN
  0 Nds       :     0.002537  s :     0.002537
      pz      :     0.003619  p :     0.010856
      px      :     0.003619
      py      :     0.003619
      dz2     :     0.006145  d :     0.026832
      dxz     :     0.004847
      dyz     :     0.004847
      dx2y2   :     0.004847
      dxy     :     0.006146
      f0      :     0.981225  f :     3.955429
      f+1     :     0.372620
      f-1     :     0.372535
      f+2     :     0.989617
      f-2     :     0.007358
      f+3     :     0.616072
      f-3     :     0.616002
      g0      :     0.000619  g :     0.004346
      g+1     :     0.000515
      g-1     :     0.000515
      g+2     :     0.000436
      g-2     :     0.000309
      g+3     :     0.000448
      g-3     :     0.000448
      g+4     :     0.000531
      g-4     :     0.000526


                      *****************************
                      * MAYER POPULATION ANALYSIS *
                      *****************************

  NA   - Mulliken gross atomic population
  ZA   - Total nuclear charge
  QA   - Mulliken gross atomic charge
  VA   - Mayer's total valence
  BVA  - Mayer's bonded valence
  FA   - Mayer's free valence

  ATOM       NA         ZA         QA         VA         BVA        FA
  0 Nd    32.0000    32.0000    -0.0000     5.2469     0.0000     5.2469





------------------------------------------------------------------------------- 
                                     TIMINGS                                   
------------------------------------------------------------------------------- 


Total execution time                   ...       24.041 sec

Fock Matrix Formation                  ...        0.725 sec (  3.0%)
Initial Guess                          ...        0.031 sec (  0.1%)
DIIS Solver                            ...        0.982 sec (  4.1%)
State Vector Update                    ...        0.047 sec (  0.2%)
Sigma-vector construction              ...       13.414 sec ( 55.8%)
  <0|H|D>                              ...        0.003 sec (  0.0% of sigma)
  <D|H|D>(0-ext Fock)                  ...        0.020 sec (  0.1% of sigma)
  <D|H|D>(0-ext)                       ...        0.110 sec (  0.8% of sigma)
  <D|H|D>(2-ext Fock)                  ...        0.005 sec (  0.0% of sigma)
  <D|H|D>(2-ext)                       ...        0.274 sec (  2.0% of sigma)
  <D|H|D>(4-ext)                       ...        2.598 sec ( 19.4% of sigma)
  <S|H|0>                              ...        0.579 sec (  4.3% of sigma)
  <S|H|S>                              ...        0.002 sec (  0.0% of sigma)
  <S|H|D>(1-ext)                       ...        0.007 sec (  0.0% of sigma)
  <D|H|S>(1-ext)                       ...        0.090 sec (  0.7% of sigma)
  Fock-dressing                        ...        7.019 sec ( 52.3% of sigma)
  (ik|jl)-dressing                     ...        0.156 sec (  1.2% of sigma)
  (ij|ab),(ia|jb)-dressing             ...        1.960 sec ( 14.6% of sigma)
  Pair energies                        ...        0.004 sec (  0.0% of sigma)
Total Time for computing (T)           ...        1.327 sec (  5.5% of ALL)
  I/O of integral and amplitudes       ...        0.260 sec ( 19.6% of (T))
  External N**7 contributions          ...        0.327 sec ( 24.6% of (T))
  Internal N**7 contributions          ...        0.170 sec ( 12.8% of (T))
  N**6 triples energy contributions    ...        0.550 sec ( 41.4% of (T))


-------------------------   --------------------
FINAL SINGLE POINT ENERGY      -560.413517331128
-------------------------   --------------------


                            ***************************************
                            *     ORCA property calculations      *
                            ***************************************

                                    ---------------------
                                    Active property flags
                                    ---------------------
   (+) Dipole Moment


------------------------------------------------------------------------------
                       ORCA ELECTRIC PROPERTIES CALCULATION
------------------------------------------------------------------------------

Dipole Moment Calculation                       ... on
Quadrupole Moment Calculation                   ... off
Polarizability Calculation                      ... off
GBWName                                         ... 60_Nd.gbw
Electron density file                           ... 60_Nd.scfp
The origin for moment calculation is the CENTER OF MASS  = ( 0.000000,  0.000000  0.000000)

-------------
DIPOLE MOMENT
-------------
                                X             Y             Z
Electronic contribution:     -0.00000       0.00000      -0.00000
Nuclear contribution   :      0.00000       0.00000       0.00000
                        -----------------------------------------
Total Dipole Moment    :     -0.00000       0.00000      -0.00000
                        -----------------------------------------
Magnitude (a.u.)       :      0.00000
Magnitude (Debye)      :      0.00000



--------------------
Rotational spectrum 
--------------------
 
Rotational constants in cm-1:     0.000000     0.000000     0.000000 
Rotational constants in MHz :     0.000000     0.000000     0.000000 

 Dipole components along the rotational axes: 
x,y,z [a.u.] :    -0.000000     0.000000    -0.000000 
x,y,z [Debye]:    -0.000000     0.000000    -0.000000 

 

                           *** MDCI DENSITY ***

------------------------------------------------------------------------------
                       ORCA ELECTRIC PROPERTIES CALCULATION
------------------------------------------------------------------------------

Dipole Moment Calculation                       ... on
Quadrupole Moment Calculation                   ... off
Polarizability Calculation                      ... off
GBWName                                         ... 60_Nd.gbw
Electron density file                           ... 60_Nd.mdcip
The origin for moment calculation is the CENTER OF MASS  = ( 0.000000,  0.000000  0.000000)

-------------
DIPOLE MOMENT
-------------
                                X             Y             Z
Electronic contribution:      0.00000       0.00000      -0.00000
Nuclear contribution   :      0.00000       0.00000       0.00000
                        -----------------------------------------
Total Dipole Moment    :      0.00000       0.00000      -0.00000
                        -----------------------------------------
Magnitude (a.u.)       :      0.00000
Magnitude (Debye)      :      0.00000



--------------------
Rotational spectrum 
--------------------
 
Rotational constants in cm-1:     0.000000     0.000000     0.000000 
Rotational constants in MHz :     0.000000     0.000000     0.000000 

 Dipole components along the rotational axes: 
x,y,z [a.u.] :     0.000000     0.000000    -0.000000 
x,y,z [Debye]:     0.000000     0.000000    -0.000000 

 

Timings for individual modules:

Sum of individual times         ...       62.755 sec (=   1.046 min)
GTO integral calculation        ...        1.210 sec (=   0.020 min)   1.9 %
SCF iterations                  ...       36.782 sec (=   0.613 min)  58.6 %
MDCI module                     ...       24.763 sec (=   0.413 min)  39.5 %
                             ****ORCA TERMINATED NORMALLY****
TOTAL RUN TIME: 0 days 0 hours 1 minutes 3 seconds 658 msec
