
                                 *****************
                                 * O   R   C   A *
                                 *****************

           --- An Ab Initio, DFT and Semiempirical electronic structure package ---

                  #######################################################
                  #                        -***-                        #
                  #          Department of theory and spectroscopy      #
                  #               Directorship: Frank Neese             #
                  #        Max Planck Institute fuer Kohlenforschung    #
                  #                Kaiser Wilhelm Platz 1               #
                  #                 D-45470 Muelheim/Ruhr               #
                  #                      Germany                        #
                  #                                                     #
                  #                  All rights reserved                #
                  #                        -***-                        #
                  #######################################################


                         Program Version 4.2.0 -  RELEASE  -


 With contributions from (in alphabetic order):
   Daniel Aravena         : Magnetic Suceptibility
   Michael Atanasov       : Ab Initio Ligand Field Theory (pilot matlab implementation)
   Alexander A. Auer      : GIAO ZORA, VPT2
   Ute Becker             : Parallelization
   Giovanni Bistoni       : ED, misc. LED, open-shell LED, HFLED
   Martin Brehm           : Molecular dynamics
   Dmytro Bykov           : SCF Hessian
   Vijay G. Chilkuri      : MRCI spin determinant printing, contributions to CSF-ICE
   Dipayan Datta          : RHF DLPNO-CCSD density
   Achintya Kumar Dutta   : EOM-CC, STEOM-CC
   Dmitry Ganyushin       : Spin-Orbit,Spin-Spin,Magnetic field MRCI
   Miquel Garcia          : C-PCM Hessian, Gaussian charge scheme
   Yang Guo               : DLPNO-NEVPT2, CIM, IAO-localization
   Andreas Hansen         : Spin unrestricted coupled pair/coupled cluster methods
   Benjamin Helmich-Paris : CASSCF linear response (MC-RPA)
   Lee Huntington         : MR-EOM, pCC
   Robert Izsak           : Overlap fitted RIJCOSX, COSX-SCS-MP3, EOM
   Christian Kollmar      : KDIIS, OOCD, Brueckner-CCSD(T), CCSD density
   Simone Kossmann        : Meta GGA functionals, TD-DFT gradient, OOMP2, MP2 Hessian
   Martin Krupicka        : AUTO-CI
   Lucas Lang             : DCDCAS
   Dagmar Lenk            : GEPOL surface, SMD
   Dimitrios Liakos       : Extrapolation schemes; Compound Job, initial MDCI parallelization
   Dimitrios Manganas     : Further ROCIS development; embedding schemes
   Dimitrios Pantazis     : SARC Basis sets
   Taras Petrenko         : DFT Hessian,TD-DFT gradient, ASA, ECA, R-Raman, ABS, FL, XAS/XES, NRVS
   Peter Pinski           : DLPNO-MP2, DLPNO-MP2 Gradient
   Christoph Reimann      : Effective Core Potentials
   Marius Retegan         : Local ZFS, SOC
   Christoph Riplinger    : Optimizer, TS searches, QM/MM, DLPNO-CCSD(T), (RO)-DLPNO pert. Triples
   Tobias Risthaus        : Range-separated hybrids, TD-DFT gradient, RPA, STAB
   Michael Roemelt        : Original ROCIS implementation
   Masaaki Saitow         : Open-shell DLPNO-CCSD energy and density
   Barbara Sandhoefer     : DKH picture change effects
   Avijit Sen             : IP-ROCIS
   Kantharuban Sivalingam : CASSCF convergence, NEVPT2, FIC-MRCI
   Bernardo de Souza      : ESD, SOC TD-DFT
   Georgi Stoychev        : AutoAux, RI-MP2 NMR
   Willem Van den Heuvel  : Paramagnetic NMR
   Boris Wezisla          : Elementary symmetry handling
   Frank Wennmohs         : Technical directorship


 We gratefully acknowledge several colleagues who have allowed us to
 interface, adapt or use parts of their codes:
   Stefan Grimme, W. Hujo, H. Kruse,             : VdW corrections, initial TS optimization,
                  C. Bannwarth                     DFT functionals, gCP, sTDA/sTD-DF
   Ed Valeev, F. Pavosevic, A. Kumar             : LibInt (2-el integral package), F12 methods
   Garnet Chan, S. Sharma, J. Yang, R. Olivares  : DMRG
   Ulf Ekstrom                                   : XCFun DFT Library
   Mihaly Kallay                                 : mrcc  (arbitrary order and MRCC methods)
   Andreas Klamt, Michael Diedenhofen            : otool_cosmo (COSMO solvation model)
   Jiri Pittner, Ondrej Demel                    : Mk-CCSD
   Frank Weinhold                                : gennbo (NPA and NBO analysis)
   Christopher J. Cramer and Donald G. Truhlar   : smd solvation model
   Lars Goerigk                                  : TD-DFT with DH, B97 family of functionals
   V. Asgeirsson, H. Jonsson                     : NEB implementation
   FAccTs GmbH                                   : IRC, NEB, NEB-TS, Multilevel, MM, QM/MM, CI optimization
   S Lehtola, MJT Oliveira, MAL Marques          : LibXC Library


 Your calculation uses the libint2 library for the computation of 2-el integrals
 For citations please refer to: http://libint.valeyev.net

 Your ORCA version has been built with support for libXC version: 4.2.3
 For citations please refer to: https://tddft.org/programs/libxc/

 This ORCA versions uses:
   CBLAS   interface :  Fast vector & matrix operations
   LAPACKE interface :  Fast linear algebra routines
   SCALAPACK package :  Parallel linear algebra routines


----- Orbital basis set information -----
Your calculation utilizes the basis: def2-SVP
   F. Weigend and R. Ahlrichs, Phys. Chem. Chem. Phys. 7, 3297 (2005).

cite the ECPs for Pm [Def2-ECP] as follows:
Ce-Yb(ecp-28): M. Dolg, H. Stoll, H.Preuss, J. Chem. Phys., 1989, 90, 1730-1734.
Y-Cd(ecp-28), Hf-Hg(ecp-46): D. Andrae,U. Haeussermann, M. Dolg, H. Stoll, H. Preuss, Theor. Chim. Acta, 1990, 77, 123-141.
In-Sb(ecp-28), Tl-Bi(ecp-46): B. Metz, H. Stoll, M. Dolg, J. Chem. Phys., 2000, 113, 2563-2569.
Te-Xe(ecp-28), Po-Rn(ecp-46): K. A. Peterson, D. Figgen, E. Goll, H. Stoll, M. Dolg, J. Chem. Phys., 2003, 119, 11113-11123.
Rb(ecp-28), Cs(ecp-46): T. Leininger, A. Nicklass, W. Kuechle, H. Stoll, M. Dolg, A. Bergner, Chem. Phys. Lett., 1996, 255, 274-280.
Sr(ecp-28), Ba(ecp-46): M. Kaupp, P. V. Schleyer, H. Stoll and H. Preuss, J. Chem. Phys., 1991, 94, 1360-1366.
La(ecp-46): M. Dolg, H. Stoll, A. Savin, H. Preuss, Theor. Chim. Acta, 1989, 75, 173-194.
Lu(ecp-28): X. Cao, M. Dolg, J. Chem. Phys., 2001, 115, 7348-7355.

ECP parameters for Pm [Def2-ECP] have been obtained from:
TURBOMOLE (7.0.2)

================================================================================
                                        WARNINGS
                       Please study these warnings very carefully!
================================================================================


WARNING: your system is open-shell and RHF/RKS was chosen
  ===> : WILL SWITCH to UHF/UKS


WARNING: MDCI localization with Augmented Hessian Foster-Boys
  ===> : Switching off randomization!

WARNING: Post HF methods need fully converged wavefunctions
  ===> : Setting SCFConvForced true
         You can overwrite this default with %scf ConvForced false 


INFO   : the flag for use of LIBINT has been found!

================================================================================
                                       INPUT FILE
================================================================================
NAME = 61_Pm.in
|  1> #
|  2> # 61_Pm CCSD(T)/Def2-SVP
|  3> #
|  4> ! CCSD(T) Def2-SVP verytightscf kdiis
|  5> 
|  6> *xyz 0 6
|  7>  Pm 0.0 0.0 0.0
|  8> *
|  9> 
| 10> %maxcore 5000 
| 11> 
| 12> %pal
| 13> nprocs 24
| 14> end
| 15> 
| 16> %scf
| 17> maxiter 300
| 18> diismaxeq 40
| 19> directresetfreq 1
| 20> end
| 21> 
| 22> 
| 23>                          ****END OF INPUT****
================================================================================

                       ****************************
                       * Single Point Calculation *
                       ****************************

---------------------------------
CARTESIAN COORDINATES (ANGSTROEM)
---------------------------------
  Pm     0.000000    0.000000    0.000000

----------------------------
CARTESIAN COORDINATES (A.U.)
----------------------------
  NO LB      ZA    FRAG     MASS         X           Y           Z
   0 Pm   33.0000*   0   145.000    0.000000    0.000000    0.000000
* core charge reduced due to ECP

--------------------------------
INTERNAL COORDINATES (ANGSTROEM)
--------------------------------
 Pm     0   0   0     0.000000000000     0.00000000     0.00000000

---------------------------
INTERNAL COORDINATES (A.U.)
---------------------------
 Pm     0   0   0     0.000000000000     0.00000000     0.00000000

---------------------
BASIS SET INFORMATION
---------------------
There are 1 groups of distinct atoms

 Group   1 Type Pm  : 14s12p9d7f1g contracted to 10s6p4d3f1g pattern {5111111111/531111/6111/511/1}

Atom   0Pm   basis set group =>   1
-------------------------
ECP PARAMETER INFORMATION
-------------------------

 Group 1, Type Pm ECP Def2-ECP (replacing 28 core electrons, lmax=5)

Atom   0Pm   ECP group =>   1


Checking for AutoStart:
The File: 61_Pm.gbw exists
Trying to determine its content:
     ... Fine, the file contains calculation information
     ... Fine, the calculation information was read
     ... Fine, the file contains a basis set
     ... Fine, the basis set was read
     ... Fine, the file contains ECP parameters
     ... Fine, ECP parameters were read
     ... Fine, the file contains a geometry
     ... Fine, the geometry was read
     ... Fine, the file contains a set of orbitals
     ... Fine, the orbitals can be read
     => possible old guess file was deleted
     => GBW file was renamed to GES file
     => GES file is set as startup file
     => Guess is set to MORead
     ... now leaving AutoStart



           ************************************************************
           *        Program running with 24 parallel MPI-processes    *
           *              working on a common directory               *
           ************************************************************
------------------------------------------------------------------------------
                           ORCA GTO INTEGRAL CALCULATION
------------------------------------------------------------------------------

                         BASIS SET STATISTICS AND STARTUP INFO

 # of primitive gaussian shells          ...   43
 # of primitive gaussian functions       ...  153
 # of contracted shells                  ...   24
 # of contracted basis functions         ...   78
 Highest angular momentum                ...    4
 Maximum contraction depth               ...    6
 Integral package used                   ... LIBINT
 Integral threshhold            Thresh   ...  1.000e-12
 Primitive cut-off              TCut     ...  1.000e-14


------------------------------ INTEGRAL EVALUATION ----------------------------


 * One electron integrals 

   ECP integrals                         ... done
 Pre-screening matrix                    ... done
 Shell pair data                         ... done (   0.000 sec)



           ************************************************************
           *        Program running with 24 parallel MPI-processes    *
           *              working on a common directory               *
           ************************************************************
-------------------------------------------------------------------------------
                                 ORCA SCF
-------------------------------------------------------------------------------

------------
SCF SETTINGS
------------
Hamiltonian:
 Ab initio Hamiltonian  Method          .... Hartree-Fock(GTOs)


General Settings:
 Integral files         IntName         .... 61_Pm
 Hartree-Fock type      HFTyp           .... UHF
 Total Charge           Charge          ....    0
 Multiplicity           Mult            ....    6
 Number of Electrons    NEL             ....   33
 Basis Dimension        Dim             ....   78
 Nuclear Repulsion      ENuc            ....      0.0000000000 Eh

Convergence Acceleration:
 DIIS                   CNVDIIS         .... off
 Newton-Raphson         CNVNR           .... off
 SOSCF                  CNVSOSCF        .... off
 Level Shifting         CNVShift        .... off
 Zerner damping         CNVZerner       .... off
 Static damping         CNVDamp         .... off
 Fernandez-Rico         CNVRico         .... off

SCF Procedure:
 Maximum # iterations   MaxIter         ....   300
 SCF integral mode      SCFMode         .... Direct
   Integral package                     .... LIBINT
 Reset frequency        DirectResetFreq ....     1
 Integral Threshold     Thresh          ....  1.000e-12 Eh
 Primitive CutOff       TCut            ....  1.000e-14 Eh

Convergence Tolerance:
 Convergence Check Mode ConvCheckMode   .... Total+1el-Energy
 Convergence forced     ConvForced      .... 1
 Energy Change          TolE            ....  1.000e-09 Eh
 1-El. energy change                    ....  1.000e-06 Eh


Diagonalization of the overlap matrix:
Smallest eigenvalue                        ... 1.758e-03
Time for diagonalization                   ...    0.003 sec
Threshold for overlap eigenvalues          ... 1.000e-08
Number of eigenvalues below threshold      ... 0
Time for construction of square roots      ...    0.011 sec
Total time needed                          ...    0.014 sec

---------------------
INITIAL GUESS: MOREAD
---------------------
Guess MOs are being read from file: 61_Pm.ges
Input Geometry matches current geometry (good)
Input basis set matches current basis set (good)
MOs were renormalized
MOs were reorthogonalized (Cholesky)
                      ------------------
                      INITIAL GUESS DONE (   0.0 sec)
                      ------------------
--------------
SCF ITERATIONS
--------------
ITER       Energy         Delta-E        Max-DP      RMS-DP      [F,P]   Gradient Norm
                             ****Turning on KDIIS(Cayley)****
  0   -606.2467980337   0.000000000000 0.00083745  0.00001458  0.0023704   0.001891059
  1   -606.2468073930  -0.000009359262 0.00138580  0.00001874  0.0018976   0.001465055
  2   -606.2468125425  -0.000005149512 0.00266042  0.00003869  0.0016689   0.001332853
  3   -606.2468225941  -0.000010051570 0.00318138  0.00007417  0.0011248   0.000939014
  4   -606.2468363027  -0.000013708643 0.00782386  0.00018090  0.0005064   0.000509050
  5   -606.2468129271   0.000023375656 0.00228154  0.00002872  0.0006083   0.000621617
  6   -606.2468115276   0.000001399413 0.02577130  0.00052709  0.0007186   0.000720909
  7   -606.2468753119  -0.000063784276 0.00414801  0.00008976  0.0011118   0.000968438
  8   -606.2468877220  -0.000012410086 0.01170687  0.00027385  0.0012402   0.001065902
  9   -606.2468293695   0.000058352489 0.02335563  0.00057792  0.0022191   0.001788363
 10   -606.2467024280   0.000126941490 0.01894187  0.00048695  0.0039110   0.003162282
 11   -606.2468267509  -0.000124322856 0.00068870  0.00001614  0.0017233   0.001390840
Warning: badly conditioned DIIS matrix, 1 vectors out of 13 destroyed
Warning: badly conditioned DIIS matrix, 1 vectors out of 12 destroyed
Warning: badly conditioned DIIS matrix, 1 vectors out of 11 destroyed
 12   -606.2468291473  -0.000002396426 0.00825426  0.00020325  0.0017036   0.001375377
Warning: badly conditioned DIIS matrix, 1 vectors out of 11 destroyed
 13   -606.2468661903  -0.000037042942 0.00460564  0.00010407  0.0010935   0.000900499
Warning: badly conditioned DIIS matrix, 1 vectors out of 11 destroyed
Warning: badly conditioned DIIS matrix, 1 vectors out of 10 destroyed
Warning: badly conditioned DIIS matrix, 1 vectors out of 9 destroyed
Warning: badly conditioned DIIS matrix, 1 vectors out of 8 destroyed
Warning: badly conditioned DIIS matrix, 1 vectors out of 7 destroyed
 14   -606.2468518618   0.000014328502 0.01349917  0.00030142  0.0010982   0.000905525
Warning: badly conditioned DIIS matrix, 1 vectors out of 7 destroyed
Warning: badly conditioned DIIS matrix, 1 vectors out of 6 destroyed
 15   -606.2468941360  -0.000042274284 0.04687154  0.00113702  0.0012957   0.001057703
Warning: badly conditioned DIIS matrix, 1 vectors out of 6 destroyed
 16   -606.2466483017   0.000245834358 0.01121927  0.00029138  0.0042635   0.003469687
 17   -606.2467585702  -0.000110268554 0.01108721  0.00024866  0.0023604   0.001904079
 18   -606.2468028109  -0.000044240683 0.00352667  0.00007926  0.0017972   0.001452339
 19   -606.2467898901   0.000012920838 0.00141922  0.00002645  0.0019543   0.001576833
 20   -606.2467926333  -0.000002743248 0.00094056  0.00002310  0.0019751   0.001595420
 21   -606.2467983045  -0.000005671199 0.00031123  0.00000685  0.0018379   0.001483117
 22   -606.2468007406  -0.000002436029 0.00033419  0.00000472  0.0017527   0.001414212
 23   -606.2468022668  -0.000001526215 0.00052226  0.00001376  0.0016681   0.001347105
Warning: badly conditioned DIIS matrix, 1 vectors out of 13 destroyed
Warning: badly conditioned DIIS matrix, 1 vectors out of 12 destroyed
 24   -606.2468064909  -0.000004224124 0.00060355  0.00001385  0.0015190   0.001228413
Warning: badly conditioned DIIS matrix, 1 vectors out of 12 destroyed
Warning: badly conditioned DIIS matrix, 1 vectors out of 11 destroyed
Warning: badly conditioned DIIS matrix, 1 vectors out of 10 destroyed
 25   -606.2468022921   0.000004198807 0.03254881  0.00072401  0.0016666   0.001346544
 26   -606.2469024122  -0.000100120159 0.04104669  0.00095388  0.0017990   0.001464723
Warning: badly conditioned DIIS matrix, 1 vectors out of 11 destroyed
Warning: badly conditioned DIIS matrix, 1 vectors out of 10 destroyed
Warning: badly conditioned DIIS matrix, 1 vectors out of 9 destroyed
 27   -606.2467481916   0.000154220692 0.04631885  0.00109766  0.0027102   0.002175943
 28   -606.2469315117  -0.000183320152 0.04881507  0.00114780  0.0018361   0.001500776
 29   -606.2467383425   0.000193169230 0.00026541  0.00000620  0.0028088   0.002265518
 30   -606.2467403792  -0.000002036740 0.00276386  0.00006784  0.0027692   0.002231262
 31   -606.2467575863  -0.000017207119 0.00286849  0.00006105  0.0024865   0.002005276
 32   -606.2467459330   0.000011653301 0.00369662  0.00008878  0.0026068   0.002095327
 33   -606.2467666049  -0.000020671851 0.00021919  0.00000571  0.0022758   0.001830821
Warning: badly conditioned DIIS matrix, 1 vectors out of 15 destroyed
 34   -606.2467688278  -0.000002222904 0.00089218  0.00001909  0.0022110   0.001776729
Warning: badly conditioned DIIS matrix, 1 vectors out of 15 destroyed
Warning: badly conditioned DIIS matrix, 1 vectors out of 14 destroyed
 35   -606.2467655214   0.000003306340 0.00439724  0.00010131  0.0022441   0.001798324
Warning: badly conditioned DIIS matrix, 1 vectors out of 14 destroyed
 36   -606.2467850433  -0.000019521815 0.01006554  0.00023828  0.0019588   0.001570545
Warning: badly conditioned DIIS matrix, 1 vectors out of 14 destroyed
 37   -606.2467316792   0.000053364036 0.00023460  0.00000502  0.0027891   0.002236628
 38   -606.2467327508  -0.000001071575 0.00040179  0.00001000  0.0027790   0.002227777
Warning: badly conditioned DIIS matrix, 1 vectors out of 15 destroyed
Warning: badly conditioned DIIS matrix, 1 vectors out of 14 destroyed
Warning: badly conditioned DIIS matrix, 1 vectors out of 13 destroyed
Warning: badly conditioned DIIS matrix, 1 vectors out of 12 destroyed
Warning: badly conditioned DIIS matrix, 1 vectors out of 11 destroyed
Warning: badly conditioned DIIS matrix, 1 vectors out of 10 destroyed
Warning: badly conditioned DIIS matrix, 1 vectors out of 9 destroyed
Warning: badly conditioned DIIS matrix, 1 vectors out of 8 destroyed
Warning: badly conditioned DIIS matrix, 1 vectors out of 7 destroyed
Warning: badly conditioned DIIS matrix, 1 vectors out of 6 destroyed
Warning: badly conditioned DIIS matrix, 1 vectors out of 5 destroyed
Warning: badly conditioned DIIS matrix, 1 vectors out of 4 destroyed
 39   -606.2467298767   0.000002874079 0.02445690  0.00060144  0.0028264   0.002265769
 40   -606.2468459997  -0.000116122975 0.00272113  0.00006267  0.0009539   0.000771301
 41   -606.2468541645  -0.000008164788 0.00431887  0.00009828  0.0009814   0.000801936
 42   -606.2468408678   0.000013296670 0.00163355  0.00003539  0.0010203   0.000836328
 43   -606.2468363115   0.000004556301 0.00265662  0.00006098  0.0010292   0.000840429
 44   -606.2468445878  -0.000008276299 0.01128122  0.00024521  0.0009887   0.000811338
 45   -606.2468124660   0.000032121765 0.00001397  0.00000021  0.0011273   0.000912017
Warning: badly conditioned DIIS matrix, 1 vectors out of 10 destroyed
Warning: badly conditioned DIIS matrix, 1 vectors out of 9 destroyed
Warning: badly conditioned DIIS matrix, 1 vectors out of 8 destroyed
Warning: badly conditioned DIIS matrix, 1 vectors out of 7 destroyed
Warning: badly conditioned DIIS matrix, 1 vectors out of 6 destroyed
Warning: badly conditioned DIIS matrix, 1 vectors out of 5 destroyed
Warning: badly conditioned DIIS matrix, 1 vectors out of 4 destroyed
Warning: badly conditioned DIIS matrix, 1 vectors out of 3 destroyed
Warning: badly conditioned DIIS matrix, 1 vectors out of 2 destroyed
 46   -606.2468124785  -0.000000012493 0.00401193  0.00007601  0.0011281   0.000912510
 47   -606.2468156628  -0.000003184296 0.00111504  0.00003996  0.0013072   0.001285242
 48   -606.2468218409  -0.000006178020 0.00102350  0.00002338  0.0006834   0.000694096
 49   -606.2468261502  -0.000004309385 0.00207583  0.00005231  0.0004155   0.000405703
 50   -606.2468325014  -0.000006351164 0.00027523  0.00000566  0.0005090   0.000510095
 51   -606.2468317972   0.000000704179 0.00106435  0.00002341  0.0005120   0.000512829
 52   -606.2468346855  -0.000002888258 0.00026296  0.00000547  0.0004670   0.000473355
 53   -606.2468353588  -0.000000673293 0.00297564  0.00006237  0.0004653   0.000472171
 54   -606.2468277227   0.000007636042 0.01111042  0.00023592  0.0004426   0.000452632
 55   -606.2467970778   0.000030644941 0.04657990  0.00086724  0.0006590   0.000633019
Warning: badly conditioned DIIS matrix, 1 vectors out of 11 destroyed
Warning: badly conditioned DIIS matrix, 1 vectors out of 10 destroyed
 56   -606.2468899641  -0.000092886297 0.02247889  0.00053356  0.0020319   0.001657849
 57   -606.2469794189  -0.000089454776 0.00943299  0.00012534  0.0034261   0.002784276
 58   -606.2470011830  -0.000021764102 0.06314078  0.00157113  0.0017251   0.001425493
Warning: badly conditioned DIIS matrix, 1 vectors out of 12 destroyed
 59   -606.2466888778   0.000312305161 0.00875048  0.00023507  0.0034870   0.002792850
 60   -606.2467775522  -0.000088674348 0.00360775  0.00006406  0.0013863   0.001132536
 61   -606.2467699308   0.000007621364 0.00210627  0.00005709  0.0013245   0.001079939
Warning: badly conditioned DIIS matrix, 1 vectors out of 14 destroyed
 62   -606.2467823219  -0.000012391137 0.00229751  0.00005953  0.0010008   0.000822913
Warning: badly conditioned DIIS matrix, 1 vectors out of 14 destroyed
 63   -606.2467958793  -0.000013557338 0.00483460  0.00009419  0.0004146   0.000339782
 64   -606.2468077138  -0.000011834557 0.00201153  0.00005474  0.0003915   0.000326235
 65   -606.2468158331  -0.000008119319 0.00069596  0.00001796  0.0003380   0.000163298
Warning: badly conditioned DIIS matrix, 1 vectors out of 16 destroyed
 66   -606.2468125002   0.000003332895 0.00226267  0.00004910  0.0003945   0.000349723
Warning: badly conditioned DIIS matrix, 1 vectors out of 16 destroyed
Warning: badly conditioned DIIS matrix, 1 vectors out of 15 destroyed
 67   -606.2468189093  -0.000006409065 0.00849149  0.00020981  0.0003718   0.000302364
Warning: badly conditioned DIIS matrix, 1 vectors out of 15 destroyed
Warning: badly conditioned DIIS matrix, 1 vectors out of 14 destroyed
Warning: badly conditioned DIIS matrix, 1 vectors out of 13 destroyed
Warning: badly conditioned DIIS matrix, 1 vectors out of 12 destroyed
Warning: badly conditioned DIIS matrix, 1 vectors out of 11 destroyed
 68   -606.2468470073  -0.000028097961 0.00964812  0.00025618  0.0002910   0.000106877
 69   -606.2468073628   0.000039644499 0.00564272  0.00012067  0.0009457   0.000784036
 70   -606.2467894720   0.000017890762 0.00569995  0.00011733  0.0011617   0.000956176
 71   -606.2467712313   0.000018240667 0.01075492  0.00021589  0.0013371   0.001099445
Warning: badly conditioned DIIS matrix, 1 vectors out of 14 destroyed
 72   -606.2468017080  -0.000030476613 0.00310110  0.00005603  0.0011777   0.000962462
 73   -606.2468072354  -0.000005527410 0.00982196  0.00020459  0.0012614   0.001023139
 74   -606.2468329296  -0.000025694279 0.00244541  0.00005559  0.0012101   0.000978402
Warning: badly conditioned DIIS matrix, 1 vectors out of 16 destroyed
 75   -606.2468405562  -0.000007626572 0.00134088  0.00002399  0.0011629   0.000941159
 76   -606.2468385562   0.000001999975 0.00190265  0.00004110  0.0010956   0.000885338
Warning: badly conditioned DIIS matrix, 1 vectors out of 17 destroyed
 77   -606.2468437711  -0.000005214838 0.00403150  0.00008351  0.0010939   0.000883646
 78   -606.2468534544  -0.000009683282 0.00679531  0.00014906  0.0011827   0.000955367
Warning: badly conditioned DIIS matrix, 1 vectors out of 18 destroyed
Warning: badly conditioned DIIS matrix, 1 vectors out of 17 destroyed
 79   -606.2468342924   0.000019161975 0.00900670  0.00020641  0.0011801   0.000950838
 80   -606.2468042919   0.000030000456 0.01532034  0.00032980  0.0014902   0.001196056
 81   -606.2468472967  -0.000043004806 0.00894029  0.00019528  0.0013566   0.001087294
 82   -606.2468726929  -0.000025396183 0.01044197  0.00023752  0.0014819   0.001191493
Warning: badly conditioned DIIS matrix, 1 vectors out of 20 destroyed
Warning: badly conditioned DIIS matrix, 1 vectors out of 19 destroyed
Warning: badly conditioned DIIS matrix, 1 vectors out of 18 destroyed
 83   -606.2468397308   0.000032962100 0.01248762  0.00029441  0.0014816   0.001189839
Warning: badly conditioned DIIS matrix, 1 vectors out of 18 destroyed
Warning: badly conditioned DIIS matrix, 1 vectors out of 17 destroyed
Warning: badly conditioned DIIS matrix, 1 vectors out of 16 destroyed
 84   -606.2467933328   0.000046397982 0.01478532  0.00029938  0.0020185   0.001611395
 85   -606.2468287016  -0.000035368725 0.00460421  0.00010428  0.0020681   0.001653010
Warning: badly conditioned DIIS matrix, 1 vectors out of 17 destroyed
Warning: badly conditioned DIIS matrix, 1 vectors out of 16 destroyed
Warning: badly conditioned DIIS matrix, 1 vectors out of 15 destroyed
 86   -606.2468136313   0.000015070293 0.02096160  0.00045564  0.0021623   0.001727303
 87   -606.2468714801  -0.000057848851 0.01200227  0.00027785  0.0023836   0.001896951
Warning: badly conditioned DIIS matrix, 1 vectors out of 16 destroyed
Warning: badly conditioned DIIS matrix, 1 vectors out of 15 destroyed
 88   -606.2468317449   0.000039735217 0.00978754  0.00023031  0.0023391   0.001860583
 89   -606.2468656468  -0.000033901885 0.01318635  0.00029394  0.0023035   0.001841300
 90   -606.2468266339   0.000039012863 0.00006607  0.00000139  0.0022064   0.001761267
Warning: badly conditioned DIIS matrix, 1 vectors out of 17 destroyed
Warning: badly conditioned DIIS matrix, 1 vectors out of 16 destroyed
Warning: badly conditioned DIIS matrix, 1 vectors out of 15 destroyed
Warning: badly conditioned DIIS matrix, 1 vectors out of 14 destroyed
Warning: badly conditioned DIIS matrix, 1 vectors out of 13 destroyed
Warning: badly conditioned DIIS matrix, 1 vectors out of 12 destroyed
Warning: badly conditioned DIIS matrix, 1 vectors out of 11 destroyed
Warning: badly conditioned DIIS matrix, 1 vectors out of 10 destroyed
Warning: badly conditioned DIIS matrix, 1 vectors out of 9 destroyed
Warning: badly conditioned DIIS matrix, 1 vectors out of 8 destroyed
Warning: badly conditioned DIIS matrix, 1 vectors out of 7 destroyed
Warning: badly conditioned DIIS matrix, 1 vectors out of 6 destroyed
Warning: badly conditioned DIIS matrix, 1 vectors out of 5 destroyed
Warning: badly conditioned DIIS matrix, 1 vectors out of 4 destroyed
Warning: badly conditioned DIIS matrix, 1 vectors out of 3 destroyed
Warning: badly conditioned DIIS matrix, 1 vectors out of 2 destroyed
 91   -606.2468264706   0.000000163280 0.00767214  0.00013420  0.0022059   0.001760817
 92   -606.2468322614  -0.000005790734 0.00174428  0.00006034  0.0023105   0.002255182
 93   -606.2468518601  -0.000019598677 0.00113680  0.00002753  0.0008557   0.000861677
 94   -606.2468574145  -0.000005554401 0.00088577  0.00002134  0.0004075   0.000416180
 95   -606.2468603124  -0.000002897903 0.00371382  0.00008565  0.0004844   0.000493702
 96   -606.2468487471   0.000011565309 0.00118299  0.00002998  0.0005499   0.000554921
 97   -606.2468444044   0.000004342642 0.00780722  0.00017567  0.0005962   0.000604860
 98   -606.2468218669   0.000022537465 0.00766046  0.00015184  0.0006999   0.000693929
 99   -606.2468394600  -0.000017593024 0.01475507  0.00032622  0.0007414   0.000753816
100   -606.2467963931   0.000043066869 0.08410557  0.00166636  0.0009879   0.000926806
101   -606.2469499469  -0.000153553841 0.00265991  0.00003693  0.0060433   0.004752493
102   -606.2469316699   0.000018276999 0.06863503  0.00150957  0.0065165   0.005125402
103   -606.2467704311   0.000161238834 0.00346537  0.00005479  0.0031110   0.002462565
104   -606.2468003006  -0.000029869518 0.00854640  0.00018089  0.0019977   0.001596946
105   -606.2467724790   0.000027821595 0.00077526  0.00001918  0.0022369   0.001788091
106   -606.2467789705  -0.000006491489 0.00468025  0.00008764  0.0020546   0.001645937
107   -606.2467680191   0.000010951424 0.00023085  0.00000591  0.0020416   0.001637361
Warning: badly conditioned DIIS matrix, 1 vectors out of 18 destroyed
Warning: badly conditioned DIIS matrix, 1 vectors out of 17 destroyed
Warning: badly conditioned DIIS matrix, 1 vectors out of 16 destroyed
Warning: badly conditioned DIIS matrix, 1 vectors out of 15 destroyed
Warning: badly conditioned DIIS matrix, 1 vectors out of 14 destroyed
Warning: badly conditioned DIIS matrix, 1 vectors out of 13 destroyed
Warning: badly conditioned DIIS matrix, 1 vectors out of 12 destroyed
Warning: badly conditioned DIIS matrix, 1 vectors out of 11 destroyed
Warning: badly conditioned DIIS matrix, 1 vectors out of 10 destroyed
Warning: badly conditioned DIIS matrix, 1 vectors out of 9 destroyed
Warning: badly conditioned DIIS matrix, 1 vectors out of 8 destroyed
Warning: badly conditioned DIIS matrix, 1 vectors out of 7 destroyed
Warning: badly conditioned DIIS matrix, 1 vectors out of 6 destroyed
108   -606.2467693789  -0.000001359769 0.03898513  0.00086133  0.0020155   0.001616831
109   -606.2468935617  -0.000124182828 0.03209636  0.00072309  0.0016116   0.001303335
110   -606.2467898781   0.000103683607 0.00514461  0.00011533  0.0018744   0.001513632
Warning: badly conditioned DIIS matrix, 1 vectors out of 8 destroyed
Warning: badly conditioned DIIS matrix, 1 vectors out of 7 destroyed
111   -606.2467689780   0.000020900125 0.04155445  0.00093116  0.0021599   0.001741817
112   -606.2469062937  -0.000137315691 0.03636835  0.00083798  0.0018360   0.001481834
113   -606.2467794680   0.000126825684 0.00297872  0.00006928  0.0022222   0.001793184
114   -606.2467921555  -0.000012687567 0.00318503  0.00007443  0.0020435   0.001648945
Warning: badly conditioned DIIS matrix, 1 vectors out of 10 destroyed
Warning: badly conditioned DIIS matrix, 1 vectors out of 9 destroyed
115   -606.2468047260  -0.000012570436 0.01755674  0.00039154  0.0018801   0.001517806
116   -606.2468589387  -0.000054212759 0.01541757  0.00033437  0.0016721   0.001349494
117   -606.2468157025   0.000043236212 0.00027996  0.00000582  0.0016758   0.001351309
Warning: badly conditioned DIIS matrix, 1 vectors out of 11 destroyed
Warning: badly conditioned DIIS matrix, 1 vectors out of 10 destroyed
Warning: badly conditioned DIIS matrix, 1 vectors out of 9 destroyed
Warning: badly conditioned DIIS matrix, 1 vectors out of 8 destroyed
Warning: badly conditioned DIIS matrix, 1 vectors out of 7 destroyed
Warning: badly conditioned DIIS matrix, 1 vectors out of 6 destroyed
Warning: badly conditioned DIIS matrix, 1 vectors out of 5 destroyed
118   -606.2468164371  -0.000000734583 0.10123671  0.00219284  0.0016740   0.001349857
Warning: badly conditioned DIIS matrix, 1 vectors out of 5 destroyed
Warning: badly conditioned DIIS matrix, 1 vectors out of 4 destroyed
119   -606.2468099643   0.000006472758 0.01889197  0.00025290  0.0124423   0.009798016
Warning: badly conditioned DIIS matrix, 1 vectors out of 4 destroyed
120   -606.2464097663   0.000400198037 0.16516068  0.00372040  0.0162483   0.012787641
121   -606.2456961598   0.000713606489 0.05465198  0.00149164  0.0128753   0.010332665
122   -606.2468417367  -0.001145576852 0.00313930  0.00007996  0.0010220   0.000835815
123   -606.2468559641  -0.000014227439 0.00198896  0.00005160  0.0006850   0.000577097
Warning: badly conditioned DIIS matrix, 1 vectors out of 7 destroyed
Warning: badly conditioned DIIS matrix, 1 vectors out of 6 destroyed
Warning: badly conditioned DIIS matrix, 1 vectors out of 5 destroyed
Warning: badly conditioned DIIS matrix, 1 vectors out of 4 destroyed
124   -606.2468475543   0.000008409800 0.05359919  0.00114583  0.0008374   0.000696048
125   -606.2465932854   0.000254268910 0.06521772  0.00136347  0.0037096   0.003032198
126   -606.2468698545  -0.000276569138 0.00009407  0.00000164  0.0013527   0.001089097
127   -606.2468699401  -0.000000085563 0.00998448  0.00021916  0.0013624   0.001097158
128   -606.2469001603  -0.000030220160 0.01050812  0.00024292  0.0016933   0.001357626
Warning: badly conditioned DIIS matrix, 1 vectors out of 8 destroyed
Warning: badly conditioned DIIS matrix, 1 vectors out of 7 destroyed
129   -606.2468640865   0.000036073758 0.00925127  0.00020341  0.0014973   0.001201958
130   -606.2468913625  -0.000027275950 0.00321891  0.00008097  0.0017737   0.001423221
Warning: badly conditioned DIIS matrix, 1 vectors out of 8 destroyed
131   -606.2468778597   0.000013502769 0.01471663  0.00035973  0.0017624   0.001417237
Warning: badly conditioned DIIS matrix, 1 vectors out of 8 destroyed
132   -606.2468217199   0.000056139789 0.00295192  0.00003889  0.0020432   0.001640976
133   -606.2468049857   0.000016734238 0.00607998  0.00015910  0.0027461   0.002166008
134   -606.2467668111   0.000038174521 0.00400417  0.00010453  0.0033643   0.002673298
135   -606.2467899558  -0.000023144660 0.00433657  0.00011053  0.0030368   0.002412762
136   -606.2468183368  -0.000028381040 0.00012025  0.00000229  0.0025103   0.002002751
Warning: badly conditioned DIIS matrix, 1 vectors out of 12 destroyed
Warning: badly conditioned DIIS matrix, 1 vectors out of 11 destroyed
Warning: badly conditioned DIIS matrix, 1 vectors out of 10 destroyed
137   -606.2468194958  -0.000001158954 0.00151563  0.00003837  0.0024697   0.001971231
Warning: badly conditioned DIIS matrix, 1 vectors out of 10 destroyed
Warning: badly conditioned DIIS matrix, 1 vectors out of 9 destroyed
138   -606.2468344939  -0.000014998118 0.03052902  0.00075888  0.0020040   0.001608692
139   -606.2469652921  -0.000130798157 0.02911582  0.00074325  0.0025213   0.002012037
Warning: badly conditioned DIIS matrix, 1 vectors out of 10 destroyed
Warning: badly conditioned DIIS matrix, 1 vectors out of 9 destroyed
140   -606.2468326186   0.000132673454 0.00198762  0.00003986  0.0021764   0.001734237
Warning: badly conditioned DIIS matrix, 1 vectors out of 9 destroyed
Warning: badly conditioned DIIS matrix, 1 vectors out of 8 destroyed
141   -606.2468286408   0.000003977831 0.01007903  0.00026473  0.0021269   0.001692789
Warning: badly conditioned DIIS matrix, 1 vectors out of 8 destroyed
142   -606.2467763202   0.000052320573 0.01051218  0.00026546  0.0028883   0.002295010
Warning: badly conditioned DIIS matrix, 1 vectors out of 8 destroyed
143   -606.2466811500   0.000095170203 0.02317677  0.00059041  0.0045368   0.003596066
144   -606.2468426803  -0.000161530296 0.00428048  0.00010444  0.0018477   0.001477737
145   -606.2468264847   0.000016195568 0.00848918  0.00018185  0.0019735   0.001574868
146   -606.2468024865   0.000023998192 0.00727926  0.00017905  0.0020541   0.001640639
147   -606.2468324515  -0.000029964914 0.00162125  0.00003350  0.0016542   0.001318651
148   -606.2468363222  -0.000003870787 0.00125587  0.00002874  0.0016734   0.001335865
Warning: badly conditioned DIIS matrix, 1 vectors out of 13 destroyed
Warning: badly conditioned DIIS matrix, 1 vectors out of 12 destroyed
Warning: badly conditioned DIIS matrix, 1 vectors out of 11 destroyed
Warning: badly conditioned DIIS matrix, 1 vectors out of 10 destroyed
Warning: badly conditioned DIIS matrix, 1 vectors out of 9 destroyed
Warning: badly conditioned DIIS matrix, 1 vectors out of 8 destroyed
Warning: badly conditioned DIIS matrix, 1 vectors out of 7 destroyed
149   -606.2468322345   0.000004087727 0.08768621  0.00192710  0.0016973   0.001353991
Warning: badly conditioned DIIS matrix, 1 vectors out of 7 destroyed
Warning: badly conditioned DIIS matrix, 1 vectors out of 6 destroyed
Warning: badly conditioned DIIS matrix, 1 vectors out of 5 destroyed
150   -606.2468964474  -0.000064212871 0.05253472  0.00113837  0.0108959   0.008606280
Warning: badly conditioned DIIS matrix, 1 vectors out of 5 destroyed
Warning: badly conditioned DIIS matrix, 1 vectors out of 4 destroyed
151   -606.2452276358   0.001668811608 0.17237820  0.00373854  0.0259282   0.020283447
152   -606.2466943142  -0.001466678407 0.02611813  0.00059232  0.0033281   0.002662447
153   -606.2468178759  -0.000123561688 0.00638673  0.00014433  0.0016823   0.001351156
154   -606.2467958030   0.000022072861 0.01046189  0.00023587  0.0019132   0.001528765
155   -606.2468308465  -0.000035043528 0.00056101  0.00001276  0.0015850   0.001269134
Warning: badly conditioned DIIS matrix, 1 vectors out of 8 destroyed
Warning: badly conditioned DIIS matrix, 1 vectors out of 7 destroyed
Warning: badly conditioned DIIS matrix, 1 vectors out of 6 destroyed
156   -606.2468326202  -0.000001773631 0.04064300  0.00090067  0.0015756   0.001259636
157   -606.2469587783  -0.000126158145 0.00044837  0.00000990  0.0032092   0.002562567
158   -606.2469573547   0.000001423600 0.03408822  0.00075162  0.0031689   0.002531027
159   -606.2468521315   0.000105223206 0.00044185  0.00001020  0.0014919   0.001202522
Warning: badly conditioned DIIS matrix, 1 vectors out of 9 destroyed
Warning: badly conditioned DIIS matrix, 1 vectors out of 8 destroyed
Warning: badly conditioned DIIS matrix, 1 vectors out of 7 destroyed
Warning: badly conditioned DIIS matrix, 1 vectors out of 6 destroyed
Warning: badly conditioned DIIS matrix, 1 vectors out of 5 destroyed
Warning: badly conditioned DIIS matrix, 1 vectors out of 4 destroyed
Warning: badly conditioned DIIS matrix, 1 vectors out of 3 destroyed
160   -606.2468535785  -0.000001446943 0.24818648  0.00539074  0.0014884   0.001199729
Warning: badly conditioned DIIS matrix, 1 vectors out of 3 destroyed
161   -606.2180070217   0.028846556776 0.25384382  0.00539151  0.0853739   0.066773052
162   -606.2468453653  -0.028838343598 0.00138594  0.00005048  0.0024579   0.002482930
163   -606.2468753811  -0.000030015872 0.00272389  0.00006259  0.0003058   0.000236690
164   -606.2468843001  -0.000008918978 0.00173677  0.00004283  0.0007542   0.000644821
Warning: badly conditioned DIIS matrix, 1 vectors out of 6 destroyed
Warning: badly conditioned DIIS matrix, 1 vectors out of 5 destroyed
165   -606.2468916419  -0.000007341785 0.01815229  0.00045262  0.0007564   0.000625377
166   -606.2468236430   0.000067998875 0.00480274  0.00006362  0.0009294   0.000840594
167   -606.2468233618   0.000000281238 0.00537628  0.00012508  0.0011918   0.000899817
168   -606.2468026222   0.000020739550 0.02093068  0.00045819  0.0015878   0.001282163
169   -606.2468635320  -0.000060909791 0.00188233  0.00004133  0.0014425   0.001169738
170   -606.2468689001  -0.000005368074 0.01557288  0.00034479  0.0014820   0.001201119
171   -606.2469173353  -0.000048435215 0.01841203  0.00045737  0.0021017   0.001693689
172   -606.2468263527   0.000090982590 0.00037460  0.00000882  0.0026714   0.002145327
173   -606.2468238501   0.000002502638 0.02030016  0.00050689  0.0027199   0.002184315
Warning: badly conditioned DIIS matrix, 1 vectors out of 13 destroyed
Warning: badly conditioned DIIS matrix, 1 vectors out of 12 destroyed
174   -606.2467127137   0.000111136404 0.02266431  0.00057488  0.0041224   0.003301583
175   -606.2468538636  -0.000141149878 0.00260368  0.00006610  0.0018382   0.001479780
176   -606.2468421545   0.000011709032 0.00639502  0.00013634  0.0019610   0.001576656
Warning: badly conditioned DIIS matrix, 1 vectors out of 14 destroyed
Warning: badly conditioned DIIS matrix, 1 vectors out of 13 destroyed
177   -606.2468584792  -0.000016324609 0.01690813  0.00041579  0.0020862   0.001676238
178   -606.2469276188  -0.000069139670 0.02815479  0.00070712  0.0024214   0.001942549
179   -606.2468068673   0.000120751566 0.00059835  0.00001068  0.0025978   0.002078762
Warning: badly conditioned DIIS matrix, 1 vectors out of 15 destroyed
Warning: badly conditioned DIIS matrix, 1 vectors out of 14 destroyed
Warning: badly conditioned DIIS matrix, 1 vectors out of 13 destroyed
Warning: badly conditioned DIIS matrix, 1 vectors out of 12 destroyed
Warning: badly conditioned DIIS matrix, 1 vectors out of 11 destroyed
Warning: badly conditioned DIIS matrix, 1 vectors out of 10 destroyed
Warning: badly conditioned DIIS matrix, 1 vectors out of 9 destroyed
180   -606.2468062753   0.000000591951 0.02067771  0.00052988  0.0025723   0.002058526
181   -606.2468994421  -0.000093166751 0.01135646  0.00026826  0.0019777   0.001587359
Warning: badly conditioned DIIS matrix, 1 vectors out of 10 destroyed
182   -606.2468587340   0.000040708005 0.04358552  0.00113961  0.0018065   0.001450522
Warning: badly conditioned DIIS matrix, 1 vectors out of 10 destroyed
Warning: badly conditioned DIIS matrix, 1 vectors out of 9 destroyed
Warning: badly conditioned DIIS matrix, 1 vectors out of 8 destroyed
Warning: badly conditioned DIIS matrix, 1 vectors out of 7 destroyed
Warning: badly conditioned DIIS matrix, 1 vectors out of 6 destroyed
Warning: badly conditioned DIIS matrix, 1 vectors out of 5 destroyed
183   -606.2464786012   0.000380132861 0.05035745  0.00131565  0.0067328   0.005396714
184   -606.2468937879  -0.000415186683 0.00204979  0.00005095  0.0014402   0.001162238
185   -606.2469024292  -0.000008641378 0.01167987  0.00028459  0.0014686   0.001185664
186   -606.2468574464   0.000044982860 0.01086431  0.00028063  0.0014410   0.001161210
187   -606.2468094052   0.000048041183 0.00010196  0.00000233  0.0020620   0.001653378
Warning: badly conditioned DIIS matrix, 1 vectors out of 9 destroyed
Warning: badly conditioned DIIS matrix, 1 vectors out of 8 destroyed
Warning: badly conditioned DIIS matrix, 1 vectors out of 7 destroyed
Warning: badly conditioned DIIS matrix, 1 vectors out of 6 destroyed
Warning: badly conditioned DIIS matrix, 1 vectors out of 5 destroyed
Warning: badly conditioned DIIS matrix, 1 vectors out of 4 destroyed
Warning: badly conditioned DIIS matrix, 1 vectors out of 3 destroyed
188   -606.2468097653  -0.000000360084 0.06042081  0.00135737  0.0020585   0.001650607
189   -606.2469944392  -0.000184673933 0.00285750  0.00006528  0.0051175   0.004051106
Warning: badly conditioned DIIS matrix, 1 vectors out of 4 destroyed
190   -606.2469861475   0.000008291771 0.18763939  0.00426090  0.0047941   0.003806202
Warning: badly conditioned DIIS matrix, 1 vectors out of 4 destroyed
191   -606.2412170088   0.005769138689 0.17124099  0.00387166  0.0267589   0.022185903
Warning: badly conditioned DIIS matrix, 1 vectors out of 4 destroyed
192   -606.2469186123  -0.005701603512 0.02022992  0.00050924  0.0033627   0.002681410
193   -606.2468191142   0.000099498030 0.00809412  0.00020464  0.0034253   0.002777082
194   -606.2468586933  -0.000039579053 0.00836501  0.00021087  0.0032242   0.002623513
195   -606.2468984834  -0.000039790152 0.00776463  0.00019359  0.0032930   0.002660889
Warning: badly conditioned DIIS matrix, 1 vectors out of 7 destroyed
196   -606.2469367572  -0.000038273799 0.02422168  0.00060182  0.0035910   0.002897917
197   -606.2468132585   0.000123498698 0.01210568  0.00030226  0.0036546   0.002954562
198   -606.2468751478  -0.000061889254 0.00814570  0.00020302  0.0033488   0.002723402
Warning: badly conditioned DIIS matrix, 1 vectors out of 9 destroyed
199   -606.2468359522   0.000039195653 0.11179236  0.00275495  0.0034287   0.002745356
200   -606.2455435645   0.001292387695 0.10738767  0.00265592  0.0251813   0.019665620
201   -606.2468668275  -0.001323263062 0.00557647  0.00007027  0.0030330   0.002415779
Warning: badly conditioned DIIS matrix, 1 vectors out of 11 destroyed
Warning: badly conditioned DIIS matrix, 1 vectors out of 10 destroyed
202   -606.2468818969  -0.000015069358 0.01002499  0.00019752  0.0022031   0.001756520
Warning: badly conditioned DIIS matrix, 1 vectors out of 10 destroyed
203   -606.2468626039   0.000019292958 0.00618949  0.00012909  0.0016547   0.001291700
204   -606.2468474089   0.000015194994 0.00492941  0.00008804  0.0015136   0.001177073
205   -606.2468529636  -0.000005554673 0.00510254  0.00009479  0.0018475   0.001458276
Warning: badly conditioned DIIS matrix, 1 vectors out of 12 destroyed
206   -606.2468602995  -0.000007335883 0.04841031  0.00090922  0.0021283   0.001683367
207   -606.2467631677   0.000097131773 0.00334085  0.00006641  0.0010422   0.000836099
Warning: badly conditioned DIIS matrix, 1 vectors out of 13 destroyed
Warning: badly conditioned DIIS matrix, 1 vectors out of 12 destroyed
Warning: badly conditioned DIIS matrix, 1 vectors out of 11 destroyed
Warning: badly conditioned DIIS matrix, 1 vectors out of 10 destroyed
Warning: badly conditioned DIIS matrix, 1 vectors out of 9 destroyed
208   -606.2467737401  -0.000010572377 0.04525492  0.00091830  0.0009537   0.000764237
209   -606.2468904462  -0.000116706074 0.00573972  0.00011125  0.0012487   0.001008596
210   -606.2468775507   0.000012895463 0.00758324  0.00015257  0.0009249   0.000749230
211   -606.2468966842  -0.000019133457 0.00140304  0.00003147  0.0012981   0.001049362
212   -606.2468900028   0.000006681332 0.00024474  0.00000318  0.0013712   0.001115314
Warning: badly conditioned DIIS matrix, 1 vectors out of 13 destroyed
213   -606.2468897899   0.000000212950 0.00522585  0.00012815  0.0014054   0.001142101
214   -606.2469112414  -0.000021451538 0.01063095  0.00026969  0.0015153   0.001228801
215   -606.2468659723   0.000045269098 0.00599676  0.00013756  0.0014868   0.001203929
216   -606.2468857682  -0.000019795900 0.00119863  0.00002754  0.0015877   0.001283975
Warning: badly conditioned DIIS matrix, 1 vectors out of 16 destroyed
Warning: badly conditioned DIIS matrix, 1 vectors out of 15 destroyed
Warning: badly conditioned DIIS matrix, 1 vectors out of 14 destroyed
Warning: badly conditioned DIIS matrix, 1 vectors out of 13 destroyed
Warning: badly conditioned DIIS matrix, 1 vectors out of 12 destroyed
Warning: badly conditioned DIIS matrix, 1 vectors out of 11 destroyed
Warning: badly conditioned DIIS matrix, 1 vectors out of 10 destroyed
Warning: badly conditioned DIIS matrix, 1 vectors out of 9 destroyed
217   -606.2468817133   0.000004054948 0.10687975  0.00263837  0.0015609   0.001262702
Warning: badly conditioned DIIS matrix, 4 vectors out of 9 destroyed
Warning: badly conditioned DIIS matrix, 2 vectors out of 5 destroyed
Warning: badly conditioned DIIS matrix, 1 vectors out of 3 destroyed
218   -606.2441409248   0.002740788442 0.11407914  0.00281778  0.0189060   0.015411587
219   -606.2469183366  -0.002777411807 0.00736759  0.00018679  0.0012434   0.000958890
220   -606.2469536449  -0.000035308253 0.00408295  0.00010356  0.0016647   0.001361135
221   -606.2469323583   0.000021286536 0.01790282  0.00045455  0.0015234   0.001250412
Warning: badly conditioned DIIS matrix, 1 vectors out of 6 destroyed
222   -606.2468483775   0.000083980873 0.00223575  0.00005778  0.0018219   0.001461688
Warning: badly conditioned DIIS matrix, 1 vectors out of 6 destroyed
223   -606.2468582768  -0.000009899336 0.06603227  0.00177784  0.0017280   0.001386207
Warning: badly conditioned DIIS matrix, 1 vectors out of 6 destroyed
Warning: badly conditioned DIIS matrix, 1 vectors out of 5 destroyed
Warning: badly conditioned DIIS matrix, 1 vectors out of 4 destroyed
224   -606.2456112698   0.001247006989 0.08518184  0.00226704  0.0131891   0.010610664
Warning: badly conditioned DIIS matrix, 1 vectors out of 4 destroyed
225   -606.2469494352  -0.001338165344 0.03411825  0.00085698  0.0018249   0.001477145
226   -606.2471299562  -0.000180520999 0.04791841  0.00120698  0.0055654   0.004410170
Warning: badly conditioned DIIS matrix, 1 vectors out of 5 destroyed
227   -606.2468825101   0.000247446083 0.00178319  0.00004487  0.0016276   0.001315730
Warning: badly conditioned DIIS matrix, 1 vectors out of 5 destroyed
228   -606.2468744322   0.000008077856 0.07047005  0.00190073  0.0016721   0.001347708
Warning: badly conditioned DIIS matrix, 1 vectors out of 5 destroyed
Warning: badly conditioned DIIS matrix, 1 vectors out of 4 destroyed
229   -606.2455432645   0.001331167747 0.08917153  0.00236545  0.0135925   0.010932804
230   -606.2469670694  -0.001423804910 0.01268298  0.00031909  0.0018994   0.001527990
231   -606.2469019533   0.000065116128 0.00236285  0.00006001  0.0015902   0.001277153
Warning: badly conditioned DIIS matrix, 1 vectors out of 6 destroyed
232   -606.2469129795  -0.000011026281 0.01826682  0.00045953  0.0016234   0.001310042
233   -606.2470115725  -0.000098592921 0.01923181  0.00048212  0.0024993   0.002010790
Warning: badly conditioned DIIS matrix, 1 vectors out of 7 destroyed
Warning: badly conditioned DIIS matrix, 1 vectors out of 6 destroyed
234   -606.2469081490   0.000103423502 0.06773917  0.00177113  0.0016484   0.001332537
235   -606.2460225491   0.000885599841 0.07880488  0.00204296  0.0108119   0.008670754
Warning: badly conditioned DIIS matrix, 1 vectors out of 7 destroyed
236   -606.2469649423  -0.000942393137 0.00056261  0.00001431  0.0019286   0.001556766
Warning: badly conditioned DIIS matrix, 1 vectors out of 7 destroyed
Warning: badly conditioned DIIS matrix, 1 vectors out of 6 destroyed
Warning: badly conditioned DIIS matrix, 1 vectors out of 5 destroyed
237   -606.2469680422  -0.000003099954 0.00132580  0.00003284  0.0019582   0.001579899
Warning: badly conditioned DIIS matrix, 1 vectors out of 5 destroyed
Warning: badly conditioned DIIS matrix, 1 vectors out of 4 destroyed
238   -606.2469607498   0.000007292425 0.05078804  0.00127420  0.0018999   0.001532613
239   -606.2466367335   0.000324016292 0.04606122  0.00116894  0.0054669   0.004435137
240   -606.2469260132  -0.000289279725 0.00107887  0.00002500  0.0024092   0.002042007
241   -606.2469210463   0.000004966875 0.01621218  0.00041294  0.0023507   0.001896902
242   -606.2468399676   0.000081078694 0.00328118  0.00006149  0.0026510   0.002142190
243   -606.2468446803  -0.000004712686 0.00566984  0.00013351  0.0020762   0.001655720
Warning: badly conditioned DIIS matrix, 1 vectors out of 9 destroyed
244   -606.2468631926  -0.000018512276 0.01646162  0.00042847  0.0020973   0.001683117
245   -606.2467752091   0.000087983478 0.00784777  0.00019600  0.0032569   0.002579097
246   -606.2468124397  -0.000037230571 0.02101095  0.00054115  0.0028203   0.002229635
247   -606.2469094916  -0.000097051899 0.00232427  0.00005854  0.0024548   0.001945756
248   -606.2469219948  -0.000012503242 0.02445032  0.00061529  0.0024664   0.001955039
249   -606.2470452873  -0.000123292484 0.00474969  0.00006758  0.0044551   0.003528990
Warning: badly conditioned DIIS matrix, 1 vectors out of 14 destroyed
250   -606.2470607106  -0.000015423318 0.01221359  0.00028814  0.0036041   0.002860421
251   -606.2469598383   0.000100872339 0.01098938  0.00026040  0.0035309   0.002802196
252   -606.2468759460   0.000083892352 0.00028880  0.00000706  0.0039425   0.003122545
Warning: badly conditioned DIIS matrix, 1 vectors out of 16 destroyed
Warning: badly conditioned DIIS matrix, 1 vectors out of 15 destroyed
Warning: badly conditioned DIIS matrix, 1 vectors out of 14 destroyed
Warning: badly conditioned DIIS matrix, 1 vectors out of 13 destroyed
Warning: badly conditioned DIIS matrix, 1 vectors out of 12 destroyed
Warning: badly conditioned DIIS matrix, 1 vectors out of 11 destroyed
Warning: badly conditioned DIIS matrix, 1 vectors out of 10 destroyed
Warning: badly conditioned DIIS matrix, 1 vectors out of 9 destroyed
Warning: badly conditioned DIIS matrix, 1 vectors out of 8 destroyed
Warning: badly conditioned DIIS matrix, 1 vectors out of 7 destroyed
Warning: badly conditioned DIIS matrix, 1 vectors out of 6 destroyed
Warning: badly conditioned DIIS matrix, 1 vectors out of 5 destroyed
Warning: badly conditioned DIIS matrix, 1 vectors out of 4 destroyed
Warning: badly conditioned DIIS matrix, 1 vectors out of 3 destroyed
Warning: badly conditioned DIIS matrix, 1 vectors out of 2 destroyed
253   -606.2468774700  -0.000001524055 0.01400244  0.00023065  0.0039440   0.003123731
254   -606.2469023006  -0.000024830598 0.00291631  0.00009554  0.0038249   0.003668144
255   -606.2469560414  -0.000053740763 0.00304109  0.00005761  0.0013369   0.001340692
256   -606.2469725120  -0.000016470659 0.00150470  0.00003159  0.0005299   0.000548664
257   -606.2469647228   0.000007789220 0.01752586  0.00040004  0.0004773   0.000421679
258   -606.2468814480   0.000083274832 0.00423530  0.00007749  0.0011021   0.001031282
259   -606.2468568970   0.000024550979 0.03602139  0.00086792  0.0021827   0.001879323
260   -606.2470033125  -0.000146415489 0.01830032  0.00040112  0.0040859   0.003317913
261   -606.2468498645   0.000153448004 0.00022916  0.00000517  0.0048420   0.003888755
262   -606.2468511599  -0.000001295380 0.01513458  0.00033487  0.0048406   0.003886242
263   -606.2467178096   0.000133350243 0.06410774  0.00144792  0.0061708   0.004949347
264   -606.2471323283  -0.000414518664 0.07011084  0.00144038  0.0079210   0.006269288
Warning: badly conditioned DIIS matrix, 1 vectors out of 13 destroyed
Warning: badly conditioned DIIS matrix, 1 vectors out of 12 destroyed
265   -606.2469071834   0.000225144906 0.02332838  0.00052248  0.0019762   0.001507670
Warning: badly conditioned DIIS matrix, 1 vectors out of 12 destroyed
266   -606.2470436548  -0.000136471450 0.03318616  0.00072783  0.0025687   0.001990468
267   -606.2468812725   0.000162382348 0.00360223  0.00008079  0.0003836   0.000214404
Warning: badly conditioned DIIS matrix, 1 vectors out of 13 destroyed
268   -606.2468958078  -0.000014535338 0.00637334  0.00015267  0.0003416   0.000198987
269   -606.2469241052  -0.000028297373 0.00316176  0.00007746  0.0003971   0.000323045
270   -606.2469093711   0.000014734112 0.00424053  0.00010222  0.0004121   0.000334478
271   -606.2469293015  -0.000019930423 0.00056517  0.00001361  0.0004565   0.000372397
Warning: badly conditioned DIIS matrix, 1 vectors out of 16 destroyed
Warning: badly conditioned DIIS matrix, 1 vectors out of 15 destroyed
Warning: badly conditioned DIIS matrix, 1 vectors out of 14 destroyed
Warning: badly conditioned DIIS matrix, 1 vectors out of 13 destroyed
Warning: badly conditioned DIIS matrix, 1 vectors out of 12 destroyed
Warning: badly conditioned DIIS matrix, 1 vectors out of 11 destroyed
Warning: badly conditioned DIIS matrix, 1 vectors out of 10 destroyed
Warning: badly conditioned DIIS matrix, 1 vectors out of 9 destroyed
Warning: badly conditioned DIIS matrix, 1 vectors out of 8 destroyed
Warning: badly conditioned DIIS matrix, 1 vectors out of 7 destroyed
272   -606.2469265180   0.000002783479 0.03833503  0.00093770  0.0004553   0.000371138
Warning: badly conditioned DIIS matrix, 1 vectors out of 7 destroyed
Warning: badly conditioned DIIS matrix, 1 vectors out of 6 destroyed
Warning: badly conditioned DIIS matrix, 1 vectors out of 5 destroyed
Warning: badly conditioned DIIS matrix, 1 vectors out of 4 destroyed
273   -606.2467526585   0.000173859525 0.00345896  0.00008938  0.0025985   0.002077308
274   -606.2467270834   0.000025575105 0.00285210  0.00007347  0.0030487   0.002435107
275   -606.2467482457  -0.000021162308 0.00133259  0.00003460  0.0026816   0.002142971
Warning: badly conditioned DIIS matrix, 1 vectors out of 6 destroyed
276   -606.2467385517   0.000009693978 0.02192625  0.00056159  0.0028527   0.002278074
277   -606.2468485996  -0.000110047875 0.00335941  0.00006835  0.0009392   0.000771803
278   -606.2468405535   0.000008046140 0.00010172  0.00000227  0.0008915   0.000734537
Warning: badly conditioned DIIS matrix, 1 vectors out of 8 destroyed
Warning: badly conditioned DIIS matrix, 1 vectors out of 7 destroyed
279   -606.2468410552  -0.000000501745 0.02063268  0.00043103  0.0008715   0.000719053
280   -606.2468956703  -0.000054615096 0.02369976  0.00055008  0.0014101   0.001160614
Warning: badly conditioned DIIS matrix, 1 vectors out of 8 destroyed
Warning: badly conditioned DIIS matrix, 1 vectors out of 7 destroyed
Warning: badly conditioned DIIS matrix, 1 vectors out of 6 destroyed
281   -606.2468157305   0.000079939793 0.02940000  0.00066886  0.0015752   0.001293664
Warning: badly conditioned DIIS matrix, 1 vectors out of 6 destroyed
Warning: badly conditioned DIIS matrix, 1 vectors out of 5 destroyed
282   -606.2466470694   0.000168661061 0.04033496  0.00094506  0.0041392   0.003441141
283   -606.2468587974  -0.000211727968 0.00330289  0.00008400  0.0011171   0.000945084
284   -606.2468466675   0.000012129900 0.00232824  0.00004555  0.0011466   0.000961103
285   -606.2468518736  -0.000005206052 0.02305484  0.00051148  0.0011884   0.000986079
286   -606.2467768292   0.000075044325 0.01231227  0.00026991  0.0018474   0.001511884
287   -606.2468174026  -0.000040573311 0.00592843  0.00013399  0.0014719   0.001209382
288   -606.2467973300   0.000020072591 0.00620897  0.00013701  0.0016820   0.001367958
289   -606.2468173832  -0.000020053235 0.00242111  0.00005257  0.0014880   0.001204608
290   -606.2468243972  -0.000007014014 0.00148090  0.00003252  0.0014520   0.001175616
291   -606.2468286999  -0.000004302723 0.00595058  0.00013017  0.0014326   0.001156856
Warning: badly conditioned DIIS matrix, 1 vectors out of 14 destroyed
292   -606.2468110680   0.000017631976 0.01660014  0.00036003  0.0015361   0.001239355
Warning: badly conditioned DIIS matrix, 1 vectors out of 14 destroyed
Warning: badly conditioned DIIS matrix, 1 vectors out of 13 destroyed
293   -606.2468581056  -0.000047037634 0.03830217  0.00082974  0.0014580   0.001174912
Warning: badly conditioned DIIS matrix, 1 vectors out of 13 destroyed
294   -606.2469664041  -0.000108298470 0.01483439  0.00030851  0.0038645   0.003082757
Warning: badly conditioned DIIS matrix, 1 vectors out of 13 destroyed
Warning: badly conditioned DIIS matrix, 1 vectors out of 12 destroyed
Warning: badly conditioned DIIS matrix, 1 vectors out of 11 destroyed
Warning: badly conditioned DIIS matrix, 1 vectors out of 10 destroyed
295   -606.2469811119  -0.000014707831 0.02346805  0.00050856  0.0058070   0.004596533
296   -606.2469369679   0.000044143945 0.01148059  0.00023871  0.0030957   0.002462464
297   -606.2469087324   0.000028235575 0.00053594  0.00001089  0.0021877   0.001749042
Warning: badly conditioned DIIS matrix, 1 vectors out of 12 destroyed
Warning: badly conditioned DIIS matrix, 1 vectors out of 11 destroyed
Warning: badly conditioned DIIS matrix, 1 vectors out of 10 destroyed
298   -606.2469074613   0.000001271090 0.01720804  0.00036834  0.0021499   0.001720970
Warning: badly conditioned DIIS matrix, 1 vectors out of 10 destroyed
Warning: badly conditioned DIIS matrix, 1 vectors out of 9 destroyed
Warning: badly conditioned DIIS matrix, 1 vectors out of 8 destroyed
Warning: badly conditioned DIIS matrix, 1 vectors out of 7 destroyed
Warning: badly conditioned DIIS matrix, 1 vectors out of 6 destroyed
299   -606.2468599980   0.000047463245 0.06989054  0.00152592  0.0014606   0.001171601
                    *** KDIIS BlockDiag (70.987 sec) ***

               *****************************************************
               *                      ERROR                        *
               *        SCF NOT CONVERGED AFTER 300 CYCLES         *
               *****************************************************


---------------
SCF CONVERGENCE
---------------

  Last Energy change         ...    4.7463e-05  Tolerance :   1.0000e-09
  Last MAX-Density change    ...    6.9891e-02  Tolerance :   1.0000e-08
  Last RMS-Density change    ...    1.5259e-03  Tolerance :   1.0000e-09

     --------------------------------------------------------------------
                                      ERROR
     This wavefunction IS NOT CONVERGED! 
     And it is 'too far' from meeting the convergence thresholds.
     Aborting ...
     Please restart calculation (with larger maxiter?)
     --------------------------------------------------------------------



ORCA finished by error termination in SCF
Calling Command: mpirun -np 24  /sw/apps/orca/orca_4_2_0_linux_x86-64_openmpi314/orca_scf_mpi 61_Pm.gbw b 61_Pm 
[file orca_tools/qcmsg.cpp, line 458]: 
  .... aborting the run

