
                                 *****************
                                 * O   R   C   A *
                                 *****************

           --- An Ab Initio, DFT and Semiempirical electronic structure package ---

                  #######################################################
                  #                        -***-                        #
                  #          Department of theory and spectroscopy      #
                  #               Directorship: Frank Neese             #
                  #        Max Planck Institute fuer Kohlenforschung    #
                  #                Kaiser Wilhelm Platz 1               #
                  #                 D-45470 Muelheim/Ruhr               #
                  #                      Germany                        #
                  #                                                     #
                  #                  All rights reserved                #
                  #                        -***-                        #
                  #######################################################


                         Program Version 4.2.0 -  RELEASE  -


 With contributions from (in alphabetic order):
   Daniel Aravena         : Magnetic Suceptibility
   Michael Atanasov       : Ab Initio Ligand Field Theory (pilot matlab implementation)
   Alexander A. Auer      : GIAO ZORA, VPT2
   Ute Becker             : Parallelization
   Giovanni Bistoni       : ED, misc. LED, open-shell LED, HFLED
   Martin Brehm           : Molecular dynamics
   Dmytro Bykov           : SCF Hessian
   Vijay G. Chilkuri      : MRCI spin determinant printing, contributions to CSF-ICE
   Dipayan Datta          : RHF DLPNO-CCSD density
   Achintya Kumar Dutta   : EOM-CC, STEOM-CC
   Dmitry Ganyushin       : Spin-Orbit,Spin-Spin,Magnetic field MRCI
   Miquel Garcia          : C-PCM Hessian, Gaussian charge scheme
   Yang Guo               : DLPNO-NEVPT2, CIM, IAO-localization
   Andreas Hansen         : Spin unrestricted coupled pair/coupled cluster methods
   Benjamin Helmich-Paris : CASSCF linear response (MC-RPA)
   Lee Huntington         : MR-EOM, pCC
   Robert Izsak           : Overlap fitted RIJCOSX, COSX-SCS-MP3, EOM
   Christian Kollmar      : KDIIS, OOCD, Brueckner-CCSD(T), CCSD density
   Simone Kossmann        : Meta GGA functionals, TD-DFT gradient, OOMP2, MP2 Hessian
   Martin Krupicka        : AUTO-CI
   Lucas Lang             : DCDCAS
   Dagmar Lenk            : GEPOL surface, SMD
   Dimitrios Liakos       : Extrapolation schemes; Compound Job, initial MDCI parallelization
   Dimitrios Manganas     : Further ROCIS development; embedding schemes
   Dimitrios Pantazis     : SARC Basis sets
   Taras Petrenko         : DFT Hessian,TD-DFT gradient, ASA, ECA, R-Raman, ABS, FL, XAS/XES, NRVS
   Peter Pinski           : DLPNO-MP2, DLPNO-MP2 Gradient
   Christoph Reimann      : Effective Core Potentials
   Marius Retegan         : Local ZFS, SOC
   Christoph Riplinger    : Optimizer, TS searches, QM/MM, DLPNO-CCSD(T), (RO)-DLPNO pert. Triples
   Tobias Risthaus        : Range-separated hybrids, TD-DFT gradient, RPA, STAB
   Michael Roemelt        : Original ROCIS implementation
   Masaaki Saitow         : Open-shell DLPNO-CCSD energy and density
   Barbara Sandhoefer     : DKH picture change effects
   Avijit Sen             : IP-ROCIS
   Kantharuban Sivalingam : CASSCF convergence, NEVPT2, FIC-MRCI
   Bernardo de Souza      : ESD, SOC TD-DFT
   Georgi Stoychev        : AutoAux, RI-MP2 NMR
   Willem Van den Heuvel  : Paramagnetic NMR
   Boris Wezisla          : Elementary symmetry handling
   Frank Wennmohs         : Technical directorship


 We gratefully acknowledge several colleagues who have allowed us to
 interface, adapt or use parts of their codes:
   Stefan Grimme, W. Hujo, H. Kruse,             : VdW corrections, initial TS optimization,
                  C. Bannwarth                     DFT functionals, gCP, sTDA/sTD-DF
   Ed Valeev, F. Pavosevic, A. Kumar             : LibInt (2-el integral package), F12 methods
   Garnet Chan, S. Sharma, J. Yang, R. Olivares  : DMRG
   Ulf Ekstrom                                   : XCFun DFT Library
   Mihaly Kallay                                 : mrcc  (arbitrary order and MRCC methods)
   Andreas Klamt, Michael Diedenhofen            : otool_cosmo (COSMO solvation model)
   Jiri Pittner, Ondrej Demel                    : Mk-CCSD
   Frank Weinhold                                : gennbo (NPA and NBO analysis)
   Christopher J. Cramer and Donald G. Truhlar   : smd solvation model
   Lars Goerigk                                  : TD-DFT with DH, B97 family of functionals
   V. Asgeirsson, H. Jonsson                     : NEB implementation
   FAccTs GmbH                                   : IRC, NEB, NEB-TS, Multilevel, MM, QM/MM, CI optimization
   S Lehtola, MJT Oliveira, MAL Marques          : LibXC Library


 Your calculation uses the libint2 library for the computation of 2-el integrals
 For citations please refer to: http://libint.valeyev.net

 Your ORCA version has been built with support for libXC version: 4.2.3
 For citations please refer to: https://tddft.org/programs/libxc/

 This ORCA versions uses:
   CBLAS   interface :  Fast vector & matrix operations
   LAPACKE interface :  Fast linear algebra routines
   SCALAPACK package :  Parallel linear algebra routines


----- Orbital basis set information -----
Your calculation utilizes the basis: def2-SVP
   F. Weigend and R. Ahlrichs, Phys. Chem. Chem. Phys. 7, 3297 (2005).

cite the ECPs for Eu [Def2-ECP] as follows:
Ce-Yb(ecp-28): M. Dolg, H. Stoll, H.Preuss, J. Chem. Phys., 1989, 90, 1730-1734.
Y-Cd(ecp-28), Hf-Hg(ecp-46): D. Andrae,U. Haeussermann, M. Dolg, H. Stoll, H. Preuss, Theor. Chim. Acta, 1990, 77, 123-141.
In-Sb(ecp-28), Tl-Bi(ecp-46): B. Metz, H. Stoll, M. Dolg, J. Chem. Phys., 2000, 113, 2563-2569.
Te-Xe(ecp-28), Po-Rn(ecp-46): K. A. Peterson, D. Figgen, E. Goll, H. Stoll, M. Dolg, J. Chem. Phys., 2003, 119, 11113-11123.
Rb(ecp-28), Cs(ecp-46): T. Leininger, A. Nicklass, W. Kuechle, H. Stoll, M. Dolg, A. Bergner, Chem. Phys. Lett., 1996, 255, 274-280.
Sr(ecp-28), Ba(ecp-46): M. Kaupp, P. V. Schleyer, H. Stoll and H. Preuss, J. Chem. Phys., 1991, 94, 1360-1366.
La(ecp-46): M. Dolg, H. Stoll, A. Savin, H. Preuss, Theor. Chim. Acta, 1989, 75, 173-194.
Lu(ecp-28): X. Cao, M. Dolg, J. Chem. Phys., 2001, 115, 7348-7355.

ECP parameters for Eu [Def2-ECP] have been obtained from:
TURBOMOLE (7.0.2)

================================================================================
                                        WARNINGS
                       Please study these warnings very carefully!
================================================================================


WARNING: your system is open-shell and RHF/RKS was chosen
  ===> : WILL SWITCH to UHF/UKS


WARNING: MDCI localization with Augmented Hessian Foster-Boys
  ===> : Switching off randomization!

WARNING: Post HF methods need fully converged wavefunctions
  ===> : Setting SCFConvForced true
         You can overwrite this default with %scf ConvForced false 


INFO   : the flag for use of LIBINT has been found!

================================================================================
                                       INPUT FILE
================================================================================
NAME = 63_Eu.in
|  1> #
|  2> # 63_Eu CCSD(T)/Def2-SVP
|  3> #
|  4> ! CCSD(T) Def2-SVP tightscf
|  5> 
|  6> *xyz 0 8
|  7>  Eu 0.0 0.0 0.0
|  8> *
|  9> 
| 10> %maxcore 5000 
| 11> 
| 12> %pal
| 13> nprocs 24
| 14> end
| 15> 
| 16> 
| 17>                          ****END OF INPUT****
================================================================================

                       ****************************
                       * Single Point Calculation *
                       ****************************

---------------------------------
CARTESIAN COORDINATES (ANGSTROEM)
---------------------------------
  Eu     0.000000    0.000000    0.000000

----------------------------
CARTESIAN COORDINATES (A.U.)
----------------------------
  NO LB      ZA    FRAG     MASS         X           Y           Z
   0 Eu   35.0000*   0   151.960    0.000000    0.000000    0.000000
* core charge reduced due to ECP

--------------------------------
INTERNAL COORDINATES (ANGSTROEM)
--------------------------------
 Eu     0   0   0     0.000000000000     0.00000000     0.00000000

---------------------------
INTERNAL COORDINATES (A.U.)
---------------------------
 Eu     0   0   0     0.000000000000     0.00000000     0.00000000

---------------------
BASIS SET INFORMATION
---------------------
There are 1 groups of distinct atoms

 Group   1 Type Eu  : 14s12p9d7f1g contracted to 10s6p4d3f1g pattern {5111111111/531111/6111/511/1}

Atom   0Eu   basis set group =>   1
-------------------------
ECP PARAMETER INFORMATION
-------------------------

 Group 1, Type Eu ECP Def2-ECP (replacing 28 core electrons, lmax=5)

Atom   0Eu   ECP group =>   1


Checking for AutoStart:
The File: 63_Eu.gbw exists
Trying to determine its content:
     ... Fine, the file contains calculation information
     ... Fine, the calculation information was read
     ... Fine, the file contains a basis set
     ... Fine, the basis set was read
     ... Fine, the file contains ECP parameters
     ... Fine, ECP parameters were read
     ... Fine, the file contains a geometry
     ... Fine, the geometry was read
     ... Fine, the file contains a set of orbitals
     ... Fine, the orbitals can be read
     => possible old guess file was deleted
     => GBW file was renamed to GES file
     => GES file is set as startup file
     => Guess is set to MORead
     ... now leaving AutoStart



           ************************************************************
           *        Program running with 24 parallel MPI-processes    *
           *              working on a common directory               *
           ************************************************************
------------------------------------------------------------------------------
                           ORCA GTO INTEGRAL CALCULATION
------------------------------------------------------------------------------

                         BASIS SET STATISTICS AND STARTUP INFO

 # of primitive gaussian shells          ...   43
 # of primitive gaussian functions       ...  153
 # of contracted shells                  ...   24
 # of contracted basis functions         ...   78
 Highest angular momentum                ...    4
 Maximum contraction depth               ...    6
 Integral package used                   ... LIBINT
 Integral threshhold            Thresh   ...  2.500e-11
 Primitive cut-off              TCut     ...  2.500e-12


------------------------------ INTEGRAL EVALUATION ----------------------------


 * One electron integrals 

   ECP integrals                         ... done
 Pre-screening matrix                    ... done
 Shell pair data                         ... done (   0.000 sec)



           ************************************************************
           *        Program running with 24 parallel MPI-processes    *
           *              working on a common directory               *
           ************************************************************
-------------------------------------------------------------------------------
                                 ORCA SCF
-------------------------------------------------------------------------------

------------
SCF SETTINGS
------------
Hamiltonian:
 Ab initio Hamiltonian  Method          .... Hartree-Fock(GTOs)


General Settings:
 Integral files         IntName         .... 63_Eu
 Hartree-Fock type      HFTyp           .... UHF
 Total Charge           Charge          ....    0
 Multiplicity           Mult            ....    8
 Number of Electrons    NEL             ....   35
 Basis Dimension        Dim             ....   78
 Nuclear Repulsion      ENuc            ....      0.0000000000 Eh

Convergence Acceleration:
 DIIS                   CNVDIIS         .... on
   Start iteration      DIISMaxIt       ....    12
   Startup error        DIISStart       ....  0.200000
   # of expansion vecs  DIISMaxEq       ....     5
   Bias factor          DIISBfac        ....   1.050
   Max. coefficient     DIISMaxC        ....  10.000
 Newton-Raphson         CNVNR           .... off
 SOSCF                  CNVSOSCF        .... off
 Level Shifting         CNVShift        .... on
   Level shift para.    LevelShift      ....    0.2500
   Turn off err/grad.   ShiftErr        ....    0.0010
 Zerner damping         CNVZerner       .... off
 Static damping         CNVDamp         .... on
   Fraction old density DampFac         ....    0.7000
   Max. Damping (<1)    DampMax         ....    0.9800
   Min. Damping (>=0)   DampMin         ....    0.0000
   Turn off err/grad.   DampErr         ....    0.1000
 Fernandez-Rico         CNVRico         .... off

SCF Procedure:
 Maximum # iterations   MaxIter         ....   125
 SCF integral mode      SCFMode         .... Direct
   Integral package                     .... LIBINT
 Reset frequency        DirectResetFreq ....    20
 Integral Threshold     Thresh          ....  2.500e-11 Eh
 Primitive CutOff       TCut            ....  2.500e-12 Eh

Convergence Tolerance:
 Convergence Check Mode ConvCheckMode   .... Total+1el-Energy
 Convergence forced     ConvForced      .... 1
 Energy Change          TolE            ....  1.000e-08 Eh
 1-El. energy change                    ....  1.000e-05 Eh
 DIIS Error             TolErr          ....  5.000e-07


Diagonalization of the overlap matrix:
Smallest eigenvalue                        ... 1.179e-03
Time for diagonalization                   ...    0.002 sec
Threshold for overlap eigenvalues          ... 1.000e-08
Number of eigenvalues below threshold      ... 0
Time for construction of square roots      ...    0.010 sec
Total time needed                          ...    0.012 sec

---------------------
INITIAL GUESS: MOREAD
---------------------
Guess MOs are being read from file: 63_Eu.ges
Input Geometry matches current geometry (good)
Input basis set matches current basis set (good)
MOs were renormalized
MOs were reorthogonalized (Cholesky)
                      ------------------
                      INITIAL GUESS DONE (   0.0 sec)
                      ------------------
--------------
SCF ITERATIONS
--------------
ITER       Energy         Delta-E        Max-DP      RMS-DP      [F,P]     Damp
               ***  Starting incremental Fock matrix formation  ***
  0   -708.2484522206   0.000000000000 0.00017101  0.00000419  0.0003693 0.7000
  1   -708.2484527962  -0.000000575672 0.00022934  0.00000550  0.0003771 0.7000
                               ***Turning on DIIS***
  2   -708.2484535314  -0.000000735113 0.00109007  0.00002537  0.0003850 0.0000
  3   -708.2488617902  -0.000408258874 0.00062823  0.00001370  0.0004091 0.0000
  4   -708.2487877048   0.000074085421 0.00031637  0.00000651  0.0003956 0.0000
  5   -708.2488579614  -0.000070256545 0.00064893  0.00001312  0.0003896 0.0000
  6   -708.2490191897  -0.000161228380 0.00154503  0.00003063  0.0003779 0.0000
  7   -708.2492932228  -0.000274033035 0.00376875  0.00007120  0.0003514 0.0000
  8   -708.2495220989  -0.000228876164 0.00711073  0.00013036  0.0002965 0.0000
  9   -708.2492975043   0.000224594603 0.00691061  0.00012284  0.0002077 0.0000
 10   -708.2488776793   0.000419825078 0.00446296  0.00007607  0.0001384 0.0000
 11   -708.2488468863   0.000030792991 0.00639327  0.00010834  0.0001128 0.0000
 12   -708.2488457041   0.000001182142 0.01057524  0.00017977  0.0000844 0.0000
 13   -708.2487664336   0.000079270557 0.00793398  0.00013627  0.0000460 0.0000
 14   -708.2490226131  -0.000256179515 0.00262487  0.00004636  0.0000379 0.0000
 15   -708.2490030867   0.000019526400 0.00107182  0.00002239  0.0000534 0.0000
 16   -708.2486005459   0.000402540763 0.00261904  0.00004708  0.0000414 0.0000
 17   -708.2484585685   0.000141977447 0.00651369  0.00011189  0.0000435 0.0000
 18   -708.2484288092   0.000029759270 0.00014283  0.00000299  0.0000312 0.0000
 19   -708.2483571785   0.000071630745 0.00169641  0.00002998  0.0000330 0.0000
               *** Restarting incremental Fock matrix formation ***
                                   *** Resetting DIIS ***
 20   -708.2483795151  -0.000022336640 0.00006120  0.00000140  0.0000301 0.0000
 21   -708.2483821105  -0.000002595408 0.00008212  0.00000184  0.0000296 0.0000
 22   -708.2483929965  -0.000010886011 0.00016972  0.00000376  0.0000290 0.0000
 23   -708.2483915360   0.000001460498 0.00045853  0.00001014  0.0000277 0.0000
 24   -708.2484188403  -0.000027304314 0.00090632  0.00002018  0.0000242 0.0000
 25   -708.2483778556   0.000040984696 0.00080748  0.00001845  0.0000201 0.0000
 26   -708.2483804418  -0.000002586160 0.00042692  0.00001015  0.0000225 0.0000
 27   -708.2484000989  -0.000019657121 0.00009972  0.00000239  0.0000259 0.0000
 28   -708.2483890896   0.000011009322 0.00008225  0.00000194  0.0000277 0.0000
 29   -708.2483925582  -0.000003468628 0.00013396  0.00000294  0.0000273 0.0000
 30   -708.2483966475  -0.000004089314 0.00001022  0.00000022  0.0000276 0.0000
 31   -708.2483799771   0.000016670460 0.00025724  0.00000599  0.0000275 0.0000
 32   -708.2483773176   0.000002659472 0.00025840  0.00000598  0.0000299 0.0000
 33   -708.2483738300   0.000003487651 0.00006413  0.00000134  0.0000280 0.0000
 34   -708.2483764155  -0.000002585556 0.00003822  0.00000098  0.0000285 0.0000
 35   -708.2483839191  -0.000007503624 0.00012030  0.00000283  0.0000297 0.0000
 36   -708.2483927315  -0.000008812400 0.00012842  0.00000298  0.0000304 0.0000
 37   -708.2484060812  -0.000013349707 0.00034257  0.00000792  0.0000314 0.0000
 38   -708.2483952313   0.000010849969 0.00004944  0.00000110  0.0000292 0.0000
 39   -708.2483824944   0.000012736877 0.00016687  0.00000381  0.0000306 0.0000
               *** Restarting incremental Fock matrix formation ***
                                   *** Resetting DIIS ***
 40   -708.2483802625   0.000002231918 0.00008171  0.00000207  0.0000322 0.0000
 41   -708.2483897917  -0.000009529199 0.00000918  0.00000022  0.0000345 0.0000
 42   -708.2483898138  -0.000000022116 0.00000087  0.00000002  0.0000343 0.0000
 43   -708.2483897493   0.000000064485 0.00000104  0.00000002  0.0000343 0.0000
 44   -708.2483896859   0.000000063364 0.00000124  0.00000003  0.0000342 0.0000
 45   -708.2483801722   0.000009513730 0.00009337  0.00000221  0.0000342 0.0000
 46   -708.2483786158   0.000001556451 0.00023244  0.00000523  0.0000365 0.0000
 47   -708.2483880521  -0.000009436289 0.00025887  0.00000548  0.0000314 0.0000
 48   -708.2483930253  -0.000004973271 0.00050814  0.00001042  0.0000266 0.0000
 49   -708.2483882608   0.000004764547 0.00042228  0.00000817  0.0000182 0.0000
 50   -708.2483856566   0.000002604147 0.00024692  0.00000447  0.0000128 0.0000
 51   -708.2483803260   0.000005330669 0.00024233  0.00000431  0.0000110 0.0000
 52   -708.2483829284  -0.000002602473 0.00028485  0.00000503  0.0000106 0.0000
 53   -708.2483797653   0.000003163115 0.00041562  0.00000732  0.0000107 0.0000
 54   -708.2483809583  -0.000001192961 0.00051431  0.00000898  0.0000110 0.0000
 55   -708.2483790353   0.000001923024 0.00038088  0.00000662  0.0000111 0.0000
 56   -708.2483771117   0.000001923547 0.00024064  0.00000417  0.0000112 0.0000
 57   -708.2483800009  -0.000002889182 0.00014058  0.00000243  0.0000111 0.0000
 58   -708.2483792406   0.000000760276 0.00008316  0.00000145  0.0000111 0.0000
 59   -708.2483798733  -0.000000632730 0.00006943  0.00000122  0.0000110 0.0000
               *** Restarting incremental Fock matrix formation ***
                                   *** Resetting DIIS ***
 60   -708.2483797639   0.000000109478 0.00002200  0.00000043  0.0000109 0.0000
 61   -708.2483801366  -0.000000372757 0.00002597  0.00000051  0.0000107 0.0000
 62   -708.2483801083   0.000000028346 0.00004467  0.00000088  0.0000105 0.0000
 63   -708.2483821238  -0.000002015552 0.00010574  0.00000210  0.0000101 0.0000
 64   -708.2483803848   0.000001738988 0.00019129  0.00000385  0.0000093 0.0000
 65   -708.2483809806  -0.000000595773 0.00010736  0.00000225  0.0000079 0.0000
 66   -708.2483791835   0.000001797157 0.00004791  0.00000112  0.0000087 0.0000
 67   -708.2483799833  -0.000000799818 0.00004428  0.00000104  0.0000091 0.0000
 68   -708.2483780883   0.000001894981 0.00005824  0.00000131  0.0000093 0.0000
 69   -708.2483799702  -0.000001881927 0.00007456  0.00000169  0.0000096 0.0000
 70   -708.2483798991   0.000000071139 0.00003742  0.00000080  0.0000101 0.0000
 71   -708.2483793490   0.000000550116 0.00001480  0.00000033  0.0000104 0.0000
 72   -708.2483815807  -0.000002231691 0.00000064  0.00000001  0.0000103 0.0000
 73   -708.2483819518  -0.000000371098 0.00001396  0.00000031  0.0000103 0.0000
 74   -708.2483798084   0.000002143380 0.00001637  0.00000033  0.0000104 0.0000
 75   -708.2483793915   0.000000416848 0.00001298  0.00000026  0.0000106 0.0000
 76   -708.2483796684  -0.000000276824 0.00000147  0.00000003  0.0000107 0.0000
 77   -708.2483792618   0.000000406554 0.00000647  0.00000013  0.0000107 0.0000
 78   -708.2483796041  -0.000000342313 0.00001169  0.00000024  0.0000107 0.0000
 79   -708.2483800160  -0.000000411901 0.00001267  0.00000026  0.0000108 0.0000
               *** Restarting incremental Fock matrix formation ***
                                   *** Resetting DIIS ***
 80   -708.2483798330   0.000000183045 0.00002615  0.00000053  0.0000109 0.0000
 81   -708.2483797838   0.000000049185 0.00002145  0.00000043  0.0000112 0.0000
 82   -708.2483798839  -0.000000100111 0.00000557  0.00000011  0.0000113 0.0000
 83   -708.2483798316   0.000000052301 0.00000143  0.00000003  0.0000114 0.0000
 84   -708.2483798591  -0.000000027540 0.00000001  0.00000000  0.0000114 0.0000
 85   -708.2483798973  -0.000000038126 0.00002237  0.00000045  0.0000114 0.0000
 86   -708.2483799432  -0.000000045901 0.00000976  0.00000020  0.0000116 0.0000
                 **** Energy Check signals convergence ****

               *****************************************************
               *                     SUCCESS                       *
               *           SCF CONVERGED AFTER  87 CYCLES          *
               *****************************************************


----------------
TOTAL SCF ENERGY
----------------

Total Energy       :         -708.24837994 Eh          -19272.41821 eV

Components:
Nuclear Repulsion  :            0.00000000 Eh               0.00000 eV
Electronic Energy  :         -708.24837994 Eh          -19272.41821 eV
One Electron Energy:        -1245.53574882 Eh          -33892.75080 eV
Two Electron Energy:          537.28736887 Eh           14620.33259 eV

Virial components:
Potential Energy   :        -1054.26596293 Eh          -28688.03532 eV
Kinetic Energy     :          346.01758299 Eh            9415.61711 eV
Virial Ratio       :            3.04685662


---------------
SCF CONVERGENCE
---------------

  Last Energy change         ...   -8.7073e-10  Tolerance :   1.0000e-08
  Last MAX-Density change    ...    1.7395e-06  Tolerance :   1.0000e-07
  Last RMS-Density change    ...    3.4690e-08  Tolerance :   5.0000e-09
  Last DIIS Error            ...    1.1675e-05  Tolerance :   5.0000e-07

             **** THE GBW FILE WAS UPDATED (63_Eu.gbw) ****
             **** DENSITY FILE WAS UPDATED (63_Eu.scfp) ****
             **** ENERGY FILE WAS UPDATED (63_Eu.en.tmp) ****
----------------------
UHF SPIN CONTAMINATION
----------------------

Expectation value of <S**2>     :    15.764525
Ideal value S*(S+1) for S=3.5   :    15.750000
Deviation                       :     0.014525

             **** THE GBW FILE WAS UPDATED (63_Eu.gbw) ****
             **** DENSITY FILE WAS UPDATED (63_Eu.scfp) ****
----------------
ORBITAL ENERGIES
----------------
                 SPIN UP ORBITALS
  NO   OCC          E(Eh)            E(eV) 
   0   1.0000     -15.126811      -411.6214 
   1   1.0000     -11.099974      -302.0457 
   2   1.0000     -11.099893      -302.0434 
   3   1.0000     -11.094948      -301.9089 
   4   1.0000      -6.247213      -169.9953 
   5   1.0000      -6.243497      -169.8942 
   6   1.0000      -6.135741      -166.9620 
   7   1.0000      -6.129081      -166.7808 
   8   1.0000      -6.128899      -166.7758 
   9   1.0000      -2.277313       -61.9688 
  10   1.0000      -1.309018       -35.6202 
  11   1.0000      -1.289789       -35.0969 
  12   1.0000      -1.289686       -35.0941 
  13   1.0000      -0.852187       -23.1892 
  14   1.0000      -0.851993       -23.1839 
  15   1.0000      -0.850581       -23.1455 
  16   1.0000      -0.806868       -21.9560 
  17   1.0000      -0.806842       -21.9553 
  18   1.0000      -0.803647       -21.8684 
  19   1.0000      -0.222370        -6.0510 
  20   1.0000      -0.208753        -5.6805 
  21   0.0000       0.022659         0.6166 
  22   0.0000       0.023140         0.6297 
  23   0.0000       0.023186         0.6309 
  24   0.0000       0.086622         2.3571 
  25   0.0000       0.087620         2.3843 
  26   0.0000       0.090085         2.4513 
  27   0.0000       0.105047         2.8585 
  28   0.0000       0.105118         2.8604 
  29   0.0000       0.211605         5.7581 
  30   0.0000       0.231070         6.2877 
  31   0.0000       0.234978         6.3941 
  32   0.0000       0.235057         6.3962 
  33   0.0000       1.025888        27.9158 
  34   0.0000       1.067707        29.0538 
  35   0.0000       1.076005        29.2796 
  36   0.0000       1.088634        29.6232 
  37   0.0000       1.088733        29.6259 
  38   0.0000       1.111616        30.2486 
  39   0.0000       1.154647        31.4196 
  40   0.0000       1.162443        31.6317 
  41   0.0000       1.162477        31.6326 
  42   0.0000       1.175854        31.9966 
  43   0.0000       1.175907        31.9981 
  44   0.0000       1.183121        32.1944 
  45   0.0000       1.258442        34.2439 
  46   0.0000       1.759845        47.8878 
  47   0.0000       1.759952        47.8907 
  48   0.0000       1.769905        48.1616 
  49   0.0000       1.912099        52.0308 
  50   0.0000       1.912309        52.0366 
  51   0.0000       1.915158        52.1141 
  52   0.0000       1.916060        52.1386 
  53   0.0000       1.916088        52.1394 
  54   0.0000       1.917999        52.1914 
  55   0.0000       1.922766        52.3211 
  56   0.0000       1.922906        52.3249 
  57   0.0000       1.922907        52.3250 
  58   0.0000       4.248964       115.6202 
  59   0.0000       4.249062       115.6229 
  60   0.0000       4.253837       115.7528 
  61   0.0000       4.263850       116.0253 
  62   0.0000       4.263880       116.0261 
  63   0.0000       4.264349       116.0388 
  64   0.0000       4.370723       118.9334 
  65   0.0000       6.583160       179.1369 
  66   0.0000       6.583967       179.1589 
  67   0.0000       6.592014       179.3778 
  68   0.0000       6.600253       179.6020 
  69   0.0000       6.600355       179.6048 
  70   0.0000       6.779805       184.4879 
  71   0.0000       8.367494       227.6911 
  72   0.0000      33.610586       914.5906 
  73   0.0000      33.610746       914.5949 
  74   0.0000      33.615210       914.7164 
  75   0.0000      61.425534      1671.4737 
  76   0.0000     216.220300      5883.6535 
  77   0.0000     515.195319     14019.1774 

                 SPIN DOWN ORBITALS
  NO   OCC          E(Eh)            E(eV) 
   0   1.0000     -14.692432      -399.8014 
   1   1.0000     -10.619994      -288.9847 
   2   1.0000     -10.619658      -288.9756 
   3   1.0000     -10.611576      -288.7557 
   4   1.0000      -5.576633      -151.7479 
   5   1.0000      -5.572284      -151.6296 
   6   1.0000      -5.572042      -151.6230 
   7   1.0000      -5.533695      -150.5795 
   8   1.0000      -5.522741      -150.2814 
   9   1.0000      -2.116121       -57.5826 
  10   1.0000      -1.164151       -31.6781 
  11   1.0000      -1.163847       -31.6699 
  12   1.0000      -1.135848       -30.9080 
  13   1.0000      -0.184887        -5.0310 
  14   0.0000       0.025486         0.6935 
  15   0.0000       0.025596         0.6965 
  16   0.0000       0.034976         0.9517 
  17   0.0000       0.095859         2.6085 
  18   0.0000       0.126622         3.4456 
  19   0.0000       0.130435         3.5493 
  20   0.0000       0.137952         3.7539 
  21   0.0000       0.138087         3.7575 
  22   0.0000       0.166648         4.5347 
  23   0.0000       0.255204         6.9445 
  24   0.0000       0.255413         6.9502 
  25   0.0000       0.275098         7.4858 
  26   0.0000       0.402550        10.9539 
  27   0.0000       0.433101        11.7853 
  28   0.0000       0.433151        11.7866 
  29   0.0000       0.433359        11.7923 
  30   0.0000       0.446444        12.1484 
  31   0.0000       0.446555        12.1514 
  32   0.0000       0.454721        12.3736 
  33   0.0000       1.166609        31.7450 
  34   0.0000       1.169293        31.8181 
  35   0.0000       1.178076        32.0571 
  36   0.0000       1.178202        32.0605 
  37   0.0000       1.182244        32.1705 
  38   0.0000       1.212510        32.9941 
  39   0.0000       1.310803        35.6688 
  40   0.0000       1.321025        35.9469 
  41   0.0000       1.321043        35.9474 
  42   0.0000       1.323340        36.0099 
  43   0.0000       1.339632        36.4532 
  44   0.0000       1.339758        36.4567 
  45   0.0000       1.348160        36.6853 
  46   0.0000       1.841289        50.1040 
  47   0.0000       1.841523        50.1104 
  48   0.0000       1.863190        50.7000 
  49   0.0000       1.938671        52.7539 
  50   0.0000       1.938680        52.7542 
  51   0.0000       1.940714        52.8095 
  52   0.0000       1.940719        52.8097 
  53   0.0000       1.950704        53.0813 
  54   0.0000       1.953290        53.1517 
  55   0.0000       1.965501        53.4840 
  56   0.0000       1.965614        53.4871 
  57   0.0000       1.971164        53.6381 
  58   0.0000       4.465632       121.5160 
  59   0.0000       4.488984       122.1515 
  60   0.0000       4.489020       122.1525 
  61   0.0000       4.489367       122.1619 
  62   0.0000       4.503518       122.5470 
  63   0.0000       4.503627       122.5499 
  64   0.0000       4.512075       122.7798 
  65   0.0000       6.744999       183.5408 
  66   0.0000       6.751455       183.7164 
  67   0.0000       6.751630       183.7212 
  68   0.0000       6.770929       184.2463 
  69   0.0000       6.789932       184.7634 
  70   0.0000       6.845130       186.2655 
  71   0.0000       8.438356       229.6193 
  72   0.0000      33.766475       918.8325 
  73   0.0000      33.766711       918.8389 
  74   0.0000      33.772919       919.0079 
  75   0.0000      61.565398      1675.2797 
  76   0.0000     216.265024      5884.8705 
  77   0.0000     515.208700     14019.5415 

                    ********************************
                    * MULLIKEN POPULATION ANALYSIS *
                    ********************************

--------------------------------------------
MULLIKEN ATOMIC CHARGES AND SPIN POPULATIONS
--------------------------------------------
   0 Eu:   -0.000000    7.000000
Sum of atomic charges         :   -0.0000000
Sum of atomic spin populations:    7.0000000

-----------------------------------------------------
MULLIKEN REDUCED ORBITAL CHARGES AND SPIN POPULATIONS
-----------------------------------------------------
CHARGE
  0 Eus       :     5.991233  s :     5.991233
      pz      :     3.999868  p :    11.999002
      px      :     3.999869
      py      :     3.999265
      dz2     :     2.253905  d :    11.008689
      dxz     :     2.000003
      dyz     :     1.999998
      dx2y2   :     2.754781
      dxy     :     2.000002
      f0      :     1.000054  f :     6.000998
      f+1     :     1.000015
      f-1     :     1.000275
      f+2     :     1.000077
      f-2     :     0.000003
      f+3     :     1.000116
      f-3     :     1.000458
      g0      :     0.000012  g :     0.000078
      g+1     :     0.000000
      g-1     :     0.000000
      g+2     :     0.000019
      g-2     :     0.000003
      g+3     :     0.000003
      g-3     :     0.000003
      g+4     :     0.000038
      g-4     :     0.000000

SPIN
  0 Eus       :     0.009118  s :     0.009118
      pz      :    -0.000074  p :     0.000162
      px      :    -0.000073
      py      :     0.000308
      dz2     :     0.249567  d :     0.990832
      dxz     :     0.000001
      dyz     :    -0.000002
      dx2y2   :     0.741264
      dxy     :     0.000002
      f0      :     1.000038  f :     5.999838
      f+1     :     0.999989
      f-1     :     0.999885
      f+2     :     1.000034
      f-2     :     0.000003
      f+3     :     1.000083
      f-3     :     0.999805
      g0      :     0.000005  g :     0.000051
      g+1     :     0.000000
      g-1     :     0.000000
      g+2     :     0.000014
      g-2     :     0.000003
      g+3     :     0.000003
      g-3     :     0.000002
      g+4     :     0.000023
      g-4     :    -0.000000


                     *******************************
                     * LOEWDIN POPULATION ANALYSIS *
                     *******************************

-------------------------------------------
LOEWDIN ATOMIC CHARGES AND SPIN POPULATIONS
-------------------------------------------
   0 Eu:   -0.000000    7.000000

----------------------------------------------------
LOEWDIN REDUCED ORBITAL CHARGES AND SPIN POPULATIONS
----------------------------------------------------
CHARGE
  0 Eus       :     5.991233  s :     5.991233
      pz      :     3.999868  p :    11.999002
      px      :     3.999869
      py      :     3.999265
      dz2     :     2.253905  d :    11.008689
      dxz     :     2.000003
      dyz     :     1.999998
      dx2y2   :     2.754781
      dxy     :     2.000002
      f0      :     1.000054  f :     6.000998
      f+1     :     1.000015
      f-1     :     1.000275
      f+2     :     1.000077
      f-2     :     0.000003
      f+3     :     1.000116
      f-3     :     1.000458
      g0      :     0.000012  g :     0.000078
      g+1     :     0.000000
      g-1     :     0.000000
      g+2     :     0.000019
      g-2     :     0.000003
      g+3     :     0.000003
      g-3     :     0.000003
      g+4     :     0.000038
      g-4     :     0.000000

SPIN
  0 Eus       :     0.009118  s :     0.009118
      pz      :    -0.000074  p :     0.000162
      px      :    -0.000073
      py      :     0.000308
      dz2     :     0.249567  d :     0.990832
      dxz     :     0.000001
      dyz     :    -0.000002
      dx2y2   :     0.741264
      dxy     :     0.000002
      f0      :     1.000038  f :     5.999838
      f+1     :     0.999989
      f-1     :     0.999885
      f+2     :     1.000034
      f-2     :     0.000003
      f+3     :     1.000083
      f-3     :     0.999805
      g0      :     0.000005  g :     0.000051
      g+1     :     0.000000
      g-1     :     0.000000
      g+2     :     0.000014
      g-2     :     0.000003
      g+3     :     0.000003
      g-3     :     0.000002
      g+4     :     0.000023
      g-4     :    -0.000000


                      *****************************
                      * MAYER POPULATION ANALYSIS *
                      *****************************

  NA   - Mulliken gross atomic population
  ZA   - Total nuclear charge
  QA   - Mulliken gross atomic charge
  VA   - Mayer's total valence
  BVA  - Mayer's bonded valence
  FA   - Mayer's free valence

  ATOM       NA         ZA         QA         VA         BVA        FA
  0 Eu    35.0000    35.0000    -0.0000     7.0290     0.0000     7.0290

  Mayer bond orders larger than 0.100000


-------
TIMINGS
-------

Total SCF time: 0 days 0 hours 0 min 33 sec 

Total time                  ....      33.951 sec
Sum of individual times     ....      32.771 sec  ( 96.5%)

Fock matrix formation       ....      20.636 sec  ( 60.8%)
Diagonalization             ....       0.449 sec  (  1.3%)
Density matrix formation    ....       0.040 sec  (  0.1%)
Population analysis         ....       0.050 sec  (  0.1%)
Initial guess               ....       0.009 sec  (  0.0%)
Orbital Transformation      ....       0.000 sec  (  0.0%)
Orbital Orthonormalization  ....       0.002 sec  (  0.0%)
DIIS solution               ....      11.588 sec  ( 34.1%)


           ************************************************************
           *        Program running with 24 parallel MPI-processes    *
           *              working on a common directory               *
           ************************************************************


------------------------------------------------------------------------------- 
                              ORCA-MATRIX DRIVEN CI                            
------------------------------------------------------------------------------- 

--------------------------------
AUTOMATIC CHOICE OF INCORE LEVEL
--------------------------------

Memory available                           ...   2500.00 MB
Memory needed for S+T                      ...     11.38 MB
Memory needed for J+K                      ...     22.89 MB
Memory needed for DIIS                     ...    159.29 MB
Memory needed for 3-ext                    ...     24.02 MB
Memory needed for 4-ext                    ...     40.97 MB
Memory needed for triples                  ...      7.06 MB
 -> Final InCoreLevel    ... 5
 -> check shows that triples correction can be computed


Wavefunction type
-----------------
Correlation treatment                      ...      CCSD     
Single excitations                         ... ON
Orbital optimization                       ... OFF
Calculation of Z vector                    ... OFF
Calculation of Brueckner orbitals          ... OFF
Perturbative triple excitations            ... ON
Calculation of F12 correction              ... OFF
Frozen core treatment                      ... chemical core (8 el)
Reference Wavefunction                     ... UHF
  Alpha-MOs occ    :     4 ...   20 ( 17 MO's/ 17 electrons)
  Beta-MOs occ     :     4 ...   13 ( 10 MO's/ 10 electrons)
  Alpha-MOs virt   :    21 ...   77 ( 57 MO's              )
  Beta-MOs virt    :    14 ...   77 ( 64 MO's              )
Number of AO's                             ...     78
Number of electrons                        ...     35
Number of correlated electrons             ...     27

Algorithmic settings
--------------------
Integral transformation                    ... AO direct full transformation
K(C) Formation                             ... FULL-MO TRAFO
Maximum number of iterations               ...        50
Convergence tolerance (max. residuum)      ... 1.000e-05
Level shift for amplitude update           ... 2.000e-01
Maximum number of DIIS vectors             ...         7
DIIS turned on at iteration                ...         0
Damping before turning on DIIS             ...     0.500
Damping after turning on DIIS              ...     0.000
Pair specific amplitude update             ... OFF
Natural orbital iterations                 ... OFF
Perturbative natural orbital generation    ... OFF
Printlevel                                 ... 2

Memory handling:
----------------
Maximum memory for working arrays          ...   2500 MB
Data storage in matrix containers          ... UNCOMPRESSED
Data type for integral storage             ... DOUBLE
In-Core Storage of quantities:
   Amplitudes+Sigma Vector      ... YES
   J+K operators                ... YES
   DIIS vectors                 ... YES
   3-external integrals         ... YES
   4-external integrals         ... YES


Initializing the integral package          ... done
Warning: reference  - re-canonicalizations have been set to INT 1 VIRT 1

--------------------------
UNRESTRICTED FOCK OPERATOR
--------------------------

<ss|ss>:         1540 b            0 skpd (  0.0%)    0.000 s ( 0.000 ms/b)
<ss|sp>:         3300 b            0 skpd (  0.0%)    0.000 s ( 0.000 ms/b)
<ss|sd>:         2200 b            0 skpd (  0.0%)    0.001 s ( 0.000 ms/b)
<ss|sf>:         1650 b            0 skpd (  0.0%)    0.000 s ( 0.000 ms/b)
<ss|sg>:          550 b            3 skpd (  0.5%)    0.000 s ( 0.000 ms/b)
<ss|pp>:         1155 b            0 skpd (  0.0%)    0.000 s ( 0.000 ms/b)
<ss|pd>:         1320 b            0 skpd (  0.0%)    0.001 s ( 0.000 ms/b)
<ss|pf>:          990 b            0 skpd (  0.0%)    0.001 s ( 0.001 ms/b)
<ss|pg>:          330 b            0 skpd (  0.0%)    0.000 s ( 0.001 ms/b)
<ss|dd>:          550 b            0 skpd (  0.0%)    0.002 s ( 0.003 ms/b)
<ss|df>:          660 b            0 skpd (  0.0%)    0.002 s ( 0.003 ms/b)
<ss|dg>:          220 b            0 skpd (  0.0%)    0.001 s ( 0.002 ms/b)
<ss|ff>:          330 b            0 skpd (  0.0%)    0.003 s ( 0.009 ms/b)
<ss|fg>:          165 b            0 skpd (  0.0%)    0.001 s ( 0.004 ms/b)
<ss|gg>:           55 b            0 skpd (  0.0%)    0.001 s ( 0.012 ms/b)
<sp|sp>:         1830 b            1 skpd (  0.1%)    0.000 s ( 0.000 ms/b)
<sp|sd>:         2400 b            5 skpd (  0.2%)    0.001 s ( 0.001 ms/b)
<sp|sf>:         1800 b            9 skpd (  0.5%)    0.001 s ( 0.001 ms/b)
<sp|sg>:          600 b           20 skpd (  3.3%)    0.000 s ( 0.001 ms/b)
<sp|pp>:         1260 b            0 skpd (  0.0%)    0.001 s ( 0.000 ms/b)
<sp|pd>:         1440 b            2 skpd (  0.1%)    0.002 s ( 0.001 ms/b)
<sp|pf>:         1080 b            0 skpd (  0.0%)    0.002 s ( 0.002 ms/b)
<sp|pg>:          360 b            0 skpd (  0.0%)    0.001 s ( 0.004 ms/b)
<sp|dd>:          600 b            0 skpd (  0.0%)    0.005 s ( 0.008 ms/b)
<sp|df>:          720 b            0 skpd (  0.0%)    0.006 s ( 0.009 ms/b)
<sp|dg>:          240 b            0 skpd (  0.0%)    0.002 s ( 0.006 ms/b)
<sp|ff>:          360 b            0 skpd (  0.0%)    0.008 s ( 0.021 ms/b)
<sp|fg>:          180 b            0 skpd (  0.0%)    0.002 s ( 0.011 ms/b)
<sp|gg>:           60 b            0 skpd (  0.0%)    0.002 s ( 0.029 ms/b)
<sd|sd>:          820 b            0 skpd (  0.0%)    0.001 s ( 0.001 ms/b)
<sd|sf>:         1200 b            9 skpd (  0.8%)    0.002 s ( 0.001 ms/b)
<sd|sg>:          400 b           15 skpd (  3.8%)    0.000 s ( 0.001 ms/b)
<sd|pp>:          840 b            0 skpd (  0.0%)    0.001 s ( 0.001 ms/b)
<sd|pd>:          960 b            0 skpd (  0.0%)    0.002 s ( 0.002 ms/b)
<sd|pf>:          720 b            0 skpd (  0.0%)    0.003 s ( 0.004 ms/b)
<sd|pg>:          240 b            0 skpd (  0.0%)    0.002 s ( 0.008 ms/b)
<sd|dd>:          400 b            0 skpd (  0.0%)    0.007 s ( 0.017 ms/b)
<sd|df>:          480 b            0 skpd (  0.0%)    0.010 s ( 0.021 ms/b)
<sd|dg>:          160 b            0 skpd (  0.0%)    0.003 s ( 0.017 ms/b)
<sd|ff>:          240 b            0 skpd (  0.0%)    0.014 s ( 0.057 ms/b)
<sd|fg>:          120 b            0 skpd (  0.0%)    0.004 s ( 0.032 ms/b)
<sd|gg>:           40 b            0 skpd (  0.0%)    0.002 s ( 0.058 ms/b)
<sf|sf>:          465 b            4 skpd (  0.9%)    0.001 s ( 0.002 ms/b)
<sf|sg>:          300 b           17 skpd (  5.7%)    0.000 s ( 0.001 ms/b)
<sf|pp>:          630 b            0 skpd (  0.0%)    0.001 s ( 0.002 ms/b)
<sf|pd>:          720 b            3 skpd (  0.4%)    0.003 s ( 0.004 ms/b)
<sf|pf>:          540 b            0 skpd (  0.0%)    0.004 s ( 0.008 ms/b)
<sf|pg>:          180 b            1 skpd (  0.6%)    0.003 s ( 0.015 ms/b)
<sf|dd>:          300 b            0 skpd (  0.0%)    0.010 s ( 0.033 ms/b)
<sf|df>:          360 b            0 skpd (  0.0%)    0.015 s ( 0.042 ms/b)
<sf|dg>:          120 b            1 skpd (  0.8%)    0.005 s ( 0.039 ms/b)
<sf|ff>:          180 b            0 skpd (  0.0%)    0.021 s ( 0.114 ms/b)
<sf|fg>:           90 b            0 skpd (  0.0%)    0.007 s ( 0.077 ms/b)
<sf|gg>:           30 b            0 skpd (  0.0%)    0.003 s ( 0.091 ms/b)
<sg|sg>:           55 b            7 skpd ( 12.7%)    0.000 s ( 0.002 ms/b)
<sg|pp>:          210 b            5 skpd (  2.4%)    0.000 s ( 0.002 ms/b)
<sg|pd>:          240 b           17 skpd (  7.1%)    0.001 s ( 0.004 ms/b)
<sg|pf>:          180 b            7 skpd (  3.9%)    0.001 s ( 0.007 ms/b)
<sg|pg>:           60 b            8 skpd ( 13.3%)    0.000 s ( 0.009 ms/b)
<sg|dd>:          100 b            0 skpd (  0.0%)    0.002 s ( 0.023 ms/b)
<sg|df>:          120 b            9 skpd (  7.5%)    0.004 s ( 0.035 ms/b)
<sg|dg>:           40 b            3 skpd (  7.5%)    0.001 s ( 0.032 ms/b)
<sg|ff>:           60 b            0 skpd (  0.0%)    0.006 s ( 0.093 ms/b)
<sg|fg>:           30 b            4 skpd ( 13.3%)    0.001 s ( 0.057 ms/b)
<sg|gg>:           10 b            1 skpd ( 10.0%)    0.001 s ( 0.084 ms/b)
<pp|pp>:          231 b            0 skpd (  0.0%)    0.001 s ( 0.003 ms/b)
<pp|pd>:          504 b            0 skpd (  0.0%)    0.001 s ( 0.003 ms/b)
<pp|pf>:          378 b            0 skpd (  0.0%)    0.002 s ( 0.005 ms/b)
<pp|pg>:          126 b            0 skpd (  0.0%)    0.001 s ( 0.007 ms/b)
<pp|dd>:          210 b            0 skpd (  0.0%)    0.003 s ( 0.016 ms/b)
<pp|df>:          252 b            0 skpd (  0.0%)    0.005 s ( 0.020 ms/b)
<pp|dg>:           84 b            0 skpd (  0.0%)    0.002 s ( 0.026 ms/b)
<pp|ff>:          126 b            0 skpd (  0.0%)    0.007 s ( 0.054 ms/b)
<pp|fg>:           63 b            0 skpd (  0.0%)    0.003 s ( 0.047 ms/b)
<pp|gg>:           21 b            0 skpd (  0.0%)    0.001 s ( 0.059 ms/b)
<pd|pd>:          300 b            0 skpd (  0.0%)    0.003 s ( 0.011 ms/b)
<pd|pf>:          432 b            0 skpd (  0.0%)    0.005 s ( 0.012 ms/b)
<pd|pg>:          144 b            0 skpd (  0.0%)    0.002 s ( 0.016 ms/b)
<pd|dd>:          240 b            0 skpd (  0.0%)    0.008 s ( 0.035 ms/b)
<pd|df>:          288 b            0 skpd (  0.0%)    0.013 s ( 0.046 ms/b)
<pd|dg>:           96 b            0 skpd (  0.0%)    0.006 s ( 0.064 ms/b)
<pd|ff>:          144 b            0 skpd (  0.0%)    0.019 s ( 0.134 ms/b)
<pd|fg>:           72 b            0 skpd (  0.0%)    0.008 s ( 0.116 ms/b)
<pd|gg>:           24 b            0 skpd (  0.0%)    0.003 s ( 0.131 ms/b)
<pf|pf>:          171 b            0 skpd (  0.0%)    0.007 s ( 0.039 ms/b)
<pf|pg>:          108 b            0 skpd (  0.0%)    0.003 s ( 0.032 ms/b)
<pf|dd>:          180 b            0 skpd (  0.0%)    0.013 s ( 0.070 ms/b)
<pf|df>:          216 b            0 skpd (  0.0%)    0.021 s ( 0.096 ms/b)
<pf|dg>:           72 b            0 skpd (  0.0%)    0.009 s ( 0.129 ms/b)
<pf|ff>:          108 b            0 skpd (  0.0%)    0.031 s ( 0.287 ms/b)
<pf|fg>:           54 b            0 skpd (  0.0%)    0.013 s ( 0.241 ms/b)
<pf|gg>:           18 b            0 skpd (  0.0%)    0.004 s ( 0.244 ms/b)
<pg|pg>:           21 b            0 skpd (  0.0%)    0.000 s ( 0.021 ms/b)
<pg|dd>:           60 b            0 skpd (  0.0%)    0.004 s ( 0.064 ms/b)
<pg|df>:           72 b            0 skpd (  0.0%)    0.006 s ( 0.086 ms/b)
<pg|dg>:           24 b            0 skpd (  0.0%)    0.003 s ( 0.121 ms/b)
<pg|ff>:           36 b            0 skpd (  0.0%)    0.009 s ( 0.244 ms/b)
<pg|fg>:           18 b            0 skpd (  0.0%)    0.004 s ( 0.214 ms/b)
<pg|gg>:            6 b            0 skpd (  0.0%)    0.002 s ( 0.257 ms/b)
<dd|dd>:           55 b            0 skpd (  0.0%)    0.009 s ( 0.168 ms/b)
<dd|df>:          120 b            0 skpd (  0.0%)    0.015 s ( 0.126 ms/b)
<dd|dg>:           40 b            0 skpd (  0.0%)    0.007 s ( 0.172 ms/b)
<dd|ff>:           60 b            0 skpd (  0.0%)    0.023 s ( 0.376 ms/b)
<dd|fg>:           30 b            0 skpd (  0.0%)    0.008 s ( 0.252 ms/b)
<dd|gg>:           10 b            0 skpd (  0.0%)    0.003 s ( 0.307 ms/b)
<df|df>:           78 b            0 skpd (  0.0%)    0.033 s ( 0.417 ms/b)
<df|dg>:           48 b            0 skpd (  0.0%)    0.014 s ( 0.282 ms/b)
<df|ff>:           72 b            0 skpd (  0.0%)    0.046 s ( 0.634 ms/b)
<df|fg>:           36 b            0 skpd (  0.0%)    0.015 s ( 0.424 ms/b)
<df|gg>:           12 b            0 skpd (  0.0%)    0.006 s ( 0.516 ms/b)
<dg|dg>:           10 b            0 skpd (  0.0%)    0.002 s ( 0.222 ms/b)
<dg|ff>:           24 b            0 skpd (  0.0%)    0.012 s ( 0.486 ms/b)
<dg|fg>:           12 b            0 skpd (  0.0%)    0.004 s ( 0.358 ms/b)
<dg|gg>:            4 b            0 skpd (  0.0%)    0.002 s ( 0.512 ms/b)
<ff|ff>:           21 b            0 skpd (  0.0%)    0.050 s ( 2.359 ms/b)
<ff|fg>:           18 b            0 skpd (  0.0%)    0.016 s ( 0.880 ms/b)
<ff|gg>:            6 b            0 skpd (  0.0%)    0.006 s ( 1.042 ms/b)
<fg|fg>:            6 b            0 skpd (  0.0%)    0.004 s ( 0.644 ms/b)
<fg|gg>:            3 b            0 skpd (  0.0%)    0.003 s ( 0.961 ms/b)
<gg|gg>:            1 b            0 skpd (  0.0%)    0.002 s ( 1.635 ms/b)
Recanonicalizing the internal orbitals
Recanonicalizing the virtual orbitals
Time needed for Fock operator              ...            0.732 sec
Reference energy                           ...   -708.248379840
Warning: for UHF the TrafoType has to be JK
Warning: for UHF the K(C)-option cannot be MO but must be AOX

-------------------------------
PARTIAL EXCHANGE TRANSFORMATION
-------------------------------

Transformation type                        ... two-operators
Generation of integrals (i,mue|j,nue)      ... ON
Generation of integrals (mue,kappa|nue,tau)... ON
Generation of integrals (i,mue|a,nue)      ... ON
Dimension of the basis                     ...   78
Number of internal alpha-MOs               ...   17 (   4-  20)
Number of internal beta-MOs                ...   10 (   4-  13)
Number of external alpha-MOs               ...   57 (  21-  77)
Number of external beta-MOs                ...   64 (  14-  77)
Pair cutoff                                ... 0.000e+00 Eh
Number of AO pairs in the trafo            ... 3081
Total Number of distinct AO pairs          ... 3081
Memory devoted for trafo                   ... 2500.0 MB 
Max. Number of MO pairs treated together   ... 53859      
Number Format for Storage                  ... Double (8 Byte)
Integral package used                      ... LIBINT

Starting integral evaluation:
    ... done with AO integral generation
Closing buffer AOK[aa] ( 0.00 GB; CompressionRatio= 0.99)
Closing buffer AOK[bb] ( 0.00 GB; CompressionRatio= 0.99)
Closing buffer AOK[ab] ( 0.00 GB; CompressionRatio= 0.99)
Closing buffer AOK[ba] ( 0.00 GB; CompressionRatio= 0.99)
Collecting buffer AOK 
Closing buffer IAAO1[aa] ( 0.00 GB; CompressionRatio= 1.00)
Closing buffer IAAO1[bb] ( 0.00 GB; CompressionRatio= 1.00)
Closing buffer IAAO1[ab] ( 0.00 GB; CompressionRatio= 1.00)
Closing buffer IAAO1[ba] ( 0.00 GB; CompressionRatio= 1.00)
Closing buffer IAAO2[aa] ( 0.00 GB; CompressionRatio= 1.00)
Closing buffer IAAO2[bb] ( 0.00 GB; CompressionRatio= 1.00)
Closing buffer IAAO2[ab] ( 0.00 GB; CompressionRatio= 1.00)
Closing buffer IAAO2[ba] ( 0.00 GB; CompressionRatio= 1.00)
Collecting buffer IAAO 
Closing buffer PRQS    ( 0.00 GB; CompressionRatio= 1.00)
Collecting buffer PRQS 
Number of alpha/alpha MO pairs in trafo    ...  153
Number of beta /beta  MO pairs in trafo    ...   55
Number of alpha/ beta MO pairs in trafo    ...  170
------------------------
SORTING OF (i,mue|j,nue)
------------------------

SORTING OF ALPHA/ALPHA PAIRS
IBATCH = 1 of  1
Closing buffer KAO[aa] ( 0.00 GB; CompressionRatio= 1.00)
Collecting buffer KAO 
SORTING OF BETA /BETA  PAIRS
IBATCH = 1 of  1
Closing buffer KAO[bb] ( 0.00 GB; CompressionRatio= 1.00)
Collecting buffer KAO 
SORTING OF ALPHA/BETA  PAIRS
IBATCH = 1 of  1
Closing buffer KAO[ab] ( 0.00 GB; CompressionRatio= 0.999753512448)
Collecting buffer KAO[ab] 
------------------------
SORTING OF (i,mue|a,nue)
------------------------

Number of alpha/alpha (i,a) pairs in trafo  ...  969
Number of beta /beta  (i,a) pairs in trafo  ...  640
Number of alpha/ beta (i,a) pairs in trafo  ... 1088
Number of beta /alpha (i,a) pairs in trafo  ...  570
Setting up the alpha/alpha list             ... done
Setting up the beta /beta  list             ... done
Setting up the alpha/beta  list             ... done
Setting up the beta /alpha list             ... done
    ... Now sorting (i,mue|a,nue)integrals
    ... Integrals (i,b|a,c) will be made on the fly
SORTING OF ALPHA/ALPHA PAIRS
IBATCH = 1 of  1
Closing buffer IPAQ[aa]  0.00 GB; CompressionRatio= 1.00)
SORTING OF BETA /BETA  PAIRS
IBATCH = 1 of  1
Closing buffer IPAQ[bb]( 0.00 GB; CompressionRatio= 1.00)
SORTING OF ALPHA/BETA  PAIRS (NMatSort_ab=46)
IBATCH = 1 of  1
Closing buffer IPAQ[ab]( 0.00 GB; CompressionRatio= 1.00)
SORTING OF BETA/ALPHA  PAIRS
IBATCH = 1 of  1
Closing buffer IPAQ[ba]( 0.00 GB; CompressionRatio= 1.00)
N(AO-Batches) Done                         ...       576 
N(AO-Batches) Skipped                      ...         0 
N(IJ)-pairs Skipped                        ...         0 
TOTAL TIME for half transformation         ...     4.814 sec
AO-integral generation                     ...     0.019 sec
Half transformation                        ...     0.191 sec
K-integral sorting                         ...     1.134 sec
<ss|**>: 
------------------------------
PARTIAL COULOMB TRANSFORMATION
------------------------------

Transformation type                        ... two-operators
Dimension of the basis                     ...   78
Number of internal alpha-MOs               ...   17 (4-20)
Number of internal beta-MOs                ...   10 (4-13)
Pair cutoff                                ... 0.000e+00 Eh
Number of AO pairs included in the trafo   ... 3081
Total Number of distinct AO pairs          ... 3081
Memory devoted for trafo                   ... 2500.0 MB 
Max. Number of MO pairs treated together   ... 106355      
Max. Number of MOs treated per batch       ... 1363      
Number Format for Storage                  ... Double (8 Byte)
AO-integral source                         ... DIRECT
Integral package used                      ... LIBINT

Starting integral evaluation:
<sp|**>:        16500 b        0 skpd     0.004 s (  0.000 ms/b)
<sd|**>:        18000 b        0 skpd     0.027 s (  0.002 ms/b)
       12000 b        0 skpd     0.038 s (  0.003 ms/b)
<sf|**>: <sg|**>:         9000 b        0 skpd     0.044 s (  0.005 ms/b)
<pp|**>:         3000 b        0 skpd     0.019 s (  0.006 ms/b)
        6300 b        0 skpd     0.026 s (  0.004 ms/b)
<pd|**>:         7200 b        0 skpd     0.057 s (  0.008 ms/b)
<pf|**>:         5400 b        0 skpd     0.125 s (  0.023 ms/b)
<pg|**>:         1800 b        0 skpd     0.047 s (  0.026 ms/b)
<dd|**>:         3000 b        0 skpd     0.136 s (  0.045 ms/b)
<df|**>:         3600 b        0 skpd     0.187 s (  0.052 ms/b)
<dg|**>:         1200 b        0 skpd     0.103 s (  0.086 ms/b)
<ff|**>:         1800 b        0 skpd     0.262 s (  0.146 ms/b)
<fg|**>:          900 b        0 skpd     0.117 s (  0.129 ms/b)
<gg|**>:          300 b        0 skpd     0.060 s (  0.201 ms/b)
Closing buffer AOJ[aa] ( 0.00 GB; CompressionRatio= 0.99)
Closing buffer AOJ[bb] ( 0.00 GB; CompressionRatio= 0.00)
Collecting buffer AOJ 
    ... done with AO integral generation
Number of Alpha-MO pairs included          ...  153
Number of Beta-MO pairs included           ...   55
    ... Now sorting integrals
SORTING ALPHA/ALPHA PAIRS
IBATCH = 1 of  1
Closing buffer JAO[aa] ( 0.00 GB; CompressionRatio= 1.00)
SORTING BETA/BETA PAIRS
IBATCH = 1 of  1
Closing buffer JAO[bb] ( 0.00 GB; CompressionRatio= 1.00)
Collecting buffer JAO 
TOTAL TIME for half transformation         ...     1.399 sec
AO-integral generation                     ...     1.039 sec
Half transformation                        ...     0.215 sec
J-integral sorting                         ...     0.107 sec

-------------------------- SECOND HALF TRANSFORMATION -------------------------
Formation of (ij|kl),(ij|ka), (ij|ab)      ... ok (     0.167 sec)
Formation of (ik|jl),(ik|ja), (ia|jb)      ... ok (     0.292 sec)


-----------------------
SPIN UNRESTRICTED GUESS
-----------------------

Entering MDCI_UHF_Guess, Tailored=0
Spin-components of the MP2 energy:
EMP2(aa)=     -0.184326540
EMP2(bb)=     -0.161754870
EMP2(ab)=     -0.459701895

Initial guess performed in     0.035 sec
E(0)                                       ...   -708.248379840
E(MP2)                                     ...     -0.805783305
Initial E(tot)                             ...   -709.054163145
<T|T>                                      ...      0.149410958
Number of pairs included                   ... 351

------------------------------------------------
                  UHF COUPLED CLUSTER ITERATIONS
------------------------------------------------

Number of amplitudes to be optimized       ...       933988

Iter       E(tot)           E(Corr)          Delta-E          Residual     Time      <S|S>**1/2
  0   -709.054163146     -0.805783306     -0.000000001      0.052969586    1.10      0.000043281
                           *** Turning on DIIS ***
  1   -708.993133116     -0.744753276      0.061030030      0.015161291    1.07      0.055512146
  2   -709.014269275     -0.765889435     -0.021136159      0.007930815    1.10      0.064209067
  3   -709.018573184     -0.770193344     -0.004303909      0.007239767    1.09      0.076445137
  4   -709.020461624     -0.772081784     -0.001888440      0.002632944    1.10      0.083507028
  5   -709.021461486     -0.773081646     -0.000999861      0.001991544    1.15      0.088314559
  6   -709.021750520     -0.773370680     -0.000289034      0.001728360    1.25      0.090633414
  7   -709.021886491     -0.773506651     -0.000135971      0.001431769    1.15      0.092306621
  8   -709.021976963     -0.773597123     -0.000090472      0.001109305    1.15      0.093284999
  9   -709.022026915     -0.773647075     -0.000049952      0.000882431    1.14      0.093576998
 10   -709.022013174     -0.773633334      0.000013741      0.000507962    1.11      0.093516568
 11   -709.022024687     -0.773644847     -0.000011513      0.000207589    1.12      0.093222731
 12   -709.022016699     -0.773636859      0.000007988      0.000101468    1.14      0.093126370
 13   -709.022018908     -0.773639068     -0.000002210      0.000049992    1.13      0.093092439
 14   -709.022020382     -0.773640542     -0.000001473      0.000028891    1.12      0.093052525
 15   -709.022020557     -0.773640717     -0.000000175      0.000016559    1.11      0.093064758
 16   -709.022019649     -0.773639809      0.000000908      0.000013955    1.11      0.093075096
 17   -709.022020044     -0.773640204     -0.000000395      0.000011879    1.12      0.093082469
 18   -709.022020530     -0.773640690     -0.000000486      0.000010249    1.10      0.093087795
 19   -709.022020149     -0.773640308      0.000000382      0.000008606    1.15      0.093093153
               --- The Coupled-Cluster iterations have converged ---

----------------------
COUPLED CLUSTER ENERGY
----------------------

E(0)                                       ...   -708.248379840
E(CORR)                                    ...     -0.773640308
E(TOT)                                     ...   -709.022020149
Singles norm <S|S>**1/2                    ...      0.093093153 ( 0.058204157, 0.034888996)  
T1 diagnostic                              ...      0.017915786                              

------------------
LARGEST AMPLITUDES
------------------
  20a-> 22a  13b-> 15b       0.092027
  20a-> 23a  13b-> 14b       0.091984
  13b-> 17b  -1b-> -1b       0.089746
  19a-> 21a  13b-> 16b       0.082928
  20a-> 26a  13b-> 18b       0.065552
  20a-> 24a  13b-> 19b       0.065435
  19a-> 30a  13b-> 16b       0.053373
  19a-> 21a  13b-> 25b       0.052905
  20a-> 25a  -1a-> -1a       0.052736
  20a-> 31a  13b-> 15b       0.051243
  20a-> 32a  13b-> 14b       0.051229
  20a-> 22a  13b-> 24b       0.050896
  20a-> 23a  13b-> 23b       0.050816
  20a-> 21a  13b-> 16b       0.044455
  19a-> 30a  13b-> 25b       0.040475
  19a-> 27a  13b-> 20b       0.037072

----------------------
UHF TRIPLES CORRECTION (Algorithm 1)
----------------------

Multiplier for the singles contribution    ...      1.000000000

SPIN-CASE Alpha-Alpha-Alpha:
10% done
20% done
30% done
40% done
50% done
60% done
70% done
80% done
90% done


SPIN-CASE Beta-Beta-Beta:
10% done
20% done
30% done
40% done
50% done
60% done
70% done
80% done
90% done


SPIN-CASE Alpha-Alpha-Beta:
10% done
20% done
30% done
40% done
50% done
60% done
70% done
80% done
90% done


SPIN-CASE Beta-Beta-Alpha:
10% done
20% done
30% done
40% done
50% done
60% done
70% done
80% done
90% done


Triples Correction (T)                     ...     -0.021819215
    alpha-alpha-alpha ... -0.002171491 ( 10.0%)
    alpha-alpha-beta  ... -0.011222765 ( 51.4%)
    alpha-beta -beta  ... -0.007932887 ( 36.4%)
    beta -beta -beta  ... -0.000492073 (  2.3%)
Scaling of triples based on CCSD energies (Peterson et al. Molecular Physics 113, 1551 (2015))
E(T*) = f*E(T) where f = E(F12-CCSD)/E(CCSD) 
f = CCSD (with F12)/ CCSD (without F12)    ...      1.000000000
Scaled triples correction (T)              ...     -0.021819215

Final correlation energy                   ...     -0.795459524
E(CCSD)                                    ...   -709.022020149
E(CCSD(T))                                 ...   -709.043839364



        !!!!!!!!!!!!!!!!!!!!!!!!!!!!!!!!!!!!!!!!!!!!!!!!!!!!!!!!!!!!!!!!!!!!!!!!!! 
        !  Warning: Densities are linearized densities                           !
        !!!!!!!!!!!!!!!!!!!!!!!!!!!!!!!!!!!!!!!!!!!!!!!!!!!!!!!!!!!!!!!!!!!!!!!!!! 

NORM  =      1.194034419 sqrt=     1.092718820
W(HF) =      0.837496796
------------------------------------------------------------------------------
                           ORCA POPULATION ANALYSIS
------------------------------------------------------------------------------
Input electron density              ... 63_Eu.mdcip
Input spin density                  ... 63_Eu.mdcir
BaseName (.gbw .S,...)              ... 63_Eu

                    ********************************
                    * MULLIKEN POPULATION ANALYSIS *
                    ********************************

------------------------------------------
MULLIKEN ATOMIC CHARGES AND SPIN DENSITIES
------------------------------------------
   0 Eu:   -0.000000    7.000000
Sum of atomic charges       :   -0.0000000
Sum of atomic spin densities:    7.0000000

---------------------------------------------------
MULLIKEN REDUCED ORBITAL CHARGES AND SPIN DENSITIES
---------------------------------------------------
CHARGE
  0 Eus       :     5.863015  s :     5.863015
      pz      :     4.007465  p :    12.027680
      px      :     4.007431
      py      :     4.012784
      dz2     :     2.266563  d :    11.064730
      dxz     :     2.023915
      dyz     :     2.015675
      dx2y2   :     2.742862
      dxy     :     2.015716
      f0      :     1.002715  f :     6.037680
      f+1     :     1.003118
      f-1     :     1.003646
      f+2     :     1.004628
      f-2     :     0.015376
      f+3     :     1.004225
      f-3     :     1.003973
      g0      :     0.000796  g :     0.006894
      g+1     :     0.000729
      g-1     :     0.000816
      g+2     :     0.000835
      g-2     :     0.000567
      g+3     :     0.000671
      g-3     :     0.000664
      g+4     :     0.000903
      g-4     :     0.000913

SPIN
  0 Eus       :     0.027896  s :     0.027896
      pz      :     0.004307  p :     0.016818
      px      :     0.004286
      py      :     0.008225
      dz2     :     0.249001  d :     0.990058
      dxz     :     0.006845
      dyz     :     0.005419
      dx2y2   :     0.723362
      dxy     :     0.005430
      f0      :     0.991920  f :     5.961085
      f+1     :     0.992176
      f-1     :     0.992845
      f+2     :     0.993767
      f-2     :     0.003875
      f+3     :     0.993510
      f-3     :     0.992993
      g0      :     0.000484  g :     0.004142
      g+1     :     0.000405
      g-1     :     0.000521
      g+2     :     0.000522
      g-2     :     0.000260
      g+3     :     0.000363
      g-3     :     0.000360
      g+4     :     0.000607
      g-4     :     0.000620


                     *******************************
                     * LOEWDIN POPULATION ANALYSIS *
                     *******************************

-----------------------------------------
LOEWDIN ATOMIC CHARGES AND SPIN DENSITIES
-----------------------------------------
   0 Eu:   -0.000000    7.000000

--------------------------------------------------
LOEWDIN REDUCED ORBITAL CHARGES AND SPIN DENSITIES
--------------------------------------------------
CHARGE
  0 Eus       :     5.863015  s :     5.863015
      pz      :     4.007465  p :    12.027680
      px      :     4.007431
      py      :     4.012784
      dz2     :     2.266563  d :    11.064730
      dxz     :     2.023915
      dyz     :     2.015675
      dx2y2   :     2.742862
      dxy     :     2.015716
      f0      :     1.002715  f :     6.037680
      f+1     :     1.003118
      f-1     :     1.003646
      f+2     :     1.004628
      f-2     :     0.015376
      f+3     :     1.004225
      f-3     :     1.003973
      g0      :     0.000796  g :     0.006894
      g+1     :     0.000729
      g-1     :     0.000816
      g+2     :     0.000835
      g-2     :     0.000567
      g+3     :     0.000671
      g-3     :     0.000664
      g+4     :     0.000903
      g-4     :     0.000913

SPIN
  0 Eus       :     0.027896  s :     0.027896
      pz      :     0.004307  p :     0.016818
      px      :     0.004286
      py      :     0.008225
      dz2     :     0.249001  d :     0.990058
      dxz     :     0.006845
      dyz     :     0.005419
      dx2y2   :     0.723362
      dxy     :     0.005430
      f0      :     0.991920  f :     5.961085
      f+1     :     0.992176
      f-1     :     0.992845
      f+2     :     0.993767
      f-2     :     0.003875
      f+3     :     0.993510
      f-3     :     0.992993
      g0      :     0.000484  g :     0.004142
      g+1     :     0.000405
      g-1     :     0.000521
      g+2     :     0.000522
      g-2     :     0.000260
      g+3     :     0.000363
      g-3     :     0.000360
      g+4     :     0.000607
      g-4     :     0.000620


                      *****************************
                      * MAYER POPULATION ANALYSIS *
                      *****************************

  NA   - Mulliken gross atomic population
  ZA   - Total nuclear charge
  QA   - Mulliken gross atomic charge
  VA   - Mayer's total valence
  BVA  - Mayer's bonded valence
  FA   - Mayer's free valence

  ATOM       NA         ZA         QA         VA         BVA        FA
  0 Eu    35.0000    35.0000    -0.0000     8.1892     0.0000     8.1892





------------------------------------------------------------------------------- 
                                     TIMINGS                                   
------------------------------------------------------------------------------- 


Total execution time                   ...       32.688 sec

Fock Matrix Formation                  ...        0.732 sec (  2.2%)
Initial Guess                          ...        0.035 sec (  0.1%)
DIIS Solver                            ...        1.818 sec (  5.6%)
State Vector Update                    ...        0.079 sec (  0.2%)
Sigma-vector construction              ...       20.620 sec ( 63.1%)
  <0|H|D>                              ...        0.004 sec (  0.0% of sigma)
  <D|H|D>(0-ext Fock)                  ...        0.039 sec (  0.2% of sigma)
  <D|H|D>(0-ext)                       ...        0.276 sec (  1.3% of sigma)
  <D|H|D>(2-ext Fock)                  ...        0.007 sec (  0.0% of sigma)
  <D|H|D>(2-ext)                       ...        0.524 sec (  2.5% of sigma)
  <D|H|D>(4-ext)                       ...        3.931 sec ( 19.1% of sigma)
  <S|H|0>                              ...        0.931 sec (  4.5% of sigma)
  <S|H|S>                              ...        0.004 sec (  0.0% of sigma)
  <S|H|D>(1-ext)                       ...        0.013 sec (  0.1% of sigma)
  <D|H|S>(1-ext)                       ...        0.156 sec (  0.8% of sigma)
  Fock-dressing                        ...        9.991 sec ( 48.5% of sigma)
  (ik|jl)-dressing                     ...        0.459 sec (  2.2% of sigma)
  (ij|ab),(ia|jb)-dressing             ...        3.332 sec ( 16.2% of sigma)
  Pair energies                        ...        0.007 sec (  0.0% of sigma)
Total Time for computing (T)           ...        1.669 sec (  5.1% of ALL)
  I/O of integral and amplitudes       ...        0.311 sec ( 18.6% of (T))
  External N**7 contributions          ...        0.398 sec ( 23.8% of (T))
  Internal N**7 contributions          ...        0.216 sec ( 13.0% of (T))
  N**6 triples energy contributions    ...        0.623 sec ( 37.3% of (T))


-------------------------   --------------------
FINAL SINGLE POINT ENERGY      -709.043839363988
-------------------------   --------------------


                            ***************************************
                            *     ORCA property calculations      *
                            ***************************************

                                    ---------------------
                                    Active property flags
                                    ---------------------
   (+) Dipole Moment


------------------------------------------------------------------------------
                       ORCA ELECTRIC PROPERTIES CALCULATION
------------------------------------------------------------------------------

Dipole Moment Calculation                       ... on
Quadrupole Moment Calculation                   ... off
Polarizability Calculation                      ... off
GBWName                                         ... 63_Eu.gbw
Electron density file                           ... 63_Eu.scfp
The origin for moment calculation is the CENTER OF MASS  = ( 0.000000,  0.000000  0.000000)

-------------
DIPOLE MOMENT
-------------
                                X             Y             Z
Electronic contribution:      0.00000      -0.00000       0.00000
Nuclear contribution   :      0.00000       0.00000       0.00000
                        -----------------------------------------
Total Dipole Moment    :      0.00000      -0.00000       0.00000
                        -----------------------------------------
Magnitude (a.u.)       :      0.00000
Magnitude (Debye)      :      0.00000



--------------------
Rotational spectrum 
--------------------
 
Rotational constants in cm-1:     0.000000     0.000000     0.000000 
Rotational constants in MHz :     0.000000     0.000000     0.000000 

 Dipole components along the rotational axes: 
x,y,z [a.u.] :     0.000000    -0.000000     0.000000 
x,y,z [Debye]:     0.000000    -0.000000     0.000000 

 

                           *** MDCI DENSITY ***

------------------------------------------------------------------------------
                       ORCA ELECTRIC PROPERTIES CALCULATION
------------------------------------------------------------------------------

Dipole Moment Calculation                       ... on
Quadrupole Moment Calculation                   ... off
Polarizability Calculation                      ... off
GBWName                                         ... 63_Eu.gbw
Electron density file                           ... 63_Eu.mdcip
The origin for moment calculation is the CENTER OF MASS  = ( 0.000000,  0.000000  0.000000)

-------------
DIPOLE MOMENT
-------------
                                X             Y             Z
Electronic contribution:     -0.00000      -0.00000      -0.00000
Nuclear contribution   :      0.00000       0.00000       0.00000
                        -----------------------------------------
Total Dipole Moment    :     -0.00000      -0.00000      -0.00000
                        -----------------------------------------
Magnitude (a.u.)       :      0.00000
Magnitude (Debye)      :      0.00000



--------------------
Rotational spectrum 
--------------------
 
Rotational constants in cm-1:     0.000000     0.000000     0.000000 
Rotational constants in MHz :     0.000000     0.000000     0.000000 

 Dipole components along the rotational axes: 
x,y,z [a.u.] :    -0.000000    -0.000000    -0.000000 
x,y,z [Debye]:    -0.000000    -0.000000    -0.000000 

 

Timings for individual modules:

Sum of individual times         ...       68.826 sec (=   1.147 min)
GTO integral calculation        ...        1.036 sec (=   0.017 min)   1.5 %
SCF iterations                  ...       34.405 sec (=   0.573 min)  50.0 %
MDCI module                     ...       33.386 sec (=   0.556 min)  48.5 %
                             ****ORCA TERMINATED NORMALLY****
TOTAL RUN TIME: 0 days 0 hours 1 minutes 9 seconds 766 msec
