
                                 *****************
                                 * O   R   C   A *
                                 *****************

           --- An Ab Initio, DFT and Semiempirical electronic structure package ---

                  #######################################################
                  #                        -***-                        #
                  #          Department of theory and spectroscopy      #
                  #               Directorship: Frank Neese             #
                  #        Max Planck Institute fuer Kohlenforschung    #
                  #                Kaiser Wilhelm Platz 1               #
                  #                 D-45470 Muelheim/Ruhr               #
                  #                      Germany                        #
                  #                                                     #
                  #                  All rights reserved                #
                  #                        -***-                        #
                  #######################################################


                         Program Version 4.2.0 -  RELEASE  -


 With contributions from (in alphabetic order):
   Daniel Aravena         : Magnetic Suceptibility
   Michael Atanasov       : Ab Initio Ligand Field Theory (pilot matlab implementation)
   Alexander A. Auer      : GIAO ZORA, VPT2
   Ute Becker             : Parallelization
   Giovanni Bistoni       : ED, misc. LED, open-shell LED, HFLED
   Martin Brehm           : Molecular dynamics
   Dmytro Bykov           : SCF Hessian
   Vijay G. Chilkuri      : MRCI spin determinant printing, contributions to CSF-ICE
   Dipayan Datta          : RHF DLPNO-CCSD density
   Achintya Kumar Dutta   : EOM-CC, STEOM-CC
   Dmitry Ganyushin       : Spin-Orbit,Spin-Spin,Magnetic field MRCI
   Miquel Garcia          : C-PCM Hessian, Gaussian charge scheme
   Yang Guo               : DLPNO-NEVPT2, CIM, IAO-localization
   Andreas Hansen         : Spin unrestricted coupled pair/coupled cluster methods
   Benjamin Helmich-Paris : CASSCF linear response (MC-RPA)
   Lee Huntington         : MR-EOM, pCC
   Robert Izsak           : Overlap fitted RIJCOSX, COSX-SCS-MP3, EOM
   Christian Kollmar      : KDIIS, OOCD, Brueckner-CCSD(T), CCSD density
   Simone Kossmann        : Meta GGA functionals, TD-DFT gradient, OOMP2, MP2 Hessian
   Martin Krupicka        : AUTO-CI
   Lucas Lang             : DCDCAS
   Dagmar Lenk            : GEPOL surface, SMD
   Dimitrios Liakos       : Extrapolation schemes; Compound Job, initial MDCI parallelization
   Dimitrios Manganas     : Further ROCIS development; embedding schemes
   Dimitrios Pantazis     : SARC Basis sets
   Taras Petrenko         : DFT Hessian,TD-DFT gradient, ASA, ECA, R-Raman, ABS, FL, XAS/XES, NRVS
   Peter Pinski           : DLPNO-MP2, DLPNO-MP2 Gradient
   Christoph Reimann      : Effective Core Potentials
   Marius Retegan         : Local ZFS, SOC
   Christoph Riplinger    : Optimizer, TS searches, QM/MM, DLPNO-CCSD(T), (RO)-DLPNO pert. Triples
   Tobias Risthaus        : Range-separated hybrids, TD-DFT gradient, RPA, STAB
   Michael Roemelt        : Original ROCIS implementation
   Masaaki Saitow         : Open-shell DLPNO-CCSD energy and density
   Barbara Sandhoefer     : DKH picture change effects
   Avijit Sen             : IP-ROCIS
   Kantharuban Sivalingam : CASSCF convergence, NEVPT2, FIC-MRCI
   Bernardo de Souza      : ESD, SOC TD-DFT
   Georgi Stoychev        : AutoAux, RI-MP2 NMR
   Willem Van den Heuvel  : Paramagnetic NMR
   Boris Wezisla          : Elementary symmetry handling
   Frank Wennmohs         : Technical directorship


 We gratefully acknowledge several colleagues who have allowed us to
 interface, adapt or use parts of their codes:
   Stefan Grimme, W. Hujo, H. Kruse,             : VdW corrections, initial TS optimization,
                  C. Bannwarth                     DFT functionals, gCP, sTDA/sTD-DF
   Ed Valeev, F. Pavosevic, A. Kumar             : LibInt (2-el integral package), F12 methods
   Garnet Chan, S. Sharma, J. Yang, R. Olivares  : DMRG
   Ulf Ekstrom                                   : XCFun DFT Library
   Mihaly Kallay                                 : mrcc  (arbitrary order and MRCC methods)
   Andreas Klamt, Michael Diedenhofen            : otool_cosmo (COSMO solvation model)
   Jiri Pittner, Ondrej Demel                    : Mk-CCSD
   Frank Weinhold                                : gennbo (NPA and NBO analysis)
   Christopher J. Cramer and Donald G. Truhlar   : smd solvation model
   Lars Goerigk                                  : TD-DFT with DH, B97 family of functionals
   V. Asgeirsson, H. Jonsson                     : NEB implementation
   FAccTs GmbH                                   : IRC, NEB, NEB-TS, Multilevel, MM, QM/MM, CI optimization
   S Lehtola, MJT Oliveira, MAL Marques          : LibXC Library


 Your calculation uses the libint2 library for the computation of 2-el integrals
 For citations please refer to: http://libint.valeyev.net

 Your ORCA version has been built with support for libXC version: 4.2.3
 For citations please refer to: https://tddft.org/programs/libxc/

 This ORCA versions uses:
   CBLAS   interface :  Fast vector & matrix operations
   LAPACKE interface :  Fast linear algebra routines
   SCALAPACK package :  Parallel linear algebra routines


----- Orbital basis set information -----
Your calculation utilizes the basis: def2-SVP
   F. Weigend and R. Ahlrichs, Phys. Chem. Chem. Phys. 7, 3297 (2005).

----- AuxJ basis set information -----
Your calculation utilizes the auxiliary basis: def2/J
   F. Weigend, Phys. Chem. Chem. Phys. 8, 1057 (2006).

================================================================================
                                        WARNINGS
                       Please study these warnings very carefully!
================================================================================


INFO   : the flag for use of LIBINT has been found!

================================================================================
                                       INPUT FILE
================================================================================
NAME = 63_Eu_atom63.inp
|  1> # input to generate an atomic fitting density for Eu
|  2> # this file is use internally by ORCA
|  3> #
|  4> # atomic ground state (S=8): 1s2 2s2 2p6 3s2 3p6 4s2 3d10 4p6 5s2 4d10 5p6 4f7 6s2 
|  5> #
|  6> ! RHF AllowRHF def2-SVP def2/J  NoMulliken NoLoewdin NoMayer NoPrintMOs 
|  7> 
|  8> %output print[p_atomdensfit] 2 end
|  9> 
| 10> %scf
| 11>   guess hcore
| 12>   maxiter 1000
| 13>   maxdisk 500000
| 14>   SCFMode Conventional
| 15>   lshift 0.300000
| 16>   hftyp rohf
| 17>   rohf_case sahf
| 18>   rohf_numop   2
| 19>   rohf_norb[1] 7
| 20>   rohf_nel[1]  7
| 21> end
| 22> 
| 23> %basis
| 24>   NewECP 63
| 25>     N_core 28
| 26>     lmax h
| 27>     s 1
| 28>       1      23.4713840000    607.6593310000  2
| 29>     p 1
| 30>       1      16.7724790000    264.3854760000  2
| 31>     d 1
| 32>       1      13.9813430000    115.3813750000  2
| 33>     f 1
| 34>       1      23.9628880000    -49.4007940000  2
| 35>     g 1
| 36>       1      21.2324580000    -26.7482730000  2
| 37>     h 1
| 38>       1       1.0000000000      0.0000000000  2
| 39>   end
| 40>   NewGTO 63
| 41>     s 5 
| 42>      1   70059.4199490000      0.0035861043
| 43>      2   10776.2349660000      0.0256585190
| 44>      3    2482.4900699000      0.1217969384
| 45>      4     704.0750608200      0.3690983036
| 46>      5     216.7926014200      0.5998558931
| 47>     s 1 
| 48>      1      41.4717668370      1.0000000000
| 49>     s 1 
| 50>      1      29.4989727100      1.0000000000
| 51>     s 1 
| 52>      1      15.0573107900      1.0000000000
| 53>     s 1 
| 54>      1       3.7727553910      1.0000000000
| 55>     s 1 
| 56>      1       1.9221051172      1.0000000000
| 57>     s 1 
| 58>      1       0.7131320184      1.0000000000
| 59>     s 1 
| 60>      1       0.3095729708      1.0000000000
| 61>     s 1 
| 62>      1       0.0548901372      1.0000000000
| 63>     s 1 
| 64>      1       0.0227062103      1.0000000000
| 65>     p 5 
| 66>      1     363.8182564300     -0.0083778125
| 67>      2     105.3263988100     -0.0250349228
| 68>      3      25.6056853060     -0.3443984478
| 69>      4      15.7463300580      1.1106808132
| 70>      5       3.3155465132     -1.1942333446
| 71>     p 3 
| 72>      1       7.3890693878     -0.2186814305
| 73>      2       4.5696085919     -0.4840495640
| 74>      3       1.9405010919     -0.3706072853
| 75>     p 1 
| 76>      1       0.9002520311      1.0000000000
| 77>     p 1 
| 78>      1       0.3446792548      1.0000000000
| 79>     p 1 
| 80>      1       0.0990265620      1.0000000000
| 81>     p 1 
| 82>      1       0.0271170305      1.0000000000
| 83>     d 6 
| 84>      1     388.9584306900      0.0006980929
| 85>      2     118.2543895200      0.0058441713
| 86>      3      44.9808299300      0.0230546534
| 87>      4      22.7941118500      0.0178418507
| 88>      5       7.7117339945      0.3893309883
| 89>      6       3.9280999668      0.6412419598
| 90>     d 1 
| 91>      1       1.9018719826      1.0000000000
| 92>     d 1 
| 93>      1       0.8307907731      1.0000000000
| 94>     d 1 
| 95>      1       0.1501175736      1.0000000000
| 96>     f 5 
| 97>      1      77.5837576770      0.0162349391
| 98>      2      30.8665969700      0.0905754319
| 99>      3      15.1806641050      0.1947944555
|100>      4       7.2916025684      0.3897592280
|101>      5       3.1127394549      0.5353821820
|102>     f 1 
|103>      1       1.2059599667      1.0000000000
|104>     f 1 
|105>      1       0.4057073023      1.0000000000
|106>   end
|107>   NewAuxGTO 63
|108>     S 1
|109>      1 1310.72 1.0
|110>     S 1
|111>      1  655.36 1.0
|112>     S 1
|113>      1  327.68 1.0
|114>     S 1
|115>      1  163.84 1.0
|116>     S 1
|117>      1   81.82 1.0
|118>     S 1
|119>      1   40.96 1.0
|120>     S 1
|121>      1   20.48 1.0
|122>     S 1
|123>      1   10.24 1.0
|124>     S 1
|125>      1    5.12 1.0
|126>     S 1
|127>      1    2.56 1.0
|128>     S 1
|129>      1    1.28 1.0
|130>     S 1
|131>      1    0.64 1.0
|132>     S 1
|133>      1    0.32 1.0
|134>     S 1
|135>      1    0.16 1.0
|136>     S 1
|137>      1    0.08 1.0
|138>     S 1
|139>      1    0.04 1.0
|140>     S 1
|141>      1    0.02 1.0
|142>     S 1
|143>      1    0.01 1.0
|144>   end
|145> end
|146> 
|147> * xyz 0 8
|148> 63  0.0 0.0 0.0
|149> *
|150> 
|151> 
|152>                          ****END OF INPUT****
================================================================================

                       ****************************
                       * Single Point Calculation *
                       ****************************

---------------------------------
CARTESIAN COORDINATES (ANGSTROEM)
---------------------------------
  Eu     0.000000    0.000000    0.000000

----------------------------
CARTESIAN COORDINATES (A.U.)
----------------------------
  NO LB      ZA    FRAG     MASS         X           Y           Z
   0 Eu   35.0000*   0   151.960    0.000000    0.000000    0.000000
* core charge reduced due to ECP

--------------------------------
INTERNAL COORDINATES (ANGSTROEM)
--------------------------------
 Eu     0   0   0     0.000000000000     0.00000000     0.00000000

---------------------------
INTERNAL COORDINATES (A.U.)
---------------------------
 Eu     0   0   0     0.000000000000     0.00000000     0.00000000

---------------------
BASIS SET INFORMATION
---------------------
There are 1 groups of distinct atoms

 Group   1 Type Eu  : 14s12p9d7f contracted to 10s6p4d3f pattern {5111111111/531111/6111/511}

Atom   0Eu   basis set group =>   1
---------------------------------
AUXILIARY/J BASIS SET INFORMATION
---------------------------------
There are 1 groups of distinct atoms

 Group   1 Type Eu  : 18s contracted to 18s pattern {111111111111111111}

Atom   0Eu   basis set group =>   1
-------------------------
ECP PARAMETER INFORMATION
-------------------------

 Group 1, Type Eu ECP (replacing 28 core electrons, lmax=5)

Atom   0Eu   ECP group =>   1

------------------------------------------------------------------------------
                           ORCA GTO INTEGRAL CALCULATION
------------------------------------------------------------------------------

                         BASIS SET STATISTICS AND STARTUP INFO

 # of primitive gaussian shells          ...   42
 # of primitive gaussian functions       ...  144
 # of contracted shells                  ...   23
 # of contracted basis functions         ...   69
 Highest angular momentum                ...    3
 Maximum contraction depth               ...    6
 Integral package used                   ... LIBINT
 Integral threshhold            Thresh   ...  1.000e-10
 Primitive cut-off              TCut     ...  1.000e-11
 Storage cut-off                TCutStore... -1.000e+00
 Buffer length                           ... 1048576 integrals/buffer
 Generate file with integrals 4 distinct ...false


------------------------------ INTEGRAL EVALUATION ----------------------------


 * One electron integrals 

   ECP integrals                         ... done
 Pre-screening matrix                    ... done
 Shell pair data                         ... done (   0.000 sec)
 Statistics run                          ... done
 Maximum amount of storage needed        ...    34 MB
 Maximum amount of storage dedicated     ... 500000 MB
 Beginning two electron integral evaluation:
 Starting repulsion integrals
  <ss|ss>  ...         1540 b.         0 skpd (  0.0%)     0.000 s. (  0.000 ms/b)
  <ss|sp>  ...         3300 b.         0 skpd (  0.0%)     0.001 s. (  0.000 ms/b)
  <ss|sd>  ...         2200 b.         0 skpd (  0.0%)     0.001 s. (  0.001 ms/b)
  <ss|sf>  ...         1650 b.         0 skpd (  0.0%)     0.001 s. (  0.001 ms/b)
  <ss|pp>  ...         1155 b.         0 skpd (  0.0%)     0.001 s. (  0.001 ms/b)
  <ss|pd>  ...         1320 b.         0 skpd (  0.0%)     0.002 s. (  0.001 ms/b)
  <ss|pf>  ...          990 b.         0 skpd (  0.0%)     0.002 s. (  0.002 ms/b)
  <ss|dd>  ...          550 b.         0 skpd (  0.0%)     0.001 s. (  0.002 ms/b)
  <ss|df>  ...          660 b.         0 skpd (  0.0%)     0.002 s. (  0.003 ms/b)
  <ss|ff>  ...          330 b.         0 skpd (  0.0%)     0.002 s. (  0.006 ms/b)
  <sp|sp>  ...         1830 b.         0 skpd (  0.0%)     0.001 s. (  0.001 ms/b)
  <sp|sd>  ...         2400 b.         0 skpd (  0.0%)     0.003 s. (  0.001 ms/b)
  <sp|sf>  ...         1799 b.         1 skpd (  0.1%)     0.003 s. (  0.002 ms/b)
  <sp|pp>  ...         1260 b.         0 skpd (  0.0%)     0.002 s. (  0.002 ms/b)
  <sp|pd>  ...         1440 b.         0 skpd (  0.0%)     0.005 s. (  0.003 ms/b)
  <sp|pf>  ...         1080 b.         0 skpd (  0.0%)     0.006 s. (  0.005 ms/b)
  <sp|dd>  ...          600 b.         0 skpd (  0.0%)     0.004 s. (  0.007 ms/b)
  <sp|df>  ...          720 b.         0 skpd (  0.0%)     0.007 s. (  0.010 ms/b)
  <sp|ff>  ...          360 b.         0 skpd (  0.0%)     0.006 s. (  0.018 ms/b)
  <sd|sd>  ...          819 b.         1 skpd (  0.1%)     0.002 s. (  0.003 ms/b)
  <sd|sf>  ...         1199 b.         1 skpd (  0.1%)     0.005 s. (  0.004 ms/b)
  <sd|pp>  ...          840 b.         0 skpd (  0.0%)     0.003 s. (  0.004 ms/b)
  <sd|pd>  ...          960 b.         0 skpd (  0.0%)     0.007 s. (  0.008 ms/b)
  <sd|pf>  ...          720 b.         0 skpd (  0.0%)     0.009 s. (  0.013 ms/b)
  <sd|dd>  ...          400 b.         0 skpd (  0.0%)     0.007 s. (  0.018 ms/b)
  <sd|df>  ...          480 b.         0 skpd (  0.0%)     0.014 s. (  0.029 ms/b)
  <sd|ff>  ...          240 b.         0 skpd (  0.0%)     0.014 s. (  0.056 ms/b)
  <sf|sf>  ...          463 b.         2 skpd (  0.4%)     0.005 s. (  0.010 ms/b)
  <sf|pp>  ...          630 b.         0 skpd (  0.0%)     0.005 s. (  0.009 ms/b)
  <sf|pd>  ...          720 b.         0 skpd (  0.0%)     0.019 s. (  0.026 ms/b)
  <sf|pf>  ...          540 b.         0 skpd (  0.0%)     0.016 s. (  0.029 ms/b)
  <sf|dd>  ...          300 b.         0 skpd (  0.0%)     0.013 s. (  0.043 ms/b)
  <sf|df>  ...          360 b.         0 skpd (  0.0%)     0.025 s. (  0.070 ms/b)
  <sf|ff>  ...          180 b.         0 skpd (  0.0%)     0.026 s. (  0.142 ms/b)
  <pp|pp>  ...          231 b.         0 skpd (  0.0%)     0.002 s. (  0.007 ms/b)
  <pp|pd>  ...          504 b.         0 skpd (  0.0%)     0.006 s. (  0.011 ms/b)
  <pp|pf>  ...          378 b.         0 skpd (  0.0%)     0.007 s. (  0.019 ms/b)
  <pp|dd>  ...          210 b.         0 skpd (  0.0%)     0.006 s. (  0.027 ms/b)
  <pp|df>  ...          252 b.         0 skpd (  0.0%)     0.010 s. (  0.042 ms/b)
  <pp|ff>  ...          126 b.         0 skpd (  0.0%)     0.010 s. (  0.082 ms/b)
  <pd|pd>  ...          300 b.         0 skpd (  0.0%)     0.008 s. (  0.028 ms/b)
  <pd|pf>  ...          432 b.         0 skpd (  0.0%)     0.018 s. (  0.043 ms/b)
  <pd|dd>  ...          240 b.         0 skpd (  0.0%)     0.015 s. (  0.063 ms/b)
  <pd|df>  ...          288 b.         0 skpd (  0.0%)     0.029 s. (  0.101 ms/b)
  <pd|ff>  ...          144 b.         0 skpd (  0.0%)     0.036 s. (  0.253 ms/b)
  <pf|pf>  ...          171 b.         0 skpd (  0.0%)     0.016 s. (  0.092 ms/b)
  <pf|dd>  ...          180 b.         0 skpd (  0.0%)     0.023 s. (  0.125 ms/b)
  <pf|df>  ...          216 b.         0 skpd (  0.0%)     0.047 s. (  0.218 ms/b)
  <pf|ff>  ...          108 b.         0 skpd (  0.0%)     0.049 s. (  0.458 ms/b)
  <dd|dd>  ...           55 b.         0 skpd (  0.0%)     0.011 s. (  0.208 ms/b)
  <dd|df>  ...          120 b.         0 skpd (  0.0%)     0.034 s. (  0.281 ms/b)
  <dd|ff>  ...           60 b.         0 skpd (  0.0%)     0.036 s. (  0.604 ms/b)
  <df|df>  ...           78 b.         0 skpd (  0.0%)     0.044 s. (  0.564 ms/b)
  <df|ff>  ...           72 b.         0 skpd (  0.0%)     0.073 s. (  1.013 ms/b)
  <ff|ff>  ...           21 b.         0 skpd (  0.0%)     0.057 s. (  2.721 ms/b)


                                      INTEGRAL STATISTICS

Integral type statistics:
 Number of integrals retained            ...    2917172 
 One   Center Integrals retained         ...    2917172 (100.0%)
 Two   Center Integrals retained         ...          0 (  0.0%)
 Three Center Integrals retained         ...          0 (  0.0%)
 Four  Center Integrals retained         ...          0 (  0.0%)

Storage statistics:
 Number of char integrals                ...          0 (  0.0%)
 Number of short int integrals           ...          0 (  0.0%)
 Number of double/float integrals        ...    2917172 (100.0%)
 Amount of memory used                   ...         36 MB
 Amount of memory estimated              ...         34 MB ( 94.7%)

Prescreening statistics:
 Total number of shell quadruples        ...      38226 
 Number of skipped shell quadruples      ...          9 (  0.0%)
 # of negligible batches done            ...          0 (  0.0%)

Timings:
 Total evaluation time               ...     1.123 sec (   0.019 min)
 One electron matrix time            ...     0.093 sec (   0.002 min) =  8.3%
 Schwartz matrix evaluation time     ...     0.141 sec (   0.002 min) = 12.6%
 Statistics run                      ...     0.021 sec (   0.000 min) =  1.9%
 Repulsion integral time             ...     0.761 sec (   0.013 min) = 67.7%

-------------------------------------------------------------------------------
                                 ORCA SCF
-------------------------------------------------------------------------------

------------
SCF SETTINGS
------------
Hamiltonian:
 Ab initio Hamiltonian  Method          .... Hartree-Fock(GTOs)


General Settings:
 Integral files         IntName         .... 63_Eu_atom63
 Hartree-Fock type      HFTyp           .... ROHF
 Total Charge           Charge          ....    0
 Multiplicity           Mult            ....    8
 Number of Electrons    NEL             ....   35
 Basis Dimension        Dim             ....   69
 Nuclear Repulsion      ENuc            ....      0.0000000000 Eh

Convergence Acceleration:
 DIIS                   CNVDIIS         .... on
   Start iteration      DIISMaxIt       ....    12
   Startup error        DIISStart       ....  0.200000
   # of expansion vecs  DIISMaxEq       ....     5
   Bias factor          DIISBfac        ....   1.050
   Max. coefficient     DIISMaxC        ....  10.000
 Newton-Raphson         CNVNR           .... off
 SOSCF                  CNVSOSCF        .... off
 Level Shifting         CNVShift        .... on
   Level shift para.    LevelShift      ....    0.3000
   Turn off err/grad.   ShiftErr        ....    0.0010
 Zerner damping         CNVZerner       .... off
 Static damping         CNVDamp         .... on
   Fraction old density DampFac         ....    0.7000
   Max. Damping (<1)    DampMax         ....    0.9800
   Min. Damping (>=0)   DampMin         ....    0.0000
   Turn off err/grad.   DampErr         ....    0.1000
 Fernandez-Rico         CNVRico         .... off

SCF Procedure:
 Maximum # iterations   MaxIter         ....  1000
 SCF integral mode      SCFMode         .... Conventional
 Integral Threshold     Thresh          ....  1.000e-10 Eh
 Primitive CutOff       TCut            ....  1.000e-11 Eh
 Integral Buffer length BufferLength    .... 1048576
 Integral index format  IndFormat       ....     0
 Integral value format  ValFormat       ....     0
 Integral Storage       Thresh          ....  1.000e-10 Eh

Convergence Tolerance:
 Convergence Check Mode ConvCheckMode   .... Total+1el-Energy
 Convergence forced     ConvForced      .... 0
 Energy Change          TolE            ....  1.000e-06 Eh
 1-El. energy change                    ....  1.000e-03 Eh
 DIIS Error             TolErr          ....  1.000e-06


Diagonalization of the overlap matrix:
Smallest eigenvalue                        ... 1.179e-03
Time for diagonalization                   ...    0.001 sec
Threshold for overlap eigenvalues          ... 1.000e-08
Number of eigenvalues below threshold      ... 0
Time for construction of square roots      ...    0.003 sec
Total time needed                          ...    0.004 sec

--------------------
INITIAL GUESS: HCORE
--------------------
AVERAGE-CONFIGURATION (SAHF) CASE FOUND

-------------------
FINAL ROHF SETTINGS
-------------------
Number of operators             ... 2
  operator   0:  14 orbitals  28 electrons n(mue)= 2.000
  operator   1:   7 orbitals   7 electrons n(mue)= 1.000
Vector coupling coefficients a and b (Zerner convention):
   1.000    1.000           1.000    1.000 
   1.000    1.000           1.000    2.000 

                      -----------------
                      INTIAL GUESS DONE 
                      -----------------

 InCore treatment chosen:
   Memory dedicated               ...    1024 MB
   Memory needed                  ...     36 MB
   Number of tiny    integrals    ...       0
   Number of small   integrals    ...       0
   Number of regular integrals    ... 2917172

--------------
SCF ITERATIONS
--------------
ITER       Energy         Delta-E        Max-DP      RMS-DP      [F,P]     Damp
  0   -566.1201478567   0.000000000000 4.09921869  0.10524724  5.7842698 0.7000
  1   -648.1881477797 -82.067999922965 2.91422482  0.05815685  2.0372331 0.7000
  2   -679.2020100993 -31.013862319584 2.05150608  0.04107712  0.6703561 0.7000
  3   -690.4913262762 -11.289316176901 1.43523942  0.02880108  0.3117387 0.7000
                            ****Activating DIIS****
  4   -695.5950894908  -5.103763214593 1.00450861  0.02005143  0.1414202 0.7000
  5   -699.1036092828  -3.508519792011 0.70282330  0.01403578  0.1155048 0.7000
  6   -701.6533540953  -2.549744812504 1.61340073  0.03382153  0.0684408 0.0000
  7   -707.8688051355  -6.215451040144 0.08267147  0.00105493  0.2267988 0.7000
  8   -707.9021997633  -0.033394627852 0.09527817  0.00121353  0.1807614 0.7000
  9   -707.9307521997  -0.028552436362 0.08482810  0.00107445  0.1507976 0.7000
 10   -707.9438021805  -0.013049980800 0.06502093  0.00081747  0.1416280 0.7000
 11   -707.9404125201   0.003389660388 0.16043892  0.00219681  0.1595308 0.7000
 12   -708.0145997969  -0.074187276851 0.15585566  0.00280467  0.0510392 0.0000
 13   -708.0225805059  -0.007980708993 0.09559986  0.00133582  0.0729855 0.0000
 14   -708.0375884701  -0.015007964155 0.14243434  0.00188628  0.0389414 0.0000
 15   -708.0461219145  -0.008533444394 0.25774777  0.00330671  0.0265705 0.0000
 16   -708.0511387573  -0.005016842826 0.06421449  0.00084323  0.0209546 0.0000
 17   -708.0539411373  -0.002802379993 0.05289837  0.00077555  0.0145509 0.0000
 18   -708.0568517827  -0.002910645455 0.13347488  0.00181576  0.0139478 0.0000
 19   -708.0605647164  -0.003712933646 0.07515881  0.00112236  0.0135782 0.0000
 20   -708.0631812047  -0.002616488335 0.06106702  0.00101211  0.0132404 0.0000
 21   -708.0657802790  -0.002599074306 0.03484965  0.00071229  0.0127932 0.0000
 22   -708.0680776596  -0.002297380581 0.01545631  0.00057462  0.0122918 0.0000
 23   -708.0704630405  -0.002385380881 0.00592533  0.00026443  0.0116388 0.0000
 24   -708.0716618343  -0.001198793810 0.00469209  0.00019948  0.0112454 0.0000
 25   -708.0708021504   0.000859683858 0.00446809  0.00010858  0.0115385 0.0000
 26   -708.0711647157  -0.000362565232 0.00093355  0.00002100  0.0114193 0.0000
 27   -708.0712307812  -0.000066065538 0.00221457  0.00007457  0.0113976 0.0000
 28   -708.0715224208  -0.000291639558 0.00085305  0.00003523  0.0112987 0.0000
 29   -708.0716883723  -0.000165951553 0.00133149  0.00002232  0.0112477 0.0000
 30   -708.0716666370   0.000021735328 0.00274204  0.00007342  0.0112508 0.0000
 31   -708.0719227336  -0.000256096602 0.00079348  0.00003379  0.0111586 0.0000
 32   -708.0720678925  -0.000145158887 0.00284117  0.00013015  0.0111096 0.0000
 33   -708.0726246979  -0.000556805414 0.01108379  0.00050108  0.0109032 0.0000
 34   -708.0746949899  -0.002070292043 0.02621449  0.00115965  0.0100086 0.0000
 35   -708.0789419251  -0.004246935192 0.02509324  0.00109928  0.0073800 0.0000
 36   -708.0820987814  -0.003156856225 0.00606401  0.00025015  0.0090881 0.0000
 37   -708.0827436933  -0.000644911901 0.00800289  0.00033273  0.0093228 0.0000
 38   -708.0835141300  -0.000770436744 0.01077044  0.00045733  0.0095610 0.0000
 39   -708.0844100505  -0.000895920525 0.00928171  0.00039863  0.0096351 0.0000
 40   -708.0850348391  -0.000624788536 0.01000432  0.00042643  0.0094950 0.0000
 41   -708.0855561511  -0.000521312070 0.00950617  0.00041272  0.0092952 0.0000
 42   -708.0859253092  -0.000369158059 0.00896738  0.00039978  0.0089382 0.0000
 43   -708.0861698380  -0.000244528850 0.00823404  0.00033116  0.0084783 0.0000
 44   -708.0863114337  -0.000141595609 0.00870600  0.00032008  0.0079950 0.0000
 45   -708.0864219882  -0.000110554565 0.00993010  0.00035102  0.0074338 0.0000
 46   -708.0865176489  -0.000095660705 0.01119263  0.00038305  0.0067769 0.0000
 47   -708.0866051600  -0.000087511071 0.01647790  0.00053794  0.0060201 0.0000
 48   -708.0866685246  -0.000063364565 0.01783158  0.00055431  0.0049140 0.0000
 49   -708.0866893036  -0.000020779029 0.01379690  0.00041238  0.0037344 0.0000
 50   -708.0867191234  -0.000029819809 0.01068957  0.00032264  0.0028670 0.0000
 51   -708.0867853082  -0.000066184826 0.00875503  0.00029217  0.0022601 0.0000
 52   -708.0868899407  -0.000104632470 0.00770124  0.00029650  0.0018413 0.0000
 53   -708.0870049454  -0.000115004681 0.00638302  0.00028865  0.0017206 0.0000
 54   -708.0871037900  -0.000098844580 0.00531277  0.00019729  0.0017956 0.0000
 55   -708.0871643324  -0.000060542444 0.00322508  0.00010942  0.0018160 0.0000
 56   -708.0872049646  -0.000040632177 0.00280113  0.00009981  0.0017861 0.0000
 57   -708.0872406499  -0.000035685346 0.00282655  0.00010657  0.0017246 0.0000
 58   -708.0872698097  -0.000029159765 0.00252374  0.00008688  0.0016542 0.0000
 59   -708.0872872951  -0.000017485409 0.00147070  0.00005396  0.0016445 0.0000
 60   -708.0872957927  -0.000008497568 0.00074981  0.00003045  0.0016790 0.0000
 61   -708.0872999423  -0.000004149674 0.00046761  0.00001802  0.0016930 0.0000
 62   -708.0873022032  -0.000002260865 0.00034433  0.00001284  0.0016984 0.0000
 63   -708.0873036920  -0.000001488834 0.00027345  0.00001000  0.0017013 0.0000
 64   -708.0873047719  -0.000001079868 0.00021360  0.00000774  0.0017030 0.0000
                 **** Energy Check signals convergence ****

               *****************************************************
               *                     SUCCESS                       *
               *           SCF CONVERGED AFTER  65 CYCLES          *
               *****************************************************


----------------
TOTAL SCF ENERGY
----------------

Total Energy       :         -708.08730556 Eh          -19268.03515 eV

Components:
Nuclear Repulsion  :            0.00000000 Eh               0.00000 eV
Electronic Energy  :         -708.08730556 Eh          -19268.03515 eV
One Electron Energy:        -1256.53814408 Eh          -34192.14120 eV
Two Electron Energy:          548.45083853 Eh           14924.10604 eV

Virial components:
Potential Energy   :        -1060.55906218 Eh          -28859.27926 eV
Kinetic Energy     :          352.47175663 Eh            9591.24411 eV
Virial Ratio       :            3.00891927


---------------
SCF CONVERGENCE
---------------

  Last Energy change         ...   -7.8341e-07  Tolerance :   1.0000e-06
  Last MAX-Density change    ...    1.6616e-04  Tolerance :   1.0000e-05
  Last RMS-Density change    ...    5.9813e-06  Tolerance :   1.0000e-06
  Last DIIS Error            ...    1.7040e-03  Tolerance :   1.0000e-06

             **** THE GBW FILE WAS UPDATED (63_Eu_atom63.gbw) ****
             **** DENSITY FILE WAS UPDATED (63_Eu_atom63.scfp) ****
             **** ENERGY FILE WAS UPDATED (63_Eu_atom63.en.tmp) ****
             **** THE GBW FILE WAS UPDATED (63_Eu_atom63.gbw) ****
             **** DENSITY FILE WAS UPDATED (63_Eu_atom63.scfp) ****
----------------
ORBITAL ENERGIES
----------------

  NO   OCC          E(Eh)            E(eV) 
   0   2.0000     -14.501220      -394.5983 
   1   2.0000     -10.462693      -284.7043 
   2   2.0000     -10.460380      -284.6414 
   3   2.0000     -10.457942      -284.5751 
   4   2.0000      -5.492790      -149.4664 
   5   2.0000      -5.490650      -149.4082 
   6   2.0000      -5.490393      -149.4012 
   7   2.0000      -5.489955      -149.3893 
   8   2.0000      -5.486818      -149.3039 
   9   2.0000      -1.927409       -52.4475 
  10   2.0000      -1.002555       -27.2809 
  11   2.0000      -0.997464       -27.1424 
  12   2.0000      -0.996735       -27.1225 
  13   2.0000      -0.336447        -9.1552 
  14   1.0000      -0.444587       -12.0978 
  15   1.0000      -0.438279       -11.9262 
  16   1.0000      -0.435799       -11.8587 
  17   1.0000      -0.426932       -11.6174 
  18   1.0000      -0.424646       -11.5552 
  19   1.0000      -0.167733        -4.5642 
  20   1.0000      -0.111398        -3.0313 
  21   0.0000       0.026347         0.7169 
  22   0.0000       0.029084         0.7914 
  23   0.0000       0.029687         0.8078 
  24   0.0000       0.111483         3.0336 
  25   0.0000       0.174925         4.7599 
  26   0.0000       0.178220         4.8496 
  27   0.0000       0.180508         4.9119 
  28   0.0000       0.195362         5.3161 
  29   0.0000       0.285581         7.7710 
  30   0.0000       0.283100         7.7035 
  31   0.0000       0.283018         7.7013 
  32   0.0000       0.580401        15.7935 
  33   0.0000       1.270936        34.5839 
  34   0.0000       1.241079        33.7715 
  35   0.0000       1.288069        35.0501 
  36   0.0000       1.284809        34.9614 
  37   0.0000       1.285653        34.9844 
  38   0.0000       1.292481        35.1702 
  39   0.0000       1.328427        36.1483 
  40   0.0000       1.320515        35.9330 
  41   0.0000       1.326197        36.0876 
  42   0.0000       1.310601        35.6633 
  43   0.0000       1.308455        35.6049 
  44   0.0000       1.311375        35.6843 
  45   0.0000       1.436905        39.1002 
  46   0.0000       1.965358        53.4801 
  47   0.0000       1.968214        53.5578 
  48   0.0000       1.969272        53.5866 
  49   0.0000       4.565152       124.2241 
  50   0.0000       4.548951       123.7833 
  51   0.0000       4.549547       123.7995 
  52   0.0000       4.551587       123.8550 
  53   0.0000       4.551702       123.8581 
  54   0.0000       4.552108       123.8691 
  55   0.0000       4.680023       127.3499 
  56   0.0000       6.937144       188.7693 
  57   0.0000       6.936751       188.7586 
  58   0.0000       6.919406       188.2866 
  59   0.0000       6.927796       188.5149 
  60   0.0000       6.911241       188.0644 
  61   0.0000       7.154448       194.6824 
  62   0.0000       8.750482       238.1127 
  63   0.0000      34.060307       926.8281 
  64   0.0000      34.061146       926.8509 
  65   0.0000      34.037350       926.2034 
  66   0.0000      61.863607      1683.3943 
  67   0.0000     216.660561      5895.6336 
  68   0.0000     515.630030     14031.0064 
CleanUpVectors: The p-vectors have cracked symmetry
CleanUpVectors: The p-vectors have cracked symmetry
CleanUpVectors: The p-vectors have cracked symmetry
CleanUpVectors: The d-vectors have cracked symmetry at i=4
CleanUpVectors: The d-vectors have cracked symmetry at i=5
CleanUpVectors: The d-vectors have cracked symmetry at i=6
CleanUpVectors: The d-vectors have cracked symmetry at i=7
CleanUpVectors: The d-vectors have cracked symmetry at i=8
CleanUpVectors: The p-vectors have cracked symmetry
CleanUpVectors: The p-vectors have cracked symmetry
CleanUpVectors: The p-vectors have cracked symmetry
CleanUpVectors: The f-vectors have cracked symmetry
CleanUpVectors: The d-vectors have cracked symmetry at i=15
CleanUpVectors: The f-vectors have cracked symmetry
CleanUpVectors: The f-vectors have cracked symmetry
CleanUpVectors: The f-vectors have cracked symmetry
CleanUpVectors: The f-vectors have cracked symmetry
CleanUpVectors: The f-vectors have cracked symmetry
CleanUpVectors: The p-vectors have cracked symmetry
CleanUpVectors: The p-vectors have cracked symmetry
CleanUpVectors: The p-vectors have cracked symmetry
CleanUpVectors: The d-vectors have cracked symmetry at i=25
CleanUpVectors: The d-vectors have cracked symmetry at i=26
CleanUpVectors: The d-vectors have cracked symmetry at i=27
CleanUpVectors: The d-vectors have cracked symmetry at i=28
CleanUpVectors: The p-vectors have cracked symmetry
CleanUpVectors: The p-vectors have cracked symmetry
CleanUpVectors: The p-vectors have cracked symmetry
CleanUpVectors: The f-vectors have cracked symmetry
CleanUpVectors: The d-vectors have cracked symmetry at i=34
CleanUpVectors: The d-vectors have cracked symmetry at i=35
CleanUpVectors: The d-vectors have cracked symmetry at i=36
CleanUpVectors: The d-vectors have cracked symmetry at i=37
CleanUpVectors: The d-vectors have cracked symmetry at i=38
CleanUpVectors: The f-vectors have cracked symmetry
CleanUpVectors: The f-vectors have cracked symmetry
CleanUpVectors: The f-vectors have cracked symmetry
CleanUpVectors: The f-vectors have cracked symmetry
CleanUpVectors: The f-vectors have cracked symmetry
CleanUpVectors: The f-vectors have cracked symmetry
CleanUpVectors: The f-vectors have cracked symmetry
CleanUpVectors: The p-vectors have cracked symmetry
CleanUpVectors: The p-vectors have cracked symmetry
CleanUpVectors: The p-vectors have cracked symmetry
CleanUpVectors: The f-vectors have cracked symmetry
CleanUpVectors: The f-vectors have cracked symmetry
CleanUpVectors: The f-vectors have cracked symmetry
CleanUpVectors: The f-vectors have cracked symmetry
CleanUpVectors: The f-vectors have cracked symmetry
CleanUpVectors: The f-vectors have cracked symmetry
CleanUpVectors: The f-vectors have cracked symmetry
CleanUpVectors: The d-vectors have cracked symmetry at i=56
CleanUpVectors: The d-vectors have cracked symmetry at i=57
CleanUpVectors: The d-vectors have cracked symmetry at i=58
CleanUpVectors: The d-vectors have cracked symmetry at i=59
CleanUpVectors: The d-vectors have cracked symmetry at i=60
CleanUpVectors: The p-vectors have cracked symmetry
CleanUpVectors: The p-vectors have cracked symmetry
CleanUpVectors: The p-vectors have cracked symmetry
--------------------------
ATOM BASIS FOR ELEMENT Eu
--------------------------
 NewGTO Eu
 S 14
    1      70059.419949000003        -0.000099354164
    2      10776.234966000000        -0.000710877456
    3       2482.490069900000        -0.003374423039
    4        704.075060820000        -0.010225986266
    5        216.792601420000        -0.016619198909
    6         41.471766837000         0.161807797895
    7         29.498972710000        -0.585375512711
    8         15.057310790000         1.037350101090
    9          3.772755391000        -0.977736849069
   10          1.922105117200        -0.410155204183
   11          0.713132018400        -0.018009193909
   12          0.309572970800         0.001743241534
   13          0.054890137200        -0.000461662537
   14          0.022706210300         0.000180688203
 P 42
    1        363.818256430000        -0.002033024972
    2        105.326398810000        -0.006075168576
    3         25.605685306000        -0.083574399027
    4         15.746330058000         0.269526422279
    5          3.315546513200        -0.289801927711
    6        363.818256430000         0.000777247005
    7        105.326398810000         0.002322601367
    8         25.605685306000         0.031951378964
    9         15.746330058000        -0.103042809272
   10          3.315546513200         0.110794349998
   11        363.818256430000         0.000716588822
   12        105.326398810000         0.002141340098
   13         25.605685306000         0.029457818253
   14         15.746330058000        -0.095001106251
   15          3.315546513200         0.102147698520
   16          7.389069387800        -0.151173313598
   17          4.569608591900        -0.334620897478
   18          1.940501091900        -0.256198851610
   19          7.389069387800         0.057795343022
   20          4.569608591900         0.127929520705
   21          1.940501091900         0.097947846469
   22          7.389069387800         0.053284685895
   23          4.569608591900         0.117945217919
   24          1.940501091900         0.090303473607
   25          0.900252031100        -0.026719125370
   26          0.900252031100         0.010211038437
   27          0.900252031100         0.009418807913
   28          0.344679254800        -0.000756273775
   29          0.344679254800         0.000290636177
   30          0.344679254800         0.000266535139
   31          0.099026562000         0.000104292361
   32          0.099026562000        -0.000040536307
   33          0.099026562000        -0.000037625268
   34          0.027117030500        -0.000029238315
   35          0.027117030500         0.000011266144
   36          0.027117030500         0.000010242225
   37         77.583757677000        -0.006804070684
   38         30.866596970000        -0.015102418730
   39         15.180664105000        -0.015974037684
   40          7.291602568400        -0.015352062793
   41          3.112739454900        -0.009002311291
   42         77.583757677000        -0.000747968235
 D 42
    1      70059.419949000003        -0.000000000001
    2      10776.234966000000        -0.000000000024
    3       2482.490069900000        -0.000000000492
    4        704.075060820000        -0.000000005260
    5        216.792601420000        -0.000000027764
    6         41.471766837000         0.000000830611
    7         29.498972710000        -0.000004498102
    8         15.057310790000         0.000016520017
    9          3.772755391000        -0.000081782075
   10          1.922105117200        -0.000092514264
   11          0.713132018400         0.000516016514
   12          0.309572970800         0.000015261909
   13          0.054890137200        -0.000441835555
   14          0.022706210300        -0.000400083294
   15        388.958430690000         0.000388845880
   16        118.254389520000         0.003255271513
   17         44.980829930000         0.012841710589
   18         22.794111850000         0.009938118743
   19          7.711733994500         0.216861897175
   20          3.928099966800         0.357179243701
   21        388.958430690000        -0.000193462343
   22        118.254389520000        -0.001619594001
   23         44.980829930000        -0.006389131398
   24         22.794111850000        -0.004944508448
   25          7.711733994500        -0.107895217442
   26          3.928099966800        -0.177707253634
   27        388.958430690000        -0.000249402244
   28        118.254389520000        -0.002087901817
   29         44.980829930000        -0.008236557460
   30         22.794111850000        -0.006374219813
   31          7.711733994500        -0.139093266783
   32          3.928099966800        -0.229091548496
   33        388.958430690000         0.000021651738
   34        118.254389520000         0.000181260214
   35         44.980829930000         0.000715052861
   36         22.794111850000         0.000553374894
   37          7.711733994500         0.012075316514
   38          3.928099966800         0.019888474998
   39        388.958430690000         0.000105647088
   40        118.254389520000         0.000884437700
   41         44.980829930000         0.003489015565
   42         22.794111850000         0.002700127116
 S 14
    1      70059.419949000003        -0.000111648696
    2      10776.234966000000        -0.000798844634
    3       2482.490069900000        -0.003791989345
    4        704.075060820000        -0.011491395867
    5        216.792601420000        -0.018675733438
    6         41.471766837000         0.050399514421
    7         29.498972710000        -0.242211323954
    8         15.057310790000         0.507203248212
    9          3.772755391000        -0.727771366948
   10          1.922105117200        -0.428586531444
   11          0.713132018400         0.770829698691
   12          0.309572970800         0.607354162244
   13          0.054890137200         0.026890726896
   14          0.022706210300        -0.006021483561
 S 14
    1      70059.419949000003        -0.000034130942
    2      10776.234966000000        -0.000244206347
    3       2482.490069900000        -0.001159208969
    4        704.075060820000        -0.003512913128
    5        216.792601420000        -0.005709161005
    6         41.471766837000         0.011966868789
    7         29.498972710000        -0.061655981051
    8         15.057310790000         0.132150447488
    9          3.772755391000        -0.206412058643
   10          1.922105117200        -0.109920791819
   11          0.713132018400         0.250465601619
   12          0.309572970800         0.392716970609
   13          0.054890137200        -0.559983485312
   14          0.022706210300        -0.607977183464
 S 14
    1      70059.419949000003        -0.000031174313
    2      10776.234966000000        -0.000223051715
    3       2482.490069900000        -0.001058791274
    4        704.075060820000        -0.003208603337
    5        216.792601420000        -0.005214598933
    6         41.471766837000         0.014844179013
    7         29.498972710000        -0.064322620899
    8         15.057310790000         0.128406837311
    9          3.772755391000        -0.225769795832
   10          1.922105117200        -0.000429761261
   11          0.713132018400        -0.009772041615
   12          0.309572970800         0.789110897087
   13          0.054890137200        -2.564112365610
   14          0.022706210300         2.158449934523
 S 14
    1      70059.419949000003        -0.000130573348
    2      10776.234966000000        -0.000934250223
    3       2482.490069900000        -0.004434738298
    4        704.075060820000        -0.013439207950
    5        216.792601420000        -0.021841303546
    6         41.471766837000        -0.020643124158
    7         29.498972710000        -0.075654875435
    8         15.057310790000         0.297494771948
    9          3.772755391000        -0.138860758591
   10          1.922105117200        -1.837244656065
   11          0.713132018400         4.676143757076
   12          0.309572970800        -3.893355306108
   13          0.054890137200         1.560583544983
   14          0.022706210300        -0.728655515382
 S 14
    1      70059.419949000003         0.002070672560
    2      10776.234966000000         0.014815629098
    3       2482.490069900000         0.070327452051
    4        704.075060820000         0.213123117785
    5        216.792601420000         0.346366149375
    6         41.471766837000         0.151529403146
    7         29.498972710000         0.358388016533
    8         15.057310790000        -1.139728145798
    9          3.772755391000         4.539209730402
   10          1.922105117200        -6.163830562221
   11          0.713132018400         4.045904176708
   12          0.309572970800        -1.798396224938
   13          0.054890137200         0.453848395261
   14          0.022706210300        -0.210063629997
 S 14
    1      70059.419949000003         0.002191294282
    2      10776.234966000000         0.015678675595
    3       2482.490069900000         0.074424197501
    4        704.075060820000         0.225538058716
    5        216.792601420000         0.366542821573
    6         41.471766837000         0.874669226011
    7         29.498972710000        -1.571179704497
    8         15.057310790000         1.903170475868
    9          3.772755391000        -4.889568091942
   10          1.922105117200         6.080769086970
   11          0.713132018400        -3.670815683137
   12          0.309572970800         1.579350926690
   13          0.054890137200        -0.394823469847
   14          0.022706210300         0.183013431843
 S 14
    1      70059.419949000003         0.000572409890
    2      10776.234966000000         0.004095583624
    3       2482.490069900000         0.019441088799
    4        704.075060820000         0.058915051481
    5        216.792601420000         0.095748315498
    6         41.471766837000        -4.885718361866
    7         29.498972710000        10.095983441914
    8         15.057310790000        -7.708320274402
    9          3.772755391000         5.048918573871
   10          1.922105117200        -4.206993392296
   11          0.713132018400         1.880220232784
   12          0.309572970800        -0.755334485847
   13          0.054890137200         0.191357183156
   14          0.022706210300        -0.089430553369
 S 14
    1      70059.419949000003        -0.000436630425
    2      10776.234966000000        -0.003124083718
    3       2482.490069900000        -0.014829532139
    4        704.075060820000        -0.044940006108
    5        216.792601420000        -0.073036172849
    6         41.471766837000        -8.359512197635
    7         29.498972710000        13.683093845519
    8         15.057310790000        -5.991630776465
    9          3.772755391000         2.438023885600
   10          1.922105117200        -1.901717375230
   11          0.713132018400         0.830380792756
   12          0.309572970800        -0.334214549249
   13          0.054890137200         0.085294578356
   14          0.022706210300        -0.039936426240
 S 14
    1      70059.419949000003        -0.003973260836
    2      10776.234966000000        -0.028428617833
    3       2482.490069900000        -0.134946160180
    4        704.075060820000        -0.408946230128
    5        216.792601420000        -0.664616455049
    6         41.471766837000        10.611772558118
    7         29.498972710000       -13.314520690748
    8         15.057310790000         4.578787993301
    9          3.772755391000        -1.657122685237
   10          1.922105117200         1.283890813699
   11          0.713132018400        -0.561302022816
   12          0.309572970800         0.226493132034
   13          0.054890137200        -0.057969346256
   14          0.022706210300         0.027157939574
 P 42
    1        363.818256430000        -0.000886343353
    2        105.326398810000        -0.002648607549
    3         25.605685306000        -0.036436155039
    4         15.746330058000         0.117506157672
    5          3.315546513200        -0.126345724190
    6        363.818256430000         0.000333815534
    7        105.326398810000         0.000997521265
    8         25.605685306000         0.013722621713
    9         15.746330058000        -0.044255288433
   10          3.315546513200         0.047584454952
   11        363.818256430000         0.000312567587
   12        105.326398810000         0.000934027279
   13         25.605685306000         0.012849152663
   14         15.746330058000        -0.041438361351
   15          3.315546513200         0.044555620555
   16          7.389069387800        -0.088745214893
   17          4.569608591900        -0.196436809828
   18          1.940501091900        -0.150399707463
   19          7.389069387800         0.033423391996
   20          4.569608591900         0.073982405759
   21          1.940501091900         0.056643824512
   22          7.389069387800         0.031295856344
   23          4.569608591900         0.069273122934
   24          1.940501091900         0.053038213324
   25          0.900252031100         0.441625656440
   26          0.900252031100        -0.166330557435
   27          0.900252031100        -0.155733572013
   28          0.344679254800         0.575316390932
   29          0.344679254800        -0.216666342823
   30          0.344679254800        -0.202896558729
   31          0.099026562000         0.085711489710
   32          0.099026562000        -0.032289301053
   33          0.099026562000        -0.030210118131
   34          0.027117030500        -0.008911161702
   35          0.027117030500         0.003356648657
   36          0.027117030500         0.003141682998
   37         77.583757677000         0.009838281851
   38         30.866596970000         0.021837199967
   39         15.180664105000         0.023097509175
   40          7.291602568400         0.022198170445
   41          3.112739454900         0.013016807131
   42         77.583757677000        -0.007572360380
 F 42
    1        363.818256430000        -0.000000000231
    2        105.326398810000        -0.000000002383
    3         25.605685306000        -0.000000134849
    4         15.746330058000         0.000000707184
    5          3.315546513200        -0.000003611241
    6        363.818256430000         0.000000003445
    7        105.326398810000         0.000000035559
    8         25.605685306000         0.000002012180
    9         15.746330058000        -0.000010552416
   10          3.315546513200         0.000053886015
   11        363.818256430000         0.000000001033
   12        105.326398810000         0.000000010663
   13         25.605685306000         0.000000603412
   14         15.746330058000        -0.000003164456
   15          3.315546513200         0.000016159326
   16          7.389069387800        -0.000001184865
   17          4.569608591900        -0.000004240894
   18          1.940501091900        -0.000007646218
   19          7.389069387800         0.000017601628
   20          4.569608591900         0.000063000138
   21          1.940501091900         0.000113587549
   22          7.389069387800         0.000005314644
   23          4.569608591900         0.000019022292
   24          1.940501091900         0.000034296680
   25          0.900252031100         0.000054486693
   26          0.900252031100        -0.000796682399
   27          0.900252031100        -0.000248403119
   28          0.344679254800         0.000137334946
   29          0.344679254800        -0.001955437363
   30          0.344679254800        -0.000595403553
   31          0.099026562000         0.000273832153
   32          0.099026562000        -0.006069407944
   33          0.099026562000        -0.001148168204
   34          0.027117030500         0.000295638610
   35          0.027117030500        -0.003914091033
   36          0.027117030500        -0.000700664642
   37         77.583757677000         0.005926374566
   38         30.866596970000         0.033063501661
   39         15.180664105000         0.071107436839
   40          7.291602568400         0.142277045906
   41          3.112739454900         0.195435001440
   42         77.583757677000         0.008153034648
 F 42
    1        363.818256430000        -0.000000083843
    2        105.326398810000        -0.000000865429
    3         25.605685306000        -0.000048971949
    4         15.746330058000         0.000256822179
    5          3.315546513200        -0.001311464912
    6        363.818256430000         0.000000031411
    7        105.326398810000         0.000000324225
    8         25.605685306000         0.000018346861
    9         15.746330058000        -0.000096215914
   10          3.315546513200         0.000491327485
   11        363.818256430000         0.000000029795
   12        105.326398810000         0.000000307542
   13         25.605685306000         0.000017402819
   14         15.746330058000        -0.000091265100
   15          3.315546513200         0.000466046106
   16          7.389069387800        -0.000420421649
   17          4.569608591900        -0.001504782532
   18          1.940501091900        -0.002713082318
   19          7.389069387800         0.000157507550
   20          4.569608591900         0.000563754532
   21          1.940501091900         0.001016434215
   22          7.389069387800         0.000149402335
   23          4.569608591900         0.000534744166
   24          1.940501091900         0.000964129308
   25          0.900252031100         0.020890682788
   26          0.900252031100        -0.007826638995
   27          0.900252031100        -0.007423646712
   28          0.344679254800         0.058675779126
   29          0.344679254800        -0.021981451892
   30          0.344679254800        -0.020851010450
   31          0.099026562000         0.267874933969
   32          0.099026562000        -0.100348848679
   33          0.099026562000        -0.095204643497
   34          0.027117030500        -8.790048985633
   35          0.027117030500         3.292837129245
   36          0.027117030500         3.123656267276
   37         77.583757677000         0.000013169600
   38         30.866596970000         0.000073473770
   39         15.180664105000         0.000158015068
   40          7.291602568400         0.000316168296
   41          3.112739454900         0.000434295996
   42         77.583757677000         0.000002854545
 F 42
    1        363.818256430000        -0.000000225096
    2        105.326398810000        -0.000002323433
    3         25.605685306000        -0.000131475825
    4         15.746330058000         0.000689494873
    5          3.315546513200        -0.003520912157
    6        363.818256430000         0.000000084363
    7        105.326398810000         0.000000870793
    8         25.605685306000         0.000049275447
    9         15.746330058000        -0.000258413807
   10          3.315546513200         0.001319592574
   11        363.818256430000         0.000000079913
   12        105.326398810000         0.000000824857
   13         25.605685306000         0.000046676081
   14         15.746330058000        -0.000244782026
   15          3.315546513200         0.001249981753
   16          7.389069387800        -0.001172080996
   17          4.569608591900        -0.004195138410
   18          1.940501091900        -0.007563721402
   19          7.389069387800         0.000439281647
   20          4.569608591900         0.001572286657
   21          1.940501091900         0.002834790435
   22          7.389069387800         0.000416108263
   23          4.569608591900         0.001489343966
   24          1.940501091900         0.002685247000
   25          0.900252031100         0.031405089158
   26          0.900252031100        -0.011771219926
   27          0.900252031100        -0.011148499743
   28          0.344679254800         0.514008751750
   29          0.344679254800        -0.192635199629
   30          0.344679254800        -0.182486818928
   31          0.099026562000        -3.710645852660
   32          0.099026562000         1.390646274342
   33          0.099026562000         1.317349767401
   34          0.027117030500         6.474288865864
   35          0.027117030500        -2.426386296560
   36          0.027117030500        -2.298474349142
   37         77.583757677000         0.000021591711
   38         30.866596970000         0.000120461097
   39         15.180664105000         0.000259067534
   40          7.291602568400         0.000518361582
   41          3.112739454900         0.000712033314
   42         77.583757677000        -0.000003393565
 D 42
    1      70059.419949000003        -0.000000000000
    2      10776.234966000000        -0.000000000007
    3       2482.490069900000        -0.000000000140
    4        704.075060820000        -0.000000001491
    5        216.792601420000        -0.000000007871
    6         41.471766837000        -0.000000056921
    7         29.498972710000        -0.000000144533
    8         15.057310790000         0.000001421282
    9          3.772755391000        -0.000001004387
   10          1.922105117200        -0.000083235724
   11          0.713132018400         0.000556024399
   12          0.309572970800        -0.001084095435
   13          0.054890137200         0.002580278022
   14          0.022706210300        -0.003077615409
   15        388.958430690000         0.000163652495
   16        118.254389520000         0.001370037161
   17         44.980829930000         0.005404655385
   18         22.794111850000         0.004182628678
   19          7.711733994500         0.091270069685
   20          3.928099966800         0.150325045052
   21        388.958430690000         0.000063362747
   22        118.254389520000         0.000530449096
   23         44.980829930000         0.002092567010
   24         22.794111850000         0.001619424397
   25          7.711733994500         0.035337819575
   26          3.928099966800         0.058202643406
   27        388.958430690000         0.000130410397
   28        118.254389520000         0.001091746811
   29         44.980829930000         0.004306828641
   30         22.794111850000         0.003333027492
   31          7.711733994500         0.072730733453
   32          3.928099966800         0.119790100091
   33        388.958430690000         0.000021050475
   34        118.254389520000         0.000176226665
   35         44.980829930000         0.000695196028
   36         22.794111850000         0.000538007816
   37          7.711733994500         0.011739988098
   38          3.928099966800         0.019336177192
   39        388.958430690000        -0.000097098853
   40        118.254389520000        -0.000812875093
   41         44.980829930000        -0.003206708456
   42         22.794111850000        -0.002481651427
 F 42
    1        363.818256430000         0.000000003390
    2        105.326398810000         0.000000034994
    3         25.605685306000         0.000001980221
    4         15.746330058000        -0.000010384813
    5          3.315546513200         0.000053030148
    6        363.818256430000        -0.000000001288
    7        105.326398810000        -0.000000013294
    8         25.605685306000        -0.000000752268
    9         15.746330058000         0.000003945098
   10          3.315546513200        -0.000020145683
   11        363.818256430000        -0.000000001849
   12        105.326398810000        -0.000000019084
   13         25.605685306000        -0.000001079893
   14         15.746330058000         0.000005663253
   15          3.315546513200        -0.000028919454
   16          7.389069387800         0.000016806814
   17          4.569608591900         0.000060155321
   18          1.940501091900         0.000108458422
   19          7.389069387800        -0.000006387984
   20          4.569608591900        -0.000022864016
   21          1.940501091900        -0.000041223204
   22          7.389069387800        -0.000009174173
   23          4.569608591900        -0.000032836404
   24          1.940501091900        -0.000059203151
   25          0.900252031100        -0.001649017599
   26          0.900252031100         0.000634744386
   27          0.900252031100         0.000921475633
   28          0.344679254800         0.003683815915
   29          0.344679254800        -0.001439348379
   30          0.344679254800        -0.002129978608
   31          0.099026562000        -0.009883869903
   32          0.099026562000         0.003672589533
   33          0.099026562000         0.005339219935
   34          0.027117030500         0.011486404623
   35          0.027117030500        -0.004301064181
   36          0.027117030500        -0.006184740871
   37         77.583757677000         0.001306381285
   38         30.866596970000         0.007288358053
   39         15.180664105000         0.015674578731
   40          7.291602568400         0.031362862406
   41          3.112739454900         0.043080744476
   42         77.583757677000         0.000518625475
 F 42
    1        363.818256430000         0.000000000137
    2        105.326398810000         0.000000001415
    3         25.605685306000         0.000000080074
    4         15.746330058000        -0.000000419930
    5          3.315546513200         0.000002144378
    6        363.818256430000        -0.000000001721
    7        105.326398810000        -0.000000017765
    8         25.605685306000        -0.000001005260
    9         15.746330058000         0.000005271857
   10          3.315546513200        -0.000026920788
   11        363.818256430000        -0.000000000467
   12        105.326398810000        -0.000000004821
   13         25.605685306000        -0.000000272806
   14         15.746330058000         0.000001430667
   15          3.315546513200        -0.000007305714
   16          7.389069387800         0.000000837750
   17          4.569608591900         0.000002998494
   18          1.940501091900         0.000005406204
   19          7.389069387800        -0.000011085647
   20          4.569608591900        -0.000039677995
   21          1.940501091900        -0.000071538355
   22          7.389069387800        -0.000002979306
   23          4.569608591900        -0.000010663600
   24          1.940501091900        -0.000019226183
   25          0.900252031100        -0.000069852036
   26          0.900252031100         0.000961969482
   27          0.900252031100         0.000257257008
   28          0.344679254800         0.000087496897
   29          0.344679254800        -0.001325177450
   30          0.344679254800        -0.000348702205
   31          0.099026562000         0.000036398791
   32          0.099026562000        -0.000321935167
   33          0.099026562000        -0.000094687492
   34          0.027117030500         0.000625957075
   35          0.027117030500         0.000180128281
   36         77.583757677000         0.006146934588
   37         30.866596970000         0.034294015622
   38         15.180664105000         0.073753819992
   39          7.291602568400         0.147572126057
   40          3.112739454900         0.202708444535
   41         77.583757677000         0.008563872279
   42         30.866596970000         0.047778216204
 D 42
    1      70059.419949000003         0.000000000064
    2      10776.234966000000         0.000000002992
    3       2482.490069900000         0.000000061661
    4        704.075060820000         0.000000658850
    5        216.792601420000         0.000003477492
    6         41.471766837000         0.000001643187
    7         29.498972710000         0.000049042400
    8         15.057310790000        -0.000229011341
    9          3.772755391000         0.003439518388
   10          1.922105117200        -0.009341513157
   11          0.713132018400         0.017783864997
   12          0.309572970800        -0.020060515352
   13          0.054890137200         0.032203535101
   14          0.022706210300        -0.033429932688
   15        388.958430690000         0.000561016906
   16        118.254389520000         0.004696622613
   17         44.980829930000         0.018527692111
   18         22.794111850000         0.014338463942
   19          7.711733994500         0.312882807449
   20          3.928099966800         0.515329091867
   21        388.958430690000        -0.000558469554
   22        118.254389520000        -0.004675297142
   23         44.980829930000        -0.018443565325
   24         22.794111850000        -0.014273358753
   25          7.711733994500        -0.311462132668
   26          3.928099966800        -0.512989190065
   27        388.958430690000        -0.000398195008
   28        118.254389520000        -0.003333538903
   29         44.980829930000        -0.013150467373
   30         22.794111850000        -0.010177063668
   31          7.711733994500        -0.222075967488
   32          3.928099966800        -0.365767002618
   33        388.958430690000        -0.000000471043
   34        118.254389520000        -0.000003943399
   35         44.980829930000        -0.000015556301
   36         22.794111850000        -0.000012038923
   37          7.711733994500        -0.000262704024
   38          3.928099966800        -0.000432682855
   39        388.958430690000         0.000213961439
   40        118.254389520000         0.001791204727
   41         44.980829930000         0.007066118021
   42         22.794111850000         0.005468424121
 P 42
    1        363.818256430000        -0.010463253326
    2        105.326398810000        -0.031266722579
    3         25.605685306000        -0.430127578586
    4         15.746330058000         1.387156219244
    5          3.315546513200        -1.491507003185
    6        363.818256430000         0.004052667034
    7        105.326398810000         0.012110345788
    8         25.605685306000         0.166598648019
    9         15.746330058000        -0.537278617373
   10          3.315546513200         0.577696159492
   11        363.818256430000         0.003705020697
   12        105.326398810000         0.011071494752
   13         25.605685306000         0.152307464175
   14         15.746330058000        -0.491189722970
   15          3.315546513200         0.528140162974
   16          7.389069387800         0.161846267778
   17          4.569608591900         0.358245394562
   18          1.940501091900         0.274286690918
   19          7.389069387800        -0.062686664977
   20          4.569608591900        -0.138756421985
   21          1.940501091900        -0.106237345706
   22          7.389069387800        -0.057309471644
   23          4.569608591900        -0.126854048370
   24          1.940501091900        -0.097124422770
   25          0.900252031100         0.569206947059
   26          0.900252031100        -0.220469639920
   27          0.900252031100        -0.201555336287
   28          0.344679254800        -0.360889223830
   29          0.344679254800         0.139782762589
   30          0.344679254800         0.127790280206
   31          0.099026562000         0.130246000908
   32          0.099026562000        -0.050447793139
   33          0.099026562000        -0.046119900126
   34          0.027117030500        -0.039624470355
   35          0.027117030500         0.015347559495
   36          0.027117030500         0.014030957401
   37         77.583757677000        -0.000032845595
   38         30.866596970000        -0.000072904582
   39         15.180664105000        -0.000077112187
   40          7.291602568400        -0.000074109700
   41          3.112739454900        -0.000043457260
   42         77.583757677000        -0.000125150885
 end
  // -----------------------------------------------
  // The basis set
  // -----------------------------------------------
  BAS[ATNO] = new BFNGauss[NSH];
  // Basis function   1 L = s
  InitBFNGauss(BAS[ATNO][  0]);
  BAS[ATNO][  0].l  = 0;
  BAS[ATNO][  0].ng = 14;
  BAS[ATNO][  0].a[  0] =     70059.419949000003;     BAS[ATNO][  0].d[  0] =        -0.000099354164;
  BAS[ATNO][  0].a[  1] =     10776.234966000000;     BAS[ATNO][  0].d[  1] =        -0.000710877456;
  BAS[ATNO][  0].a[  2] =      2482.490069900000;     BAS[ATNO][  0].d[  2] =        -0.003374423039;
  BAS[ATNO][  0].a[  3] =       704.075060820000;     BAS[ATNO][  0].d[  3] =        -0.010225986266;
  BAS[ATNO][  0].a[  4] =       216.792601420000;     BAS[ATNO][  0].d[  4] =        -0.016619198909;
  BAS[ATNO][  0].a[  5] =        41.471766837000;     BAS[ATNO][  0].d[  5] =         0.161807797895;
  BAS[ATNO][  0].a[  6] =        29.498972710000;     BAS[ATNO][  0].d[  6] =        -0.585375512711;
  BAS[ATNO][  0].a[  7] =        15.057310790000;     BAS[ATNO][  0].d[  7] =         1.037350101090;
  BAS[ATNO][  0].a[  8] =         3.772755391000;     BAS[ATNO][  0].d[  8] =        -0.977736849069;
  BAS[ATNO][  0].a[  9] =         1.922105117200;     BAS[ATNO][  0].d[  9] =        -0.410155204183;
  BAS[ATNO][  0].a[ 10] =         0.713132018400;     BAS[ATNO][  0].d[ 10] =        -0.018009193909;
  BAS[ATNO][  0].a[ 11] =         0.309572970800;     BAS[ATNO][  0].d[ 11] =         0.001743241534;
  BAS[ATNO][  0].a[ 12] =         0.054890137200;     BAS[ATNO][  0].d[ 12] =        -0.000461662537;
  BAS[ATNO][  0].a[ 13] =         0.022706210300;     BAS[ATNO][  0].d[ 13] =         0.000180688203;

  // Basis function   2 L = p
  InitBFNGauss(BAS[ATNO][  1]);
  BAS[ATNO][  1].l  = 1;
  BAS[ATNO][  1].ng = 42;
  BAS[ATNO][  1].a[  0] =       363.818256430000;     BAS[ATNO][  1].d[  0] =         0.002033024972;
  BAS[ATNO][  1].a[  1] =       105.326398810000;     BAS[ATNO][  1].d[  1] =         0.006075168576;
  BAS[ATNO][  1].a[  2] =        25.605685306000;     BAS[ATNO][  1].d[  2] =         0.083574399027;
  BAS[ATNO][  1].a[  3] =        15.746330058000;     BAS[ATNO][  1].d[  3] =        -0.269526422279;
  BAS[ATNO][  1].a[  4] =         3.315546513200;     BAS[ATNO][  1].d[  4] =         0.289801927711;
  BAS[ATNO][  1].a[  5] =       363.818256430000;     BAS[ATNO][  1].d[  5] =        -0.000777247005;
  BAS[ATNO][  1].a[  6] =       105.326398810000;     BAS[ATNO][  1].d[  6] =        -0.002322601367;
  BAS[ATNO][  1].a[  7] =        25.605685306000;     BAS[ATNO][  1].d[  7] =        -0.031951378964;
  BAS[ATNO][  1].a[  8] =        15.746330058000;     BAS[ATNO][  1].d[  8] =         0.103042809272;
  BAS[ATNO][  1].a[  9] =         3.315546513200;     BAS[ATNO][  1].d[  9] =        -0.110794349998;
  BAS[ATNO][  1].a[ 10] =       363.818256430000;     BAS[ATNO][  1].d[ 10] =        -0.000716588822;
  BAS[ATNO][  1].a[ 11] =       105.326398810000;     BAS[ATNO][  1].d[ 11] =        -0.002141340098;
  BAS[ATNO][  1].a[ 12] =        25.605685306000;     BAS[ATNO][  1].d[ 12] =        -0.029457818253;
  BAS[ATNO][  1].a[ 13] =        15.746330058000;     BAS[ATNO][  1].d[ 13] =         0.095001106251;
  BAS[ATNO][  1].a[ 14] =         3.315546513200;     BAS[ATNO][  1].d[ 14] =        -0.102147698520;
  BAS[ATNO][  1].a[ 15] =         7.389069387800;     BAS[ATNO][  1].d[ 15] =         0.151173313598;
  BAS[ATNO][  1].a[ 16] =         4.569608591900;     BAS[ATNO][  1].d[ 16] =         0.334620897478;
  BAS[ATNO][  1].a[ 17] =         1.940501091900;     BAS[ATNO][  1].d[ 17] =         0.256198851610;
  BAS[ATNO][  1].a[ 18] =         7.389069387800;     BAS[ATNO][  1].d[ 18] =        -0.057795343022;
  BAS[ATNO][  1].a[ 19] =         4.569608591900;     BAS[ATNO][  1].d[ 19] =        -0.127929520705;
  BAS[ATNO][  1].a[ 20] =         1.940501091900;     BAS[ATNO][  1].d[ 20] =        -0.097947846469;
  BAS[ATNO][  1].a[ 21] =         7.389069387800;     BAS[ATNO][  1].d[ 21] =        -0.053284685895;
  BAS[ATNO][  1].a[ 22] =         4.569608591900;     BAS[ATNO][  1].d[ 22] =        -0.117945217919;
  BAS[ATNO][  1].a[ 23] =         1.940501091900;     BAS[ATNO][  1].d[ 23] =        -0.090303473607;
  BAS[ATNO][  1].a[ 24] =         0.900252031100;     BAS[ATNO][  1].d[ 24] =         0.026719125370;
  BAS[ATNO][  1].a[ 25] =         0.900252031100;     BAS[ATNO][  1].d[ 25] =        -0.010211038437;
  BAS[ATNO][  1].a[ 26] =         0.900252031100;     BAS[ATNO][  1].d[ 26] =        -0.009418807913;
  BAS[ATNO][  1].a[ 27] =         0.344679254800;     BAS[ATNO][  1].d[ 27] =         0.000756273775;
  BAS[ATNO][  1].a[ 28] =         0.344679254800;     BAS[ATNO][  1].d[ 28] =        -0.000290636177;
  BAS[ATNO][  1].a[ 29] =         0.344679254800;     BAS[ATNO][  1].d[ 29] =        -0.000266535139;
  BAS[ATNO][  1].a[ 30] =         0.099026562000;     BAS[ATNO][  1].d[ 30] =        -0.000104292361;
  BAS[ATNO][  1].a[ 31] =         0.099026562000;     BAS[ATNO][  1].d[ 31] =         0.000040536307;
  BAS[ATNO][  1].a[ 32] =         0.099026562000;     BAS[ATNO][  1].d[ 32] =         0.000037625268;
  BAS[ATNO][  1].a[ 33] =         0.027117030500;     BAS[ATNO][  1].d[ 33] =         0.000029238315;
  BAS[ATNO][  1].a[ 34] =         0.027117030500;     BAS[ATNO][  1].d[ 34] =        -0.000011266144;
  BAS[ATNO][  1].a[ 35] =         0.027117030500;     BAS[ATNO][  1].d[ 35] =        -0.000010242225;
  BAS[ATNO][  1].a[ 36] =        77.583757677000;     BAS[ATNO][  1].d[ 36] =         0.006804070684;
  BAS[ATNO][  1].a[ 37] =        30.866596970000;     BAS[ATNO][  1].d[ 37] =         0.015102418730;
  BAS[ATNO][  1].a[ 38] =        15.180664105000;     BAS[ATNO][  1].d[ 38] =         0.015974037684;
  BAS[ATNO][  1].a[ 39] =         7.291602568400;     BAS[ATNO][  1].d[ 39] =         0.015352062793;
  BAS[ATNO][  1].a[ 40] =         3.112739454900;     BAS[ATNO][  1].d[ 40] =         0.009002311291;
  BAS[ATNO][  1].a[ 41] =        77.583757677000;     BAS[ATNO][  1].d[ 41] =         0.000747968235;

  // Basis function   3 L = d
  InitBFNGauss(BAS[ATNO][  2]);
  BAS[ATNO][  2].l  = 2;
  BAS[ATNO][  2].ng = 42;
  BAS[ATNO][  2].a[  0] =     70059.419949000003;     BAS[ATNO][  2].d[  0] =        -0.000000000001;
  BAS[ATNO][  2].a[  1] =     10776.234966000000;     BAS[ATNO][  2].d[  1] =        -0.000000000024;
  BAS[ATNO][  2].a[  2] =      2482.490069900000;     BAS[ATNO][  2].d[  2] =        -0.000000000492;
  BAS[ATNO][  2].a[  3] =       704.075060820000;     BAS[ATNO][  2].d[  3] =        -0.000000005260;
  BAS[ATNO][  2].a[  4] =       216.792601420000;     BAS[ATNO][  2].d[  4] =        -0.000000027764;
  BAS[ATNO][  2].a[  5] =        41.471766837000;     BAS[ATNO][  2].d[  5] =         0.000000830611;
  BAS[ATNO][  2].a[  6] =        29.498972710000;     BAS[ATNO][  2].d[  6] =        -0.000004498102;
  BAS[ATNO][  2].a[  7] =        15.057310790000;     BAS[ATNO][  2].d[  7] =         0.000016520017;
  BAS[ATNO][  2].a[  8] =         3.772755391000;     BAS[ATNO][  2].d[  8] =        -0.000081782075;
  BAS[ATNO][  2].a[  9] =         1.922105117200;     BAS[ATNO][  2].d[  9] =        -0.000092514264;
  BAS[ATNO][  2].a[ 10] =         0.713132018400;     BAS[ATNO][  2].d[ 10] =         0.000516016514;
  BAS[ATNO][  2].a[ 11] =         0.309572970800;     BAS[ATNO][  2].d[ 11] =         0.000015261909;
  BAS[ATNO][  2].a[ 12] =         0.054890137200;     BAS[ATNO][  2].d[ 12] =        -0.000441835555;
  BAS[ATNO][  2].a[ 13] =         0.022706210300;     BAS[ATNO][  2].d[ 13] =        -0.000400083294;
  BAS[ATNO][  2].a[ 14] =       388.958430690000;     BAS[ATNO][  2].d[ 14] =         0.000388845880;
  BAS[ATNO][  2].a[ 15] =       118.254389520000;     BAS[ATNO][  2].d[ 15] =         0.003255271513;
  BAS[ATNO][  2].a[ 16] =        44.980829930000;     BAS[ATNO][  2].d[ 16] =         0.012841710589;
  BAS[ATNO][  2].a[ 17] =        22.794111850000;     BAS[ATNO][  2].d[ 17] =         0.009938118743;
  BAS[ATNO][  2].a[ 18] =         7.711733994500;     BAS[ATNO][  2].d[ 18] =         0.216861897175;
  BAS[ATNO][  2].a[ 19] =         3.928099966800;     BAS[ATNO][  2].d[ 19] =         0.357179243701;
  BAS[ATNO][  2].a[ 20] =       388.958430690000;     BAS[ATNO][  2].d[ 20] =        -0.000193462343;
  BAS[ATNO][  2].a[ 21] =       118.254389520000;     BAS[ATNO][  2].d[ 21] =        -0.001619594001;
  BAS[ATNO][  2].a[ 22] =        44.980829930000;     BAS[ATNO][  2].d[ 22] =        -0.006389131398;
  BAS[ATNO][  2].a[ 23] =        22.794111850000;     BAS[ATNO][  2].d[ 23] =        -0.004944508448;
  BAS[ATNO][  2].a[ 24] =         7.711733994500;     BAS[ATNO][  2].d[ 24] =        -0.107895217442;
  BAS[ATNO][  2].a[ 25] =         3.928099966800;     BAS[ATNO][  2].d[ 25] =        -0.177707253634;
  BAS[ATNO][  2].a[ 26] =       388.958430690000;     BAS[ATNO][  2].d[ 26] =        -0.000249402244;
  BAS[ATNO][  2].a[ 27] =       118.254389520000;     BAS[ATNO][  2].d[ 27] =        -0.002087901817;
  BAS[ATNO][  2].a[ 28] =        44.980829930000;     BAS[ATNO][  2].d[ 28] =        -0.008236557460;
  BAS[ATNO][  2].a[ 29] =        22.794111850000;     BAS[ATNO][  2].d[ 29] =        -0.006374219813;
  BAS[ATNO][  2].a[ 30] =         7.711733994500;     BAS[ATNO][  2].d[ 30] =        -0.139093266783;
  BAS[ATNO][  2].a[ 31] =         3.928099966800;     BAS[ATNO][  2].d[ 31] =        -0.229091548496;
  BAS[ATNO][  2].a[ 32] =       388.958430690000;     BAS[ATNO][  2].d[ 32] =         0.000021651738;
  BAS[ATNO][  2].a[ 33] =       118.254389520000;     BAS[ATNO][  2].d[ 33] =         0.000181260214;
  BAS[ATNO][  2].a[ 34] =        44.980829930000;     BAS[ATNO][  2].d[ 34] =         0.000715052861;
  BAS[ATNO][  2].a[ 35] =        22.794111850000;     BAS[ATNO][  2].d[ 35] =         0.000553374894;
  BAS[ATNO][  2].a[ 36] =         7.711733994500;     BAS[ATNO][  2].d[ 36] =         0.012075316514;
  BAS[ATNO][  2].a[ 37] =         3.928099966800;     BAS[ATNO][  2].d[ 37] =         0.019888474998;
  BAS[ATNO][  2].a[ 38] =       388.958430690000;     BAS[ATNO][  2].d[ 38] =         0.000105647088;
  BAS[ATNO][  2].a[ 39] =       118.254389520000;     BAS[ATNO][  2].d[ 39] =         0.000884437700;
  BAS[ATNO][  2].a[ 40] =        44.980829930000;     BAS[ATNO][  2].d[ 40] =         0.003489015565;
  BAS[ATNO][  2].a[ 41] =        22.794111850000;     BAS[ATNO][  2].d[ 41] =         0.002700127116;

  // Basis function   4 L = s
  InitBFNGauss(BAS[ATNO][  3]);
  BAS[ATNO][  3].l  = 0;
  BAS[ATNO][  3].ng = 14;
  BAS[ATNO][  3].a[  0] =     70059.419949000003;     BAS[ATNO][  3].d[  0] =        -0.000111648696;
  BAS[ATNO][  3].a[  1] =     10776.234966000000;     BAS[ATNO][  3].d[  1] =        -0.000798844634;
  BAS[ATNO][  3].a[  2] =      2482.490069900000;     BAS[ATNO][  3].d[  2] =        -0.003791989345;
  BAS[ATNO][  3].a[  3] =       704.075060820000;     BAS[ATNO][  3].d[  3] =        -0.011491395867;
[...]
  BAS[ATNO][ 18].a[ 26] =         0.900252031100;     BAS[ATNO][ 18].d[ 26] =         0.000257257008;
  BAS[ATNO][ 18].a[ 27] =         0.344679254800;     BAS[ATNO][ 18].d[ 27] =         0.000087496897;
  BAS[ATNO][ 18].a[ 28] =         0.344679254800;     BAS[ATNO][ 18].d[ 28] =        -0.001325177450;
  BAS[ATNO][ 18].a[ 29] =         0.344679254800;     BAS[ATNO][ 18].d[ 29] =        -0.000348702205;
  BAS[ATNO][ 18].a[ 30] =         0.099026562000;     BAS[ATNO][ 18].d[ 30] =         0.000036398791;
  BAS[ATNO][ 18].a[ 31] =         0.099026562000;     BAS[ATNO][ 18].d[ 31] =        -0.000321935167;
  BAS[ATNO][ 18].a[ 32] =         0.099026562000;     BAS[ATNO][ 18].d[ 32] =        -0.000094687492;
  BAS[ATNO][ 18].a[ 33] =         0.027117030500;     BAS[ATNO][ 18].d[ 33] =         0.000625957075;
  BAS[ATNO][ 18].a[ 34] =         0.027117030500;     BAS[ATNO][ 18].d[ 34] =         0.000180128281;
  BAS[ATNO][ 18].a[ 35] =        77.583757677000;     BAS[ATNO][ 18].d[ 35] =         0.006146934588;
  BAS[ATNO][ 18].a[ 36] =        30.866596970000;     BAS[ATNO][ 18].d[ 36] =         0.034294015622;
  BAS[ATNO][ 18].a[ 37] =        15.180664105000;     BAS[ATNO][ 18].d[ 37] =         0.073753819992;
  BAS[ATNO][ 18].a[ 38] =         7.291602568400;     BAS[ATNO][ 18].d[ 38] =         0.147572126057;
  BAS[ATNO][ 18].a[ 39] =         3.112739454900;     BAS[ATNO][ 18].d[ 39] =         0.202708444535;
  BAS[ATNO][ 18].a[ 40] =        77.583757677000;     BAS[ATNO][ 18].d[ 40] =         0.008563872279;
  BAS[ATNO][ 18].a[ 41] =        30.866596970000;     BAS[ATNO][ 18].d[ 41] =         0.047778216204;

  // Basis function  20 L = d
  InitBFNGauss(BAS[ATNO][ 19]);
  BAS[ATNO][ 19].l  = 2;
  BAS[ATNO][ 19].ng = 42;
  BAS[ATNO][ 19].a[  0] =     70059.419949000003;     BAS[ATNO][ 19].d[  0] =         0.000000000064;
  BAS[ATNO][ 19].a[  1] =     10776.234966000000;     BAS[ATNO][ 19].d[  1] =         0.000000002992;
  BAS[ATNO][ 19].a[  2] =      2482.490069900000;     BAS[ATNO][ 19].d[  2] =         0.000000061661;
  BAS[ATNO][ 19].a[  3] =       704.075060820000;     BAS[ATNO][ 19].d[  3] =         0.000000658850;
  BAS[ATNO][ 19].a[  4] =       216.792601420000;     BAS[ATNO][ 19].d[  4] =         0.000003477492;
  BAS[ATNO][ 19].a[  5] =        41.471766837000;     BAS[ATNO][ 19].d[  5] =         0.000001643187;
  BAS[ATNO][ 19].a[  6] =        29.498972710000;     BAS[ATNO][ 19].d[  6] =         0.000049042400;
  BAS[ATNO][ 19].a[  7] =        15.057310790000;     BAS[ATNO][ 19].d[  7] =        -0.000229011341;
  BAS[ATNO][ 19].a[  8] =         3.772755391000;     BAS[ATNO][ 19].d[  8] =         0.003439518388;
  BAS[ATNO][ 19].a[  9] =         1.922105117200;     BAS[ATNO][ 19].d[  9] =        -0.009341513157;
  BAS[ATNO][ 19].a[ 10] =         0.713132018400;     BAS[ATNO][ 19].d[ 10] =         0.017783864997;
  BAS[ATNO][ 19].a[ 11] =         0.309572970800;     BAS[ATNO][ 19].d[ 11] =        -0.020060515352;
  BAS[ATNO][ 19].a[ 12] =         0.054890137200;     BAS[ATNO][ 19].d[ 12] =         0.032203535101;
  BAS[ATNO][ 19].a[ 13] =         0.022706210300;     BAS[ATNO][ 19].d[ 13] =        -0.033429932688;
  BAS[ATNO][ 19].a[ 14] =       388.958430690000;     BAS[ATNO][ 19].d[ 14] =         0.000561016906;
  BAS[ATNO][ 19].a[ 15] =       118.254389520000;     BAS[ATNO][ 19].d[ 15] =         0.004696622613;
  BAS[ATNO][ 19].a[ 16] =        44.980829930000;     BAS[ATNO][ 19].d[ 16] =         0.018527692111;
  BAS[ATNO][ 19].a[ 17] =        22.794111850000;     BAS[ATNO][ 19].d[ 17] =         0.014338463942;
  BAS[ATNO][ 19].a[ 18] =         7.711733994500;     BAS[ATNO][ 19].d[ 18] =         0.312882807449;
  BAS[ATNO][ 19].a[ 19] =         3.928099966800;     BAS[ATNO][ 19].d[ 19] =         0.515329091867;
  BAS[ATNO][ 19].a[ 20] =       388.958430690000;     BAS[ATNO][ 19].d[ 20] =        -0.000558469554;
  BAS[ATNO][ 19].a[ 21] =       118.254389520000;     BAS[ATNO][ 19].d[ 21] =        -0.004675297142;
  BAS[ATNO][ 19].a[ 22] =        44.980829930000;     BAS[ATNO][ 19].d[ 22] =        -0.018443565325;
  BAS[ATNO][ 19].a[ 23] =        22.794111850000;     BAS[ATNO][ 19].d[ 23] =        -0.014273358753;
  BAS[ATNO][ 19].a[ 24] =         7.711733994500;     BAS[ATNO][ 19].d[ 24] =        -0.311462132668;
  BAS[ATNO][ 19].a[ 25] =         3.928099966800;     BAS[ATNO][ 19].d[ 25] =        -0.512989190065;
  BAS[ATNO][ 19].a[ 26] =       388.958430690000;     BAS[ATNO][ 19].d[ 26] =        -0.000398195008;
  BAS[ATNO][ 19].a[ 27] =       118.254389520000;     BAS[ATNO][ 19].d[ 27] =        -0.003333538903;
  BAS[ATNO][ 19].a[ 28] =        44.980829930000;     BAS[ATNO][ 19].d[ 28] =        -0.013150467373;
  BAS[ATNO][ 19].a[ 29] =        22.794111850000;     BAS[ATNO][ 19].d[ 29] =        -0.010177063668;
  BAS[ATNO][ 19].a[ 30] =         7.711733994500;     BAS[ATNO][ 19].d[ 30] =        -0.222075967488;
  BAS[ATNO][ 19].a[ 31] =         3.928099966800;     BAS[ATNO][ 19].d[ 31] =        -0.365767002618;
  BAS[ATNO][ 19].a[ 32] =       388.958430690000;     BAS[ATNO][ 19].d[ 32] =        -0.000000471043;
  BAS[ATNO][ 19].a[ 33] =       118.254389520000;     BAS[ATNO][ 19].d[ 33] =        -0.000003943399;
  BAS[ATNO][ 19].a[ 34] =        44.980829930000;     BAS[ATNO][ 19].d[ 34] =        -0.000015556301;
  BAS[ATNO][ 19].a[ 35] =        22.794111850000;     BAS[ATNO][ 19].d[ 35] =        -0.000012038923;
  BAS[ATNO][ 19].a[ 36] =         7.711733994500;     BAS[ATNO][ 19].d[ 36] =        -0.000262704024;
  BAS[ATNO][ 19].a[ 37] =         3.928099966800;     BAS[ATNO][ 19].d[ 37] =        -0.000432682855;
  BAS[ATNO][ 19].a[ 38] =       388.958430690000;     BAS[ATNO][ 19].d[ 38] =         0.000213961439;
  BAS[ATNO][ 19].a[ 39] =       118.254389520000;     BAS[ATNO][ 19].d[ 39] =         0.001791204727;
  BAS[ATNO][ 19].a[ 40] =        44.980829930000;     BAS[ATNO][ 19].d[ 40] =         0.007066118021;
  BAS[ATNO][ 19].a[ 41] =        22.794111850000;     BAS[ATNO][ 19].d[ 41] =         0.005468424121;

  // Basis function  21 L = p
  InitBFNGauss(BAS[ATNO][ 20]);
  BAS[ATNO][ 20].l  = 1;
  BAS[ATNO][ 20].ng = 42;
  BAS[ATNO][ 20].a[  0] =       363.818256430000;     BAS[ATNO][ 20].d[  0] =         0.010463253326;
  BAS[ATNO][ 20].a[  1] =       105.326398810000;     BAS[ATNO][ 20].d[  1] =         0.031266722579;
  BAS[ATNO][ 20].a[  2] =        25.605685306000;     BAS[ATNO][ 20].d[  2] =         0.430127578586;
  BAS[ATNO][ 20].a[  3] =        15.746330058000;     BAS[ATNO][ 20].d[  3] =        -1.387156219244;
  BAS[ATNO][ 20].a[  4] =         3.315546513200;     BAS[ATNO][ 20].d[  4] =         1.491507003185;
  BAS[ATNO][ 20].a[  5] =       363.818256430000;     BAS[ATNO][ 20].d[  5] =        -0.004052667034;
  BAS[ATNO][ 20].a[  6] =       105.326398810000;     BAS[ATNO][ 20].d[  6] =        -0.012110345788;
  BAS[ATNO][ 20].a[  7] =        25.605685306000;     BAS[ATNO][ 20].d[  7] =        -0.166598648019;
  BAS[ATNO][ 20].a[  8] =        15.746330058000;     BAS[ATNO][ 20].d[  8] =         0.537278617373;
  BAS[ATNO][ 20].a[  9] =         3.315546513200;     BAS[ATNO][ 20].d[  9] =        -0.577696159492;
  BAS[ATNO][ 20].a[ 10] =       363.818256430000;     BAS[ATNO][ 20].d[ 10] =        -0.003705020697;
  BAS[ATNO][ 20].a[ 11] =       105.326398810000;     BAS[ATNO][ 20].d[ 11] =        -0.011071494752;
  BAS[ATNO][ 20].a[ 12] =        25.605685306000;     BAS[ATNO][ 20].d[ 12] =        -0.152307464175;
  BAS[ATNO][ 20].a[ 13] =        15.746330058000;     BAS[ATNO][ 20].d[ 13] =         0.491189722970;
  BAS[ATNO][ 20].a[ 14] =         3.315546513200;     BAS[ATNO][ 20].d[ 14] =        -0.528140162974;
  BAS[ATNO][ 20].a[ 15] =         7.389069387800;     BAS[ATNO][ 20].d[ 15] =        -0.161846267778;
  BAS[ATNO][ 20].a[ 16] =         4.569608591900;     BAS[ATNO][ 20].d[ 16] =        -0.358245394562;
  BAS[ATNO][ 20].a[ 17] =         1.940501091900;     BAS[ATNO][ 20].d[ 17] =        -0.274286690918;
  BAS[ATNO][ 20].a[ 18] =         7.389069387800;     BAS[ATNO][ 20].d[ 18] =         0.062686664977;
  BAS[ATNO][ 20].a[ 19] =         4.569608591900;     BAS[ATNO][ 20].d[ 19] =         0.138756421985;
  BAS[ATNO][ 20].a[ 20] =         1.940501091900;     BAS[ATNO][ 20].d[ 20] =         0.106237345706;
  BAS[ATNO][ 20].a[ 21] =         7.389069387800;     BAS[ATNO][ 20].d[ 21] =         0.057309471644;
  BAS[ATNO][ 20].a[ 22] =         4.569608591900;     BAS[ATNO][ 20].d[ 22] =         0.126854048370;
  BAS[ATNO][ 20].a[ 23] =         1.940501091900;     BAS[ATNO][ 20].d[ 23] =         0.097124422770;
  BAS[ATNO][ 20].a[ 24] =         0.900252031100;     BAS[ATNO][ 20].d[ 24] =        -0.569206947059;
  BAS[ATNO][ 20].a[ 25] =         0.900252031100;     BAS[ATNO][ 20].d[ 25] =         0.220469639920;
  BAS[ATNO][ 20].a[ 26] =         0.900252031100;     BAS[ATNO][ 20].d[ 26] =         0.201555336287;
  BAS[ATNO][ 20].a[ 27] =         0.344679254800;     BAS[ATNO][ 20].d[ 27] =         0.360889223830;
  BAS[ATNO][ 20].a[ 28] =         0.344679254800;     BAS[ATNO][ 20].d[ 28] =        -0.139782762589;
  BAS[ATNO][ 20].a[ 29] =         0.344679254800;     BAS[ATNO][ 20].d[ 29] =        -0.127790280206;
  BAS[ATNO][ 20].a[ 30] =         0.099026562000;     BAS[ATNO][ 20].d[ 30] =        -0.130246000908;
  BAS[ATNO][ 20].a[ 31] =         0.099026562000;     BAS[ATNO][ 20].d[ 31] =         0.050447793139;
  BAS[ATNO][ 20].a[ 32] =         0.099026562000;     BAS[ATNO][ 20].d[ 32] =         0.046119900126;
  BAS[ATNO][ 20].a[ 33] =         0.027117030500;     BAS[ATNO][ 20].d[ 33] =         0.039624470355;
  BAS[ATNO][ 20].a[ 34] =         0.027117030500;     BAS[ATNO][ 20].d[ 34] =        -0.015347559495;
  BAS[ATNO][ 20].a[ 35] =         0.027117030500;     BAS[ATNO][ 20].d[ 35] =        -0.014030957401;
  BAS[ATNO][ 20].a[ 36] =        77.583757677000;     BAS[ATNO][ 20].d[ 36] =         0.000032845595;
  BAS[ATNO][ 20].a[ 37] =        30.866596970000;     BAS[ATNO][ 20].d[ 37] =         0.000072904582;
  BAS[ATNO][ 20].a[ 38] =        15.180664105000;     BAS[ATNO][ 20].d[ 38] =         0.000077112187;
  BAS[ATNO][ 20].a[ 39] =         7.291602568400;     BAS[ATNO][ 20].d[ 39] =         0.000074109700;
  BAS[ATNO][ 20].a[ 40] =         3.112739454900;     BAS[ATNO][ 20].d[ 40] =         0.000043457260;
  BAS[ATNO][ 20].a[ 41] =        77.583757677000;     BAS[ATNO][ 20].d[ 41] =         0.000125150885;

-------------------------------------------
RADIAL EXPECTATION VALUES <R**-3> TO <R**3>
-------------------------------------------
   0 :     0.000000     6.196492     1.905011     0.580516     0.366073     0.250304
   1 :    10.085829     3.788967     1.818698     0.613074     0.414958     0.308761
   2 :    10.089620     3.789947     1.818954     0.612963     0.414785     0.308556
   3 :    10.088948     3.789772     1.818908     0.612981     0.414811     0.308419
   4 :     9.030206     3.561615     1.737766     0.662852     0.499859     2.129148
   5 :     9.047984     3.566701     1.739130     0.662229     0.498855     2.122661
   6 :     9.030911     3.561837     1.737835     0.662809     0.499773     2.128446
   7 :     9.031087     3.561905     1.737859     0.662790     0.499734     2.128094
   8 :     9.031885     3.562176     1.737946     0.662733     0.499619     2.127106
   9 :     0.000000     3.898360     0.876452     1.416929     2.257949     3.978358
  10 :     0.000000     0.378825     0.257352     4.800551    26.378972   163.187026
  11 :     0.000000     0.304904     0.201396     6.831585    54.927870   483.414775
  12 :     0.000000     4.707235     0.640715     2.569110    10.000704    58.043611
  13 :     0.000000  1011.990090    15.739155     0.689203     1.416822     5.710355
  14 :     0.000000  1141.834899    17.595241     0.591564     1.128120     4.378764
  15 :     0.000000    55.928569     3.333290     0.452297     0.392613     1.080888
  16 :     0.000000   103.981404     6.067994     0.238055     0.108004     0.220486
  17 :     0.000000  1651.251750    20.620019     0.132841     0.048701     0.100643
  18 :     1.616160     0.776824     0.732350     1.660324     3.144734     6.697562
  19 :     1.610450     0.774587     0.731112     1.664611     3.165728     6.784848
  20 :     1.610334     0.774511     0.731032     1.665113     3.168533     6.796297
  21 :     7.200941     2.832272     1.464829     0.902173     1.065503    11.231404
  22 :     0.398494     0.273807     0.420938     2.914585     9.634750   174.624763
  23 :     7.374991     2.890314     1.484049     0.884198     1.017782    10.410002
  24 :     7.406514     2.901139     1.487804     0.880111     1.005626    10.217420
  25 :     7.355982     2.883730     1.481755     0.886542     1.023928    10.539612
  26 :     7.356511     2.883498     1.481446     0.887769     1.029785    10.586647
  27 :     7.373019     2.889107     1.483358     0.885873     1.024776    10.493026
  28 :     0.033209     0.039027     0.166410     6.782917    50.009587   395.930184
  29 :     0.034644     0.039385     0.166130     6.800187    50.236342   398.286234
  30 :     0.034881     0.039437     0.166066     6.803591    50.280848   398.748135
  31 :     0.303850     0.231026     0.394579     3.032067    10.320990   187.855367
  32 :     0.303927     0.230961     0.394957     3.022200    10.201193   187.099262
  33 :     0.303846     0.230922     0.394933     3.022295    10.201706   187.111048
  34 :     0.303490     0.230713     0.394786     3.023014    10.205771   187.198042
  35 :     0.256335     0.161016     0.300362     4.527205    26.210620   186.590990
  36 :     0.264753     0.164490     0.302643     4.503819    25.957279   184.160970
  37 :     0.265964     0.164996     0.303015     4.499317    25.907285   183.676650
  38 :     4.956214     2.052657     1.189910     1.209373     1.965479    27.510742
  39 :     1.575132     0.790319     0.704178     2.002364     5.322187    87.668032
  40 :     1.658525     0.841054     0.729106     1.898375     4.779591    75.207201
  41 :     1.664370     0.830128     0.729664     1.894815     4.752682    75.181675
  42 :     1.664812     0.830266     0.729717     1.894700     4.752176    75.171690
  43 :     1.667122     0.831140     0.730057     1.893786     4.747836    75.075393
  44 :     1.423053     0.660347     0.598986     2.211843     5.444431    99.166192
  45 :     1.251077     0.600955     0.577790     2.238350     5.528820   100.822956
  46 :     1.235119     0.595337     0.575781     2.240574     5.535034   100.940067
  47 :     1.283868     0.612458     0.581911     2.233452     5.513673   100.553105
  48 :     1.287358     0.613603     0.582315     2.232821     5.511332   100.496869
  49 :     1.276707     0.609849     0.580968     2.234374     5.515935   100.580083
  50 :     2.971915     1.225567     0.810703     1.949762     4.655913    84.729414
  51 :     2.746253     1.009734     0.752257     2.108222     6.691231    31.711547
  52 :     2.743712     1.008827     0.751839     2.109032     6.692047    31.675957
  53 :     2.742834     1.008525     0.751697     2.109368     6.693202    31.677283
  54 :     6.134548     2.204275     1.167217     1.292703     2.205358    32.043677
  55 :     6.120247     2.201497     1.167797     1.285620     2.173062    31.261408
  56 :     6.117161     2.200554     1.167522     1.285805     2.173500    31.268387
  57 :     6.123505     2.202373     1.167947     1.286025     2.175198    31.315873
  58 :     6.111886     2.198775     1.166861     1.286947     2.177817    31.365009
  59 :     6.113302     2.199195     1.166973     1.286922     2.177877    31.368000
  60 :     6.827778     2.417715     1.230071     1.247976     2.095066    30.218792
  61 :     9.719811     3.087926     1.392245     1.084334     1.654268    17.113295
  62 :     9.720027     3.012478     1.391106     1.084432     1.654433    17.117097
  63 :     9.720048     3.011539     1.391080     1.084462     1.654526    17.118349
  64 :     9.716790     3.020680     1.390911     1.084779     1.655398    17.128535
  65 :     9.697157     3.006798     1.389300     1.085432     1.655339    17.092921
  66 :    67.528865    13.948918     3.373293     0.427538     0.383381     1.006341
  67 :    67.526587    13.948434     3.373192     0.427587     0.383514     1.006765
  68 :    67.527041    13.948531     3.373213     0.427577     0.383483     1.006645
Making the total density                ... o.k.
o.k.
Initializing the integrals              ... done
Making exponents                        ... done
Making rho(0)                           ... done (        55.862692810)
Integral calculation                    ... Two index integrals                     ... done
Solving the equation system             ... done
atomic density will be written to file 63_Eu_atom63.adf

-------
TIMINGS
-------

Total SCF time: 0 days 0 hours 0 min 6 sec 

Total time                  ....       6.244 sec
Sum of individual times     ....       5.621 sec  ( 90.0%)

Fock matrix formation       ....       5.261 sec  ( 84.3%)
Diagonalization             ....       0.172 sec  (  2.8%)
Density matrix formation    ....       0.005 sec  (  0.1%)
Population analysis         ....       0.000 sec  (  0.0%)
Initial guess               ....       0.001 sec  (  0.0%)
Orbital Transformation      ....       0.000 sec  (  0.0%)
Orbital Orthonormalization  ....       0.000 sec  (  0.0%)
DIIS solution               ....       0.182 sec  (  2.9%)

-------------------------   --------------------
FINAL SINGLE POINT ENERGY      -708.087305555308
-------------------------   --------------------


                            ***************************************
                            *     ORCA property calculations      *
                            ***************************************

                                    ---------------------
                                    Active property flags
                                    ---------------------
   (+) Dipole Moment


------------------------------------------------------------------------------
                       ORCA ELECTRIC PROPERTIES CALCULATION
------------------------------------------------------------------------------

Dipole Moment Calculation                       ... on
Quadrupole Moment Calculation                   ... off
Polarizability Calculation                      ... off
GBWName                                         ... 63_Eu_atom63.gbw
Electron density file                           ... 63_Eu_atom63.scfp
The origin for moment calculation is the CENTER OF MASS  = ( 0.000000,  0.000000  0.000000)

-------------
DIPOLE MOMENT
-------------
                                X             Y             Z
Electronic contribution:      0.00000      -0.00000       0.00000
Nuclear contribution   :      0.00000       0.00000       0.00000
                        -----------------------------------------
Total Dipole Moment    :      0.00000      -0.00000       0.00000
                        -----------------------------------------
Magnitude (a.u.)       :      0.00000
Magnitude (Debye)      :      0.00000



--------------------
Rotational spectrum 
--------------------
 
Rotational constants in cm-1:     0.000000     0.000000     0.000000 
Rotational constants in MHz :     0.000000     0.000000     0.000000 

 Dipole components along the rotational axes: 
x,y,z [a.u.] :     0.000000    -0.000000     0.000000 
x,y,z [Debye]:     0.000000    -0.000000     0.000000 

 

Timings for individual modules:

Sum of individual times         ...        7.523 sec (=   0.125 min)
GTO integral calculation        ...        1.255 sec (=   0.021 min)  16.7 %
SCF iterations                  ...        6.267 sec (=   0.104 min)  83.3 %
                             ****ORCA TERMINATED NORMALLY****
TOTAL RUN TIME: 0 days 0 hours 0 minutes 7 seconds 805 msec
