
                                 *****************
                                 * O   R   C   A *
                                 *****************

           --- An Ab Initio, DFT and Semiempirical electronic structure package ---

                  #######################################################
                  #                        -***-                        #
                  #          Department of theory and spectroscopy      #
                  #               Directorship: Frank Neese             #
                  #        Max Planck Institute fuer Kohlenforschung    #
                  #                Kaiser Wilhelm Platz 1               #
                  #                 D-45470 Muelheim/Ruhr               #
                  #                      Germany                        #
                  #                                                     #
                  #                  All rights reserved                #
                  #                        -***-                        #
                  #######################################################


                         Program Version 4.2.0 -  RELEASE  -


 With contributions from (in alphabetic order):
   Daniel Aravena         : Magnetic Suceptibility
   Michael Atanasov       : Ab Initio Ligand Field Theory (pilot matlab implementation)
   Alexander A. Auer      : GIAO ZORA, VPT2
   Ute Becker             : Parallelization
   Giovanni Bistoni       : ED, misc. LED, open-shell LED, HFLED
   Martin Brehm           : Molecular dynamics
   Dmytro Bykov           : SCF Hessian
   Vijay G. Chilkuri      : MRCI spin determinant printing, contributions to CSF-ICE
   Dipayan Datta          : RHF DLPNO-CCSD density
   Achintya Kumar Dutta   : EOM-CC, STEOM-CC
   Dmitry Ganyushin       : Spin-Orbit,Spin-Spin,Magnetic field MRCI
   Miquel Garcia          : C-PCM Hessian, Gaussian charge scheme
   Yang Guo               : DLPNO-NEVPT2, CIM, IAO-localization
   Andreas Hansen         : Spin unrestricted coupled pair/coupled cluster methods
   Benjamin Helmich-Paris : CASSCF linear response (MC-RPA)
   Lee Huntington         : MR-EOM, pCC
   Robert Izsak           : Overlap fitted RIJCOSX, COSX-SCS-MP3, EOM
   Christian Kollmar      : KDIIS, OOCD, Brueckner-CCSD(T), CCSD density
   Simone Kossmann        : Meta GGA functionals, TD-DFT gradient, OOMP2, MP2 Hessian
   Martin Krupicka        : AUTO-CI
   Lucas Lang             : DCDCAS
   Dagmar Lenk            : GEPOL surface, SMD
   Dimitrios Liakos       : Extrapolation schemes; Compound Job, initial MDCI parallelization
   Dimitrios Manganas     : Further ROCIS development; embedding schemes
   Dimitrios Pantazis     : SARC Basis sets
   Taras Petrenko         : DFT Hessian,TD-DFT gradient, ASA, ECA, R-Raman, ABS, FL, XAS/XES, NRVS
   Peter Pinski           : DLPNO-MP2, DLPNO-MP2 Gradient
   Christoph Reimann      : Effective Core Potentials
   Marius Retegan         : Local ZFS, SOC
   Christoph Riplinger    : Optimizer, TS searches, QM/MM, DLPNO-CCSD(T), (RO)-DLPNO pert. Triples
   Tobias Risthaus        : Range-separated hybrids, TD-DFT gradient, RPA, STAB
   Michael Roemelt        : Original ROCIS implementation
   Masaaki Saitow         : Open-shell DLPNO-CCSD energy and density
   Barbara Sandhoefer     : DKH picture change effects
   Avijit Sen             : IP-ROCIS
   Kantharuban Sivalingam : CASSCF convergence, NEVPT2, FIC-MRCI
   Bernardo de Souza      : ESD, SOC TD-DFT
   Georgi Stoychev        : AutoAux, RI-MP2 NMR
   Willem Van den Heuvel  : Paramagnetic NMR
   Boris Wezisla          : Elementary symmetry handling
   Frank Wennmohs         : Technical directorship


 We gratefully acknowledge several colleagues who have allowed us to
 interface, adapt or use parts of their codes:
   Stefan Grimme, W. Hujo, H. Kruse,             : VdW corrections, initial TS optimization,
                  C. Bannwarth                     DFT functionals, gCP, sTDA/sTD-DF
   Ed Valeev, F. Pavosevic, A. Kumar             : LibInt (2-el integral package), F12 methods
   Garnet Chan, S. Sharma, J. Yang, R. Olivares  : DMRG
   Ulf Ekstrom                                   : XCFun DFT Library
   Mihaly Kallay                                 : mrcc  (arbitrary order and MRCC methods)
   Andreas Klamt, Michael Diedenhofen            : otool_cosmo (COSMO solvation model)
   Jiri Pittner, Ondrej Demel                    : Mk-CCSD
   Frank Weinhold                                : gennbo (NPA and NBO analysis)
   Christopher J. Cramer and Donald G. Truhlar   : smd solvation model
   Lars Goerigk                                  : TD-DFT with DH, B97 family of functionals
   V. Asgeirsson, H. Jonsson                     : NEB implementation
   FAccTs GmbH                                   : IRC, NEB, NEB-TS, Multilevel, MM, QM/MM, CI optimization
   S Lehtola, MJT Oliveira, MAL Marques          : LibXC Library


 Your calculation uses the libint2 library for the computation of 2-el integrals
 For citations please refer to: http://libint.valeyev.net

 Your ORCA version has been built with support for libXC version: 4.2.3
 For citations please refer to: https://tddft.org/programs/libxc/

 This ORCA versions uses:
   CBLAS   interface :  Fast vector & matrix operations
   LAPACKE interface :  Fast linear algebra routines
   SCALAPACK package :  Parallel linear algebra routines


----- Orbital basis set information -----
Your calculation utilizes the basis: def2-SVP
   F. Weigend and R. Ahlrichs, Phys. Chem. Chem. Phys. 7, 3297 (2005).

cite the ECPs for Gd [Def2-ECP] as follows:
Ce-Yb(ecp-28): M. Dolg, H. Stoll, H.Preuss, J. Chem. Phys., 1989, 90, 1730-1734.
Y-Cd(ecp-28), Hf-Hg(ecp-46): D. Andrae,U. Haeussermann, M. Dolg, H. Stoll, H. Preuss, Theor. Chim. Acta, 1990, 77, 123-141.
In-Sb(ecp-28), Tl-Bi(ecp-46): B. Metz, H. Stoll, M. Dolg, J. Chem. Phys., 2000, 113, 2563-2569.
Te-Xe(ecp-28), Po-Rn(ecp-46): K. A. Peterson, D. Figgen, E. Goll, H. Stoll, M. Dolg, J. Chem. Phys., 2003, 119, 11113-11123.
Rb(ecp-28), Cs(ecp-46): T. Leininger, A. Nicklass, W. Kuechle, H. Stoll, M. Dolg, A. Bergner, Chem. Phys. Lett., 1996, 255, 274-280.
Sr(ecp-28), Ba(ecp-46): M. Kaupp, P. V. Schleyer, H. Stoll and H. Preuss, J. Chem. Phys., 1991, 94, 1360-1366.
La(ecp-46): M. Dolg, H. Stoll, A. Savin, H. Preuss, Theor. Chim. Acta, 1989, 75, 173-194.
Lu(ecp-28): X. Cao, M. Dolg, J. Chem. Phys., 2001, 115, 7348-7355.

ECP parameters for Gd [Def2-ECP] have been obtained from:
TURBOMOLE (7.0.2)

================================================================================
                                        WARNINGS
                       Please study these warnings very carefully!
================================================================================


WARNING: your system is open-shell and RHF/RKS was chosen
  ===> : WILL SWITCH to UHF/UKS


WARNING: MDCI localization with Augmented Hessian Foster-Boys
  ===> : Switching off randomization!

WARNING: Post HF methods need fully converged wavefunctions
  ===> : Setting SCFConvForced true
         You can overwrite this default with %scf ConvForced false 


INFO   : the flag for use of LIBINT has been found!

================================================================================
                                       INPUT FILE
================================================================================
NAME = 64_Gd.in
|  1> #
|  2> # 64_Gd CCSD(T)/Def2-SVP
|  3> #
|  4> ! CCSD(T) Def2-SVP tightscf
|  5> 
|  6> *xyz 0 9
|  7>  Gd 0.0 0.0 0.0
|  8> *
|  9> 
| 10> %maxcore 5000 
| 11> 
| 12> %pal
| 13> nprocs 24
| 14> end
| 15> 
| 16> 
| 17>                          ****END OF INPUT****
================================================================================

                       ****************************
                       * Single Point Calculation *
                       ****************************

---------------------------------
CARTESIAN COORDINATES (ANGSTROEM)
---------------------------------
  Gd     0.000000    0.000000    0.000000

----------------------------
CARTESIAN COORDINATES (A.U.)
----------------------------
  NO LB      ZA    FRAG     MASS         X           Y           Z
   0 Gd   36.0000*   0   157.250    0.000000    0.000000    0.000000
* core charge reduced due to ECP

--------------------------------
INTERNAL COORDINATES (ANGSTROEM)
--------------------------------
 Gd     0   0   0     0.000000000000     0.00000000     0.00000000

---------------------------
INTERNAL COORDINATES (A.U.)
---------------------------
 Gd     0   0   0     0.000000000000     0.00000000     0.00000000

---------------------
BASIS SET INFORMATION
---------------------
There are 1 groups of distinct atoms

 Group   1 Type Gd  : 14s12p9d7f1g contracted to 10s6p4d3f1g pattern {5111111111/531111/6111/511/1}

Atom   0Gd   basis set group =>   1
-------------------------
ECP PARAMETER INFORMATION
-------------------------

 Group 1, Type Gd ECP Def2-ECP (replacing 28 core electrons, lmax=5)

Atom   0Gd   ECP group =>   1



           ************************************************************
           *        Program running with 24 parallel MPI-processes    *
           *              working on a common directory               *
           ************************************************************
------------------------------------------------------------------------------
                           ORCA GTO INTEGRAL CALCULATION
------------------------------------------------------------------------------

                         BASIS SET STATISTICS AND STARTUP INFO

 # of primitive gaussian shells          ...   43
 # of primitive gaussian functions       ...  153
 # of contracted shells                  ...   24
 # of contracted basis functions         ...   78
 Highest angular momentum                ...    4
 Maximum contraction depth               ...    6
 Integral package used                   ... LIBINT
 Integral threshhold            Thresh   ...  2.500e-11
 Primitive cut-off              TCut     ...  2.500e-12


------------------------------ INTEGRAL EVALUATION ----------------------------


 * One electron integrals 

   ECP integrals                         ... done
 Pre-screening matrix                    ... done
 Shell pair data                         ... done (   0.000 sec)



           ************************************************************
           *        Program running with 24 parallel MPI-processes    *
           *              working on a common directory               *
           ************************************************************
-------------------------------------------------------------------------------
                                 ORCA SCF
-------------------------------------------------------------------------------

------------
SCF SETTINGS
------------
Hamiltonian:
 Ab initio Hamiltonian  Method          .... Hartree-Fock(GTOs)


General Settings:
 Integral files         IntName         .... 64_Gd
 Hartree-Fock type      HFTyp           .... UHF
 Total Charge           Charge          ....    0
 Multiplicity           Mult            ....    9
 Number of Electrons    NEL             ....   36
 Basis Dimension        Dim             ....   78
 Nuclear Repulsion      ENuc            ....      0.0000000000 Eh

Convergence Acceleration:
 DIIS                   CNVDIIS         .... on
   Start iteration      DIISMaxIt       ....    12
   Startup error        DIISStart       ....  0.200000
   # of expansion vecs  DIISMaxEq       ....     5
   Bias factor          DIISBfac        ....   1.050
   Max. coefficient     DIISMaxC        ....  10.000
 Newton-Raphson         CNVNR           .... off
 SOSCF                  CNVSOSCF        .... off
 Level Shifting         CNVShift        .... on
   Level shift para.    LevelShift      ....    0.2500
   Turn off err/grad.   ShiftErr        ....    0.0010
 Zerner damping         CNVZerner       .... off
 Static damping         CNVDamp         .... on
   Fraction old density DampFac         ....    0.7000
   Max. Damping (<1)    DampMax         ....    0.9800
   Min. Damping (>=0)   DampMin         ....    0.0000
   Turn off err/grad.   DampErr         ....    0.1000
 Fernandez-Rico         CNVRico         .... off

SCF Procedure:
 Maximum # iterations   MaxIter         ....   125
 SCF integral mode      SCFMode         .... Direct
   Integral package                     .... LIBINT
 Reset frequency        DirectResetFreq ....    20
 Integral Threshold     Thresh          ....  2.500e-11 Eh
 Primitive CutOff       TCut            ....  2.500e-12 Eh

Convergence Tolerance:
 Convergence Check Mode ConvCheckMode   .... Total+1el-Energy
 Convergence forced     ConvForced      .... 1
 Energy Change          TolE            ....  1.000e-08 Eh
 1-El. energy change                    ....  1.000e-05 Eh
 DIIS Error             TolErr          ....  5.000e-07


Diagonalization of the overlap matrix:
Smallest eigenvalue                        ... 1.125e-03
Time for diagonalization                   ...    0.003 sec
Threshold for overlap eigenvalues          ... 1.000e-08
Number of eigenvalues below threshold      ... 0
Time for construction of square roots      ...    0.011 sec
Total time needed                          ...    0.014 sec

-------------------
DFT GRID GENERATION
-------------------

General Integration Accuracy     IntAcc      ...  4.340
Radial Grid Type                 RadialGrid  ... Gauss-Chebyshev
Angular Grid (max. acc.)         AngularGrid ... Lebedev-110
Angular grid pruning method      GridPruning ... 3 (G Style)
Weight generation scheme         WeightScheme... Becke
Basis function cutoff            BFCut       ...    1.0000e-11
Integration weight cutoff        WCut        ...    1.0000e-14
Grids for H and He will be reduced by one unit

# of grid points (after initial pruning)     ...   3612 (   0.0 sec)
# of grid points (after weights+screening)   ...   3612 (   0.0 sec)
Grid point division into batches done        ...    0.0 sec
Reduced shell lists constructed in    0.0 sec

Total number of grid points                  ...     3612
Total number of batches                      ...       57
Average number of points per batch           ...       63
Average number of grid points per atom       ...     3612
Average number of shells per batch           ...     3.75 (15.62%)
Average number of basis functions per batch  ...     9.75 (12.50%)
Average number of large shells per batch     ...     3.25 (86.67%)
Average number of large basis fcns per batch ...     7.25 (74.36%)
Maximum spatial batch extension              ...  24.96, 38.92, 38.92 au
Average spatial batch extension              ...   1.28,  1.81,  2.05 au

Time for grid setup =    0.053 sec

------------------------------
INITIAL GUESS: MODEL POTENTIAL
------------------------------
Loading Hartree-Fock densities                     ... done
  calling /sw/apps/orca/orca_4_2_0_linux_x86-64_openmpi314/orca 64_Gd_atom64.inp > 64_Gd_atom64.out in order to generate an atomic fitting density for atom 0 (Gd with ECP) on-the-fly... 
    atom 0 (Gd), assumed electronic state with S=9: 1s2 2s2 2p6 3s2 3p6 4s2 3d10 4p6 5s2 4d10 5p6 6s2 4f7 5d1           ... done
Calculating cut-offs                               ... done
Setting up the integral package                    ... done
Initializing the effective Hamiltonian             ... done
Starting the Coulomb interaction                   ... done (   0.0 sec)
Reading the grid                                   ... done
Mapping shells                                     ... done
Starting the XC term evaluation                    ... done (   0.0 sec)
Transforming the Hamiltonian                       ... done (   0.0 sec)
Diagonalizing the Hamiltonian                      ... done (   0.0 sec)
Back transforming the eigenvectors                 ... done (   0.0 sec)
Now organizing SCF variables                       ... done
                      ------------------
                      INITIAL GUESS DONE (  30.6 sec)
                      ------------------
--------------
SCF ITERATIONS
--------------
ITER       Energy         Delta-E        Max-DP      RMS-DP      [F,P]     Damp
               ***  Starting incremental Fock matrix formation  ***
  0   -737.0530261613   0.000000000000 1.91922661  0.03177018 17.0310230 0.7000
  1   -748.2261181870 -11.173092025716 0.46696852  0.00973978 10.0456730 0.7000
  2   -754.2743543509  -6.048236163936 0.32741741  0.00722239  6.1143849 0.7000
  3   -757.7204487587  -3.446094407751 0.22951898  0.00502528  3.8282518 0.7000
  4   -759.7553610733  -2.034912314635 0.16053280  0.00355908  2.4561301 0.7000
  5   -761.0013757830  -1.246014709657 0.12876291  0.00262175  1.6076654 0.7000
  6   -761.7897139902  -0.788338207230 0.10680848  0.00200570  1.0689131 0.7000
  7   -762.3023787051  -0.512664714932 0.09016335  0.00157838  0.7191138 0.7000
  8   -762.6431055084  -0.340726803297 0.07672123  0.00126520  0.4879218 0.7000
  9   -762.8733142008  -0.230208692328 0.06548713  0.00102596  0.3330318 0.7000
 10   -763.0307254926  -0.157411291884 0.05596071  0.00083856  0.2282223 0.7000
                               ***Turning on DIIS***
 11   -763.1392745905  -0.108549097852 0.04784942  0.00068991  0.1567988 0.7000
 12   -763.1387070942   0.000567496276 0.04596871  0.00064431  0.1078917 0.7000
 13   -763.2038135111  -0.065106416861 0.14268695  0.00192114  0.0748551 0.0000
 14   -763.3894661677  -0.185652656639 0.03133013  0.00040521  0.0042964 0.0000
 15   -763.3892579000   0.000208267687 0.02378139  0.00032061  0.0011027 0.0000
 16   -763.3879242080   0.001333692065 0.03886727  0.00055956  0.0007617 0.0000
 17   -763.3894613744  -0.001537166424 0.01434174  0.00023160  0.0001816 0.0000
 18   -763.3917408363  -0.002279461890 0.00261961  0.00005833  0.0002075 0.0000
 19   -763.3910150981   0.000725738139 0.00294387  0.00005861  0.0002190 0.0000
               *** Restarting incremental Fock matrix formation ***
                                   *** Resetting DIIS ***
 20   -763.3897513765   0.001263721595 0.00593359  0.00010765  0.0002142 0.0000
 21   -763.3936394615  -0.003888084983 0.00010817  0.00000226  0.0002429 0.0000
 22   -763.3935593212   0.000080140290 0.00000127  0.00000003  0.0002428 0.0000
 23   -763.3935593931  -0.000000071892 0.00000121  0.00000002  0.0002428 0.0000
 24   -763.3935594659  -0.000000072796 0.00000115  0.00000002  0.0002428 0.0000
 25   -763.3897047113   0.003854754633 0.00375049  0.00007833  0.0002428 0.0000
 26   -763.3905054728  -0.000800761509 0.00199964  0.00004274  0.0002477 0.0000
 27   -763.3878562258   0.002649246949 0.00417426  0.00008327  0.0002417 0.0000
 28   -763.3809840525   0.006872173355 0.00975776  0.00017989  0.0002191 0.0000
 29   -763.3791131228   0.001870929652 0.00917406  0.00015479  0.0001525 0.0000
 30   -763.3906858836  -0.011572760773 0.00176142  0.00003831  0.0000543 0.0000
 31   -763.3918206148  -0.001134731181 0.00235099  0.00004746  0.0000318 0.0000
 32   -763.3910971410   0.000723473798 0.00103270  0.00002077  0.0000250 0.0000
 33   -763.3897235072   0.001373633816 0.00016730  0.00000324  0.0000113 0.0000
 34   -763.3904023976  -0.000678890451 0.00052833  0.00000993  0.0000067 0.0000
 35   -763.3899836471   0.000418750544 0.00010957  0.00000184  0.0000017 0.0000
 36   -763.3899189117   0.000064735392 0.00005584  0.00000099  0.0000011 0.0000
                            ***DIIS convergence achieved***

               *****************************************************
               *                     SUCCESS                       *
               *           SCF CONVERGED AFTER  37 CYCLES          *
               *****************************************************


----------------
TOTAL SCF ENERGY
----------------

Total Energy       :         -763.38987349 Eh          -20772.89453 eV

Components:
Nuclear Repulsion  :            0.00000000 Eh               0.00000 eV
Electronic Energy  :         -763.38987349 Eh          -20772.89453 eV
One Electron Energy:        -1350.87946292 Eh          -36759.29899 eV
Two Electron Energy:          587.48958942 Eh           15986.40446 eV

Virial components:
Potential Energy   :        -1160.43924759 Eh          -31577.15728 eV
Kinetic Energy     :          397.04937409 Eh           10804.26275 eV
Virial Ratio       :            2.92265729


---------------
SCF CONVERGENCE
---------------

  Last Energy change         ...    4.5420e-05  Tolerance :   1.0000e-08
  Last MAX-Density change    ...    1.7775e-05  Tolerance :   1.0000e-07
  Last RMS-Density change    ...    3.1152e-07  Tolerance :   5.0000e-09
  Last DIIS Error            ...    3.9172e-07  Tolerance :   5.0000e-07

             **** THE GBW FILE WAS UPDATED (64_Gd.gbw) ****
             **** DENSITY FILE WAS UPDATED (64_Gd.scfp) ****
             **** ENERGY FILE WAS UPDATED (64_Gd.en.tmp) ****
----------------------
UHF SPIN CONTAMINATION
----------------------

Expectation value of <S**2>     :    20.064807
Ideal value S*(S+1) for S=4.0   :    20.000000
Deviation                       :     0.064807

             **** THE GBW FILE WAS UPDATED (64_Gd.gbw) ****
             **** DENSITY FILE WAS UPDATED (64_Gd.scfp) ****
----------------
ORBITAL ENERGIES
----------------
                 SPIN UP ORBITALS
  NO   OCC          E(Eh)            E(eV) 
   0   1.0000     -15.752906      -428.6584 
   1   1.0000     -11.331409      -308.3433 
   2   1.0000     -11.325203      -308.1744 
   3   1.0000     -11.325203      -308.1744 
   4   1.0000      -6.423369      -174.7888 
   5   1.0000      -6.417781      -174.6367 
   6   1.0000      -6.415003      -174.5611 
   7   1.0000      -6.415003      -174.5611 
   8   1.0000      -6.406903      -174.3407 
   9   1.0000      -2.337677       -63.6114 
  10   1.0000      -1.296807       -35.2879 
  11   1.0000      -1.296807       -35.2879 
  12   1.0000      -1.271116       -34.5888 
  13   1.0000      -0.850600       -23.1460 
  14   1.0000      -0.849888       -23.1266 
  15   1.0000      -0.849888       -23.1266 
  16   1.0000      -0.848526       -23.0896 
  17   1.0000      -0.846031       -23.0217 
  18   1.0000      -0.843577       -22.9549 
  19   1.0000      -0.843577       -22.9549 
  20   1.0000      -0.252841        -6.8801 
  21   1.0000      -0.208941        -5.6856 
  22   0.0000       0.027594         0.7509 
  23   0.0000       0.027595         0.7509 
  24   0.0000       0.028944         0.7876 
  25   0.0000       0.088960         2.4207 
  26   0.0000       0.104558         2.8452 
  27   0.0000       0.104558         2.8452 
  28   0.0000       0.104756         2.8505 
  29   0.0000       0.120249         3.2721 
  30   0.0000       0.260773         7.0960 
  31   0.0000       0.260774         7.0960 
  32   0.0000       0.265708         7.2303 
  33   0.0000       0.838877        22.8270 
  34   0.0000       0.877709        23.8837 
  35   0.0000       0.882212        24.0062 
  36   0.0000       0.882212        24.0062 
  37   0.0000       0.895361        24.3640 
  38   0.0000       1.164468        31.6868 
  39   0.0000       1.337282        36.3893 
  40   0.0000       1.337282        36.3893 
  41   0.0000       1.343983        36.5716 
  42   0.0000       1.363837        37.1119 
  43   0.0000       1.368723        37.2448 
  44   0.0000       1.368723        37.2448 
  45   0.0000       1.374463        37.4010 
  46   0.0000       1.950835        53.0849 
  47   0.0000       1.951089        53.0918 
  48   0.0000       1.951089        53.0918 
  49   0.0000       1.951126        53.0929 
  50   0.0000       1.954876        53.1949 
  51   0.0000       1.957394        53.2634 
  52   0.0000       1.957833        53.2754 
  53   0.0000       1.957833        53.2754 
  54   0.0000       1.958117        53.2831 
  55   0.0000       1.981683        53.9243 
  56   0.0000       1.991241        54.1844 
  57   0.0000       1.991241        54.1844 
  58   0.0000       3.419713        93.0551 
  59   0.0000       4.772902       129.8773 
  60   0.0000       4.773220       129.8859 
  61   0.0000       4.773220       129.8859 
  62   0.0000       4.773887       129.9041 
  63   0.0000       4.779574       130.0588 
  64   0.0000       4.780419       130.0818 
  65   0.0000       4.780419       130.0818 
  66   0.0000       5.307456       144.4232 
  67   0.0000       5.311081       144.5219 
  68   0.0000       5.314513       144.6153 
  69   0.0000       5.314513       144.6153 
  70   0.0000       5.325020       144.9012 
  71   0.0000       8.110595       220.7005 
  72   0.0000      33.259026       905.0241 
  73   0.0000      33.264861       905.1829 
  74   0.0000      33.264861       905.1829 
  75   0.0000      63.823161      1736.7165 
  76   0.0000     224.658841      6113.2779 
  77   0.0000     535.458909     14570.5777 

                 SPIN DOWN ORBITALS
  NO   OCC          E(Eh)            E(eV) 
   0   1.0000     -15.226043      -414.3217 
   1   1.0000     -10.752251      -292.5836 
   2   1.0000     -10.742695      -292.3236 
   3   1.0000     -10.742695      -292.3236 
   4   1.0000      -5.670169      -154.2931 
   5   1.0000      -5.668372      -154.2443 
   6   1.0000      -5.668372      -154.2443 
   7   1.0000      -5.663338      -154.1073 
   8   1.0000      -5.657244      -153.9414 
   9   1.0000      -2.147441       -58.4348 
  10   1.0000      -1.146720       -31.2038 
  11   1.0000      -1.110137       -30.2084 
  12   1.0000      -1.110137       -30.2084 
  13   1.0000      -0.185607        -5.0506 
  14   0.0000       0.024895         0.6774 
  15   0.0000       0.035002         0.9524 
  16   0.0000       0.035002         0.9524 
  17   0.0000       0.100532         2.7356 
  18   0.0000       0.151561         4.1242 
  19   0.0000       0.151561         4.1242 
  20   0.0000       0.152391         4.1468 
  21   0.0000       0.167076         4.5464 
  22   0.0000       0.189064         5.1447 
  23   0.0000       0.275722         7.5028 
  24   0.0000       0.299089         8.1386 
  25   0.0000       0.299089         8.1386 
  26   0.0000       0.499954        13.6045 
  27   0.0000       0.500905        13.6303 
  28   0.0000       0.500905        13.6303 
  29   0.0000       0.502713        13.6795 
  30   0.0000       0.511549        13.9200 
  31   0.0000       0.520161        14.1543 
  32   0.0000       0.520161        14.1543 
  33   0.0000       0.961954        26.1761 
  34   0.0000       0.966138        26.2900 
  35   0.0000       0.966138        26.2900 
  36   0.0000       0.976938        26.5838 
  37   0.0000       0.997406        27.1408 
  38   0.0000       1.230952        33.4959 
  39   0.0000       1.527258        41.5588 
  40   0.0000       1.528873        41.6028 
  41   0.0000       1.528873        41.6028 
  42   0.0000       1.531948        41.6864 
  43   0.0000       1.545451        42.0538 
  44   0.0000       1.558276        42.4029 
  45   0.0000       1.558276        42.4029 
  46   0.0000       1.977922        53.8220 
  47   0.0000       1.978146        53.8281 
  48   0.0000       1.978146        53.8281 
  49   0.0000       1.978444        53.8362 
  50   0.0000       1.992728        54.2249 
  51   0.0000       1.998046        54.3696 
  52   0.0000       1.998046        54.3696 
  53   0.0000       2.013597        54.7928 
  54   0.0000       2.014771        54.8247 
  55   0.0000       2.080647        56.6173 
  56   0.0000       2.106224        57.3133 
  57   0.0000       2.106224        57.3133 
  58   0.0000       3.430762        93.3558 
  59   0.0000       5.031120       136.9037 
  60   0.0000       5.031979       136.9271 
  61   0.0000       5.031979       136.9271 
  62   0.0000       5.033595       136.9711 
  63   0.0000       5.043930       137.2523 
  64   0.0000       5.053210       137.5048 
  65   0.0000       5.053210       137.5048 
  66   0.0000       5.512189       149.9943 
  67   0.0000       5.514744       150.0638 
  68   0.0000       5.514744       150.0638 
  69   0.0000       5.522605       150.2777 
  70   0.0000       5.536152       150.6463 
  71   0.0000       8.266251       224.9361 
  72   0.0000      33.456393       910.3947 
  73   0.0000      33.464190       910.6069 
  74   0.0000      33.464190       910.6069 
  75   0.0000      63.998564      1741.4895 
  76   0.0000     224.716116      6114.8364 
  77   0.0000     535.476103     14571.0455 

                    ********************************
                    * MULLIKEN POPULATION ANALYSIS *
                    ********************************

--------------------------------------------
MULLIKEN ATOMIC CHARGES AND SPIN POPULATIONS
--------------------------------------------
   0 Gd:    0.000000    8.000000
Sum of atomic charges         :    0.0000000
Sum of atomic spin populations:    8.0000000

-----------------------------------------------------
MULLIKEN REDUCED ORBITAL CHARGES AND SPIN POPULATIONS
-----------------------------------------------------
CHARGE
  0 Gds       :     5.974316  s :     5.974316
      pz      :     3.999814  p :    11.998772
      px      :     3.999479
      py      :     3.999479
      dz2     :     2.025610  d :    11.025601
      dxz     :     2.000000
      dyz     :     2.000000
      dx2y2   :     2.000000
      dxy     :     2.999992
      f0      :     1.000186  f :     7.001228
      f+1     :     1.000165
      f-1     :     1.000165
      f+2     :     1.000000
      f-2     :     1.000000
      f+3     :     1.000356
      f-3     :     1.000356
      g0      :     0.000002  g :     0.000082
      g+1     :     0.000000
      g-1     :     0.000000
      g+2     :     0.000000
      g-2     :     0.000008
      g+3     :     0.000000
      g-3     :     0.000000
      g+4     :     0.000072
      g-4     :     0.000000

SPIN
  0 Gds       :     0.009827  s :     0.009827
      pz      :     0.000205  p :     0.000133
      px      :    -0.000036
      py      :    -0.000036
      dz2     :    -0.009876  d :     0.990116
      dxz     :     0.000000
      dyz     :     0.000000
      dx2y2   :     0.000000
      dxy     :     0.999992
      f0      :     0.999795  f :     6.999867
      f+1     :     0.999806
      f-1     :     0.999806
      f+2     :     1.000000
      f-2     :     1.000000
      f+3     :     1.000229
      f-3     :     1.000229
      g0      :     0.000000  g :     0.000057
      g+1     :    -0.000000
      g-1     :    -0.000000
      g+2     :    -0.000000
      g-2     :     0.000008
      g+3     :     0.000000
      g-3     :     0.000000
      g+4     :     0.000049
      g-4     :     0.000000


                     *******************************
                     * LOEWDIN POPULATION ANALYSIS *
                     *******************************

-------------------------------------------
LOEWDIN ATOMIC CHARGES AND SPIN POPULATIONS
-------------------------------------------
   0 Gd:    0.000000    8.000000

----------------------------------------------------
LOEWDIN REDUCED ORBITAL CHARGES AND SPIN POPULATIONS
----------------------------------------------------
CHARGE
  0 Gds       :     5.974316  s :     5.974316
      pz      :     3.999814  p :    11.998772
      px      :     3.999479
      py      :     3.999479
      dz2     :     2.025610  d :    11.025601
      dxz     :     2.000000
      dyz     :     2.000000
      dx2y2   :     2.000000
      dxy     :     2.999992
      f0      :     1.000186  f :     7.001228
      f+1     :     1.000165
      f-1     :     1.000165
      f+2     :     1.000000
      f-2     :     1.000000
      f+3     :     1.000356
      f-3     :     1.000356
      g0      :     0.000002  g :     0.000082
      g+1     :     0.000000
      g-1     :     0.000000
      g+2     :     0.000000
      g-2     :     0.000008
      g+3     :     0.000000
      g-3     :     0.000000
      g+4     :     0.000072
      g-4     :     0.000000

SPIN
  0 Gds       :     0.009827  s :     0.009827
      pz      :     0.000205  p :     0.000133
      px      :    -0.000036
      py      :    -0.000036
      dz2     :    -0.009876  d :     0.990116
      dxz     :     0.000000
      dyz     :     0.000000
      dx2y2   :     0.000000
      dxy     :     0.999992
      f0      :     0.999795  f :     6.999867
      f+1     :     0.999806
      f-1     :     0.999806
      f+2     :     1.000000
      f-2     :     1.000000
      f+3     :     1.000229
      f-3     :     1.000229
      g0      :     0.000000  g :     0.000057
      g+1     :    -0.000000
      g-1     :    -0.000000
      g+2     :    -0.000000
      g-2     :     0.000008
      g+3     :     0.000000
      g-3     :     0.000000
      g+4     :     0.000049
      g-4     :     0.000000


                      *****************************
                      * MAYER POPULATION ANALYSIS *
                      *****************************

  NA   - Mulliken gross atomic population
  ZA   - Total nuclear charge
  QA   - Mulliken gross atomic charge
  VA   - Mayer's total valence
  BVA  - Mayer's bonded valence
  FA   - Mayer's free valence

  ATOM       NA         ZA         QA         VA         BVA        FA
  0 Gd    36.0000    36.0000     0.0000     8.1296     0.0000     8.1296

  Mayer bond orders larger than 0.100000


-------
TIMINGS
-------

Total SCF time: 0 days 0 hours 0 min 40 sec 

Total time                  ....      40.441 sec
Sum of individual times     ....      39.713 sec  ( 98.2%)

Fock matrix formation       ....       8.433 sec  ( 20.9%)
Diagonalization             ....       0.179 sec  (  0.4%)
Density matrix formation    ....       0.017 sec  (  0.0%)
Population analysis         ....       0.055 sec  (  0.1%)
Initial guess               ....      30.512 sec  ( 75.4%)
Orbital Transformation      ....       0.000 sec  (  0.0%)
Orbital Orthonormalization  ....       0.000 sec  (  0.0%)
DIIS solution               ....       0.465 sec  (  1.1%)


           ************************************************************
           *        Program running with 24 parallel MPI-processes    *
           *              working on a common directory               *
           ************************************************************


------------------------------------------------------------------------------- 
                              ORCA-MATRIX DRIVEN CI                            
------------------------------------------------------------------------------- 

--------------------------------
AUTOMATIC CHOICE OF INCORE LEVEL
--------------------------------

Memory available                           ...   2500.00 MB
Memory needed for S+T                      ...     12.27 MB
Memory needed for J+K                      ...     24.69 MB
Memory needed for DIIS                     ...    171.83 MB
Memory needed for 3-ext                    ...     24.12 MB
Memory needed for 4-ext                    ...     38.19 MB
Memory needed for triples                  ...      6.70 MB
 -> Final InCoreLevel    ... 5
 -> check shows that triples correction can be computed


Wavefunction type
-----------------
Correlation treatment                      ...      CCSD     
Single excitations                         ... ON
Orbital optimization                       ... OFF
Calculation of Z vector                    ... OFF
Calculation of Brueckner orbitals          ... OFF
Perturbative triple excitations            ... ON
Calculation of F12 correction              ... OFF
Frozen core treatment                      ... chemical core (8 el)
Reference Wavefunction                     ... UHF
  Alpha-MOs occ    :     4 ...   21 ( 18 MO's/ 18 electrons)
  Beta-MOs occ     :     4 ...   13 ( 10 MO's/ 10 electrons)
  Alpha-MOs virt   :    22 ...   77 ( 56 MO's              )
  Beta-MOs virt    :    14 ...   77 ( 64 MO's              )
Number of AO's                             ...     78
Number of electrons                        ...     36
Number of correlated electrons             ...     28

Algorithmic settings
--------------------
Integral transformation                    ... AO direct full transformation
K(C) Formation                             ... FULL-MO TRAFO
Maximum number of iterations               ...        50
Convergence tolerance (max. residuum)      ... 1.000e-05
Level shift for amplitude update           ... 2.000e-01
Maximum number of DIIS vectors             ...         7
DIIS turned on at iteration                ...         0
Damping before turning on DIIS             ...     0.500
Damping after turning on DIIS              ...     0.000
Pair specific amplitude update             ... OFF
Natural orbital iterations                 ... OFF
Perturbative natural orbital generation    ... OFF
Printlevel                                 ... 2

Memory handling:
----------------
Maximum memory for working arrays          ...   2500 MB
Data storage in matrix containers          ... UNCOMPRESSED
Data type for integral storage             ... DOUBLE
In-Core Storage of quantities:
   Amplitudes+Sigma Vector      ... YES
   J+K operators                ... YES
   DIIS vectors                 ... YES
   3-external integrals         ... YES
   4-external integrals         ... YES


Initializing the integral package          ... done
Warning: reference  - re-canonicalizations have been set to INT 1 VIRT 1

--------------------------
UNRESTRICTED FOCK OPERATOR
--------------------------

<ss|ss>:         1540 b            0 skpd (  0.0%)    0.000 s ( 0.000 ms/b)
<ss|sp>:         3300 b            0 skpd (  0.0%)    0.000 s ( 0.000 ms/b)
<ss|sd>:         2200 b            0 skpd (  0.0%)    0.000 s ( 0.000 ms/b)
<ss|sf>:         1650 b            0 skpd (  0.0%)    0.000 s ( 0.000 ms/b)
<ss|sg>:          550 b            2 skpd (  0.4%)    0.000 s ( 0.000 ms/b)
<ss|pp>:         1155 b            0 skpd (  0.0%)    0.000 s ( 0.000 ms/b)
<ss|pd>:         1320 b            0 skpd (  0.0%)    0.000 s ( 0.000 ms/b)
<ss|pf>:          990 b            0 skpd (  0.0%)    0.001 s ( 0.001 ms/b)
<ss|pg>:          330 b            0 skpd (  0.0%)    0.000 s ( 0.001 ms/b)
<ss|dd>:          550 b            0 skpd (  0.0%)    0.001 s ( 0.002 ms/b)
<ss|df>:          660 b            0 skpd (  0.0%)    0.001 s ( 0.002 ms/b)
<ss|dg>:          220 b            0 skpd (  0.0%)    0.001 s ( 0.002 ms/b)
<ss|ff>:          330 b            0 skpd (  0.0%)    0.002 s ( 0.006 ms/b)
<ss|fg>:          165 b            0 skpd (  0.0%)    0.001 s ( 0.007 ms/b)
<ss|gg>:           55 b            0 skpd (  0.0%)    0.000 s ( 0.008 ms/b)
<sp|sp>:         1830 b            1 skpd (  0.1%)    0.000 s ( 0.000 ms/b)
<sp|sd>:         2400 b            2 skpd (  0.1%)    0.001 s ( 0.000 ms/b)
<sp|sf>:         1800 b            4 skpd (  0.2%)    0.001 s ( 0.001 ms/b)
<sp|sg>:          600 b           15 skpd (  2.5%)    0.000 s ( 0.000 ms/b)
<sp|pp>:         1260 b            0 skpd (  0.0%)    0.001 s ( 0.000 ms/b)
<sp|pd>:         1440 b            0 skpd (  0.0%)    0.001 s ( 0.001 ms/b)
<sp|pf>:         1080 b            0 skpd (  0.0%)    0.002 s ( 0.001 ms/b)
<sp|pg>:          360 b            0 skpd (  0.0%)    0.001 s ( 0.002 ms/b)
<sp|dd>:          600 b            0 skpd (  0.0%)    0.003 s ( 0.005 ms/b)
<sp|df>:          720 b            0 skpd (  0.0%)    0.004 s ( 0.006 ms/b)
<sp|dg>:          240 b            0 skpd (  0.0%)    0.002 s ( 0.007 ms/b)
<sp|ff>:          360 b            0 skpd (  0.0%)    0.005 s ( 0.015 ms/b)
<sp|fg>:          180 b            0 skpd (  0.0%)    0.003 s ( 0.018 ms/b)
<sp|gg>:           60 b            0 skpd (  0.0%)    0.001 s ( 0.021 ms/b)
<sd|sd>:          820 b            0 skpd (  0.0%)    0.001 s ( 0.001 ms/b)
<sd|sf>:         1200 b            9 skpd (  0.8%)    0.002 s ( 0.001 ms/b)
<sd|sg>:          400 b           13 skpd (  3.2%)    0.000 s ( 0.001 ms/b)
<sd|pp>:          840 b            0 skpd (  0.0%)    0.001 s ( 0.001 ms/b)
<sd|pd>:          960 b            0 skpd (  0.0%)    0.002 s ( 0.002 ms/b)
<sd|pf>:          720 b            0 skpd (  0.0%)    0.003 s ( 0.004 ms/b)
<sd|pg>:          240 b            0 skpd (  0.0%)    0.001 s ( 0.004 ms/b)
<sd|dd>:          400 b            0 skpd (  0.0%)    0.005 s ( 0.013 ms/b)
<sd|df>:          480 b            0 skpd (  0.0%)    0.008 s ( 0.016 ms/b)
<sd|dg>:          160 b            0 skpd (  0.0%)    0.003 s ( 0.017 ms/b)
<sd|ff>:          240 b            0 skpd (  0.0%)    0.011 s ( 0.045 ms/b)
<sd|fg>:          120 b            0 skpd (  0.0%)    0.005 s ( 0.043 ms/b)
<sd|gg>:           40 b            0 skpd (  0.0%)    0.002 s ( 0.048 ms/b)
<sf|sf>:          465 b            4 skpd (  0.9%)    0.001 s ( 0.002 ms/b)
<sf|sg>:          300 b           14 skpd (  4.7%)    0.001 s ( 0.002 ms/b)
<sf|pp>:          630 b            0 skpd (  0.0%)    0.001 s ( 0.002 ms/b)
<sf|pd>:          720 b            2 skpd (  0.3%)    0.003 s ( 0.004 ms/b)
<sf|pf>:          540 b            0 skpd (  0.0%)    0.004 s ( 0.008 ms/b)
<sf|pg>:          180 b            1 skpd (  0.6%)    0.002 s ( 0.011 ms/b)
<sf|dd>:          300 b            0 skpd (  0.0%)    0.009 s ( 0.030 ms/b)
<sf|df>:          360 b            0 skpd (  0.0%)    0.014 s ( 0.039 ms/b)
<sf|dg>:          120 b            2 skpd (  1.7%)    0.005 s ( 0.039 ms/b)
<sf|ff>:          180 b            0 skpd (  0.0%)    0.021 s ( 0.115 ms/b)
<sf|fg>:           90 b            0 skpd (  0.0%)    0.007 s ( 0.079 ms/b)
<sf|gg>:           30 b            0 skpd (  0.0%)    0.003 s ( 0.097 ms/b)
<sg|sg>:           55 b            7 skpd ( 12.7%)    0.000 s ( 0.002 ms/b)
<sg|pp>:          210 b            5 skpd (  2.4%)    0.000 s ( 0.002 ms/b)
<sg|pd>:          240 b           18 skpd (  7.5%)    0.001 s ( 0.004 ms/b)
<sg|pf>:          180 b           10 skpd (  5.6%)    0.001 s ( 0.008 ms/b)
<sg|pg>:           60 b            8 skpd ( 13.3%)    0.000 s ( 0.008 ms/b)
<sg|dd>:          100 b            0 skpd (  0.0%)    0.003 s ( 0.026 ms/b)
<sg|df>:          120 b            8 skpd (  6.7%)    0.004 s ( 0.038 ms/b)
<sg|dg>:           40 b            3 skpd (  7.5%)    0.001 s ( 0.031 ms/b)
<sg|ff>:           60 b            0 skpd (  0.0%)    0.006 s ( 0.105 ms/b)
<sg|fg>:           30 b            4 skpd ( 13.3%)    0.001 s ( 0.057 ms/b)
<sg|gg>:           10 b            1 skpd ( 10.0%)    0.001 s ( 0.095 ms/b)
<pp|pp>:          231 b            0 skpd (  0.0%)    0.001 s ( 0.003 ms/b)
<pp|pd>:          504 b            0 skpd (  0.0%)    0.001 s ( 0.003 ms/b)
<pp|pf>:          378 b            0 skpd (  0.0%)    0.002 s ( 0.005 ms/b)
<pp|pg>:          126 b            0 skpd (  0.0%)    0.001 s ( 0.007 ms/b)
<pp|dd>:          210 b            0 skpd (  0.0%)    0.004 s ( 0.018 ms/b)
<pp|df>:          252 b            0 skpd (  0.0%)    0.006 s ( 0.023 ms/b)
<pp|dg>:           84 b            0 skpd (  0.0%)    0.002 s ( 0.026 ms/b)
<pp|ff>:          126 b            0 skpd (  0.0%)    0.008 s ( 0.065 ms/b)
<pp|fg>:           63 b            0 skpd (  0.0%)    0.003 s ( 0.047 ms/b)
<pp|gg>:           21 b            0 skpd (  0.0%)    0.001 s ( 0.071 ms/b)
<pd|pd>:          300 b            0 skpd (  0.0%)    0.003 s ( 0.011 ms/b)
<pd|pf>:          432 b            0 skpd (  0.0%)    0.005 s ( 0.012 ms/b)
<pd|pg>:          144 b            0 skpd (  0.0%)    0.002 s ( 0.016 ms/b)
<pd|dd>:          240 b            0 skpd (  0.0%)    0.011 s ( 0.044 ms/b)
<pd|df>:          288 b            0 skpd (  0.0%)    0.016 s ( 0.057 ms/b)
<pd|dg>:           96 b            0 skpd (  0.0%)    0.006 s ( 0.063 ms/b)
<pd|ff>:          144 b            0 skpd (  0.0%)    0.024 s ( 0.168 ms/b)
<pd|fg>:           72 b            0 skpd (  0.0%)    0.008 s ( 0.116 ms/b)
<pd|gg>:           24 b            0 skpd (  0.0%)    0.004 s ( 0.161 ms/b)
<pf|pf>:          171 b            0 skpd (  0.0%)    0.007 s ( 0.039 ms/b)
<pf|pg>:          108 b            0 skpd (  0.0%)    0.004 s ( 0.032 ms/b)
<pf|dd>:          180 b            0 skpd (  0.0%)    0.016 s ( 0.088 ms/b)
<pf|df>:          216 b            0 skpd (  0.0%)    0.026 s ( 0.122 ms/b)
<pf|dg>:           72 b            0 skpd (  0.0%)    0.009 s ( 0.129 ms/b)
<pf|ff>:          108 b            0 skpd (  0.0%)    0.039 s ( 0.359 ms/b)
<pf|fg>:           54 b            0 skpd (  0.0%)    0.013 s ( 0.242 ms/b)
<pf|gg>:           18 b            0 skpd (  0.0%)    0.005 s ( 0.302 ms/b)
<pg|pg>:           21 b            0 skpd (  0.0%)    0.001 s ( 0.025 ms/b)
<pg|dd>:           60 b            0 skpd (  0.0%)    0.005 s ( 0.080 ms/b)
<pg|df>:           72 b            0 skpd (  0.0%)    0.007 s ( 0.104 ms/b)
<pg|dg>:           24 b            0 skpd (  0.0%)    0.003 s ( 0.123 ms/b)
<pg|ff>:           36 b            0 skpd (  0.0%)    0.011 s ( 0.300 ms/b)
<pg|fg>:           18 b            0 skpd (  0.0%)    0.004 s ( 0.227 ms/b)
<pg|gg>:            6 b            0 skpd (  0.0%)    0.002 s ( 0.317 ms/b)
<dd|dd>:           55 b            0 skpd (  0.0%)    0.011 s ( 0.209 ms/b)
<dd|df>:          120 b            0 skpd (  0.0%)    0.019 s ( 0.157 ms/b)
<dd|dg>:           40 b            0 skpd (  0.0%)    0.007 s ( 0.168 ms/b)
<dd|ff>:           60 b            0 skpd (  0.0%)    0.028 s ( 0.461 ms/b)
<dd|fg>:           30 b            0 skpd (  0.0%)    0.009 s ( 0.315 ms/b)
<dd|gg>:           10 b            0 skpd (  0.0%)    0.004 s ( 0.379 ms/b)
<df|df>:           78 b            0 skpd (  0.0%)    0.040 s ( 0.507 ms/b)
<df|dg>:           48 b            0 skpd (  0.0%)    0.014 s ( 0.283 ms/b)
<df|ff>:           72 b            0 skpd (  0.0%)    0.057 s ( 0.789 ms/b)
<df|fg>:           36 b            0 skpd (  0.0%)    0.019 s ( 0.530 ms/b)
<df|gg>:           12 b            0 skpd (  0.0%)    0.008 s ( 0.643 ms/b)
<dg|dg>:           10 b            0 skpd (  0.0%)    0.002 s ( 0.221 ms/b)
<dg|ff>:           24 b            0 skpd (  0.0%)    0.015 s ( 0.606 ms/b)
<dg|fg>:           12 b            0 skpd (  0.0%)    0.005 s ( 0.444 ms/b)
<dg|gg>:            4 b            0 skpd (  0.0%)    0.003 s ( 0.649 ms/b)
<ff|ff>:           21 b            0 skpd (  0.0%)    0.058 s ( 2.739 ms/b)
<ff|fg>:           18 b            0 skpd (  0.0%)    0.020 s ( 1.093 ms/b)
<ff|gg>:            6 b            0 skpd (  0.0%)    0.006 s ( 1.068 ms/b)
<fg|fg>:            6 b            0 skpd (  0.0%)    0.005 s ( 0.781 ms/b)
<fg|gg>:            3 b            0 skpd (  0.0%)    0.003 s ( 0.960 ms/b)
<gg|gg>:            1 b            0 skpd (  0.0%)    0.002 s ( 1.631 ms/b)
Recanonicalizing the internal orbitals
Recanonicalizing the virtual orbitals
Time needed for Fock operator              ...            0.804 sec
Reference energy                           ...   -763.389870832
Warning: for UHF the TrafoType has to be JK
Warning: for UHF the K(C)-option cannot be MO but must be AOX

-------------------------------
PARTIAL EXCHANGE TRANSFORMATION
-------------------------------

Transformation type                        ... two-operators
Generation of integrals (i,mue|j,nue)      ... ON
Generation of integrals (mue,kappa|nue,tau)... ON
Generation of integrals (i,mue|a,nue)      ... ON
Dimension of the basis                     ...   78
Number of internal alpha-MOs               ...   18 (   4-  21)
Number of internal beta-MOs                ...   10 (   4-  13)
Number of external alpha-MOs               ...   56 (  22-  77)
Number of external beta-MOs                ...   64 (  14-  77)
Pair cutoff                                ... 0.000e+00 Eh
Number of AO pairs in the trafo            ... 3081
Total Number of distinct AO pairs          ... 3081
Memory devoted for trafo                   ... 2500.0 MB 
Max. Number of MO pairs treated together   ... 53859      
Number Format for Storage                  ... Double (8 Byte)
Integral package used                      ... LIBINT

Starting integral evaluation:
    ... done with AO integral generation
Closing buffer AOK[aa] ( 0.00 GB; CompressionRatio= 1.00)
Closing buffer AOK[bb] ( 0.00 GB; CompressionRatio= 0.99)
Closing buffer AOK[ab] ( 0.00 GB; CompressionRatio= 0.99)
Closing buffer AOK[ba] ( 0.00 GB; CompressionRatio= 0.99)
Collecting buffer AOK 
Closing buffer IAAO1[aa] ( 0.00 GB; CompressionRatio= 1.00)
Closing buffer IAAO1[bb] ( 0.00 GB; CompressionRatio= 1.00)
Closing buffer IAAO1[ab] ( 0.00 GB; CompressionRatio= 1.00)
Closing buffer IAAO1[ba] ( 0.00 GB; CompressionRatio= 1.00)
Closing buffer IAAO2[aa] ( 0.00 GB; CompressionRatio= 1.00)
Closing buffer IAAO2[bb] ( 0.00 GB; CompressionRatio= 1.00)
Closing buffer IAAO2[ab] ( 0.00 GB; CompressionRatio= 1.00)
Closing buffer IAAO2[ba] ( 0.00 GB; CompressionRatio= 1.00)
Collecting buffer IAAO 
Closing buffer PRQS    ( 0.00 GB; CompressionRatio= 1.00)
Collecting buffer PRQS 
Number of alpha/alpha MO pairs in trafo    ...  171
Number of beta /beta  MO pairs in trafo    ...   55
Number of alpha/ beta MO pairs in trafo    ...  180
------------------------
SORTING OF (i,mue|j,nue)
------------------------

SORTING OF ALPHA/ALPHA PAIRS
IBATCH = 1 of  1
Closing buffer KAO[aa] ( 0.00 GB; CompressionRatio= 1.00)
Collecting buffer KAO 
SORTING OF BETA /BETA  PAIRS
IBATCH = 1 of  1
Closing buffer KAO[bb] ( 0.00 GB; CompressionRatio= 1.00)
Collecting buffer KAO 
SORTING OF ALPHA/BETA  PAIRS
IBATCH = 1 of  1
Closing buffer KAO[ab] ( 0.00 GB; CompressionRatio= 0.999753512448)
Collecting buffer KAO[ab] 
------------------------
SORTING OF (i,mue|a,nue)
------------------------

Number of alpha/alpha (i,a) pairs in trafo  ... 1008
Number of beta /beta  (i,a) pairs in trafo  ...  640
Number of alpha/ beta (i,a) pairs in trafo  ... 1152
Number of beta /alpha (i,a) pairs in trafo  ...  560
Setting up the alpha/alpha list             ... done
Setting up the beta /beta  list             ... done
Setting up the alpha/beta  list             ... done
Setting up the beta /alpha list             ... done
    ... Now sorting (i,mue|a,nue)integrals
    ... Integrals (i,b|a,c) will be made on the fly
SORTING OF ALPHA/ALPHA PAIRS
IBATCH = 1 of  1
Closing buffer IPAQ[aa]  0.00 GB; CompressionRatio= 1.00)
SORTING OF BETA /BETA  PAIRS
IBATCH = 1 of  1
Closing buffer IPAQ[bb]( 0.00 GB; CompressionRatio= 1.00)
SORTING OF ALPHA/BETA  PAIRS (NMatSort_ab=48)
IBATCH = 1 of  1
Closing buffer IPAQ[ab]( 0.00 GB; CompressionRatio= 1.00)
SORTING OF BETA/ALPHA  PAIRS
IBATCH = 1 of  1
Closing buffer IPAQ[ba]( 0.00 GB; CompressionRatio= 1.00)
N(AO-Batches) Done                         ...       576 
N(AO-Batches) Skipped                      ...         0 
N(IJ)-pairs Skipped                        ...         0 
TOTAL TIME for half transformation         ...     5.092 sec
AO-integral generation                     ...     0.032 sec
Half transformation                        ...     0.195 sec
K-integral sorting                         ...     1.257 sec
<ss|**>: 
------------------------------
PARTIAL COULOMB TRANSFORMATION
------------------------------

Transformation type                        ... two-operators
Dimension of the basis                     ...   78
Number of internal alpha-MOs               ...   18 (4-21)
Number of internal beta-MOs                ...   10 (4-13)
Pair cutoff                                ... 0.000e+00 Eh
Number of AO pairs included in the trafo   ... 3081
Total Number of distinct AO pairs          ... 3081
Memory devoted for trafo                   ... 2500.0 MB 
Max. Number of MO pairs treated together   ... 106355      
Max. Number of MOs treated per batch       ... 1363      
Number Format for Storage                  ... Double (8 Byte)
AO-integral source                         ... DIRECT
Integral package used                      ... LIBINT

Starting integral evaluation:
<sp|**>:        16500 b        0 skpd     0.003 s (  0.000 ms/b)
<sd|**>:        18000 b        0 skpd     0.029 s (  0.002 ms/b)
       12000 b        0 skpd     0.058 s (  0.005 ms/b)
<sf|**>:         9000 b        0 skpd     0.046 s (  0.005 ms/b)
<sg|**>:         3000 b        0 skpd     0.024 s (  0.008 ms/b)
<pp|**>:         6300 b        0 skpd     0.042 s (  0.007 ms/b)
<pd|**>:         7200 b        0 skpd     0.060 s (  0.008 ms/b)
<pf|**>:         5400 b        0 skpd     0.088 s (  0.016 ms/b)
<pg|**>:         1800 b        0 skpd     0.052 s (  0.029 ms/b)
<dd|**>:         3000 b        0 skpd     0.112 s (  0.037 ms/b)
<df|**>:         3600 b        0 skpd     0.187 s (  0.052 ms/b)
<dg|**>:         1200 b        0 skpd     0.084 s (  0.070 ms/b)
<ff|**>:         1800 b        0 skpd     0.264 s (  0.147 ms/b)
<fg|**>:          900 b        0 skpd     0.119 s (  0.132 ms/b)
<gg|**>:          300 b        0 skpd     0.060 s (  0.200 ms/b)
Closing buffer AOJ[aa] ( 0.00 GB; CompressionRatio= 0.99)
Closing buffer AOJ[bb] ( 0.00 GB; CompressionRatio= 0.00)
Collecting buffer AOJ 
    ... done with AO integral generation
Number of Alpha-MO pairs included          ...  171
Number of Beta-MO pairs included           ...   55
    ... Now sorting integrals
SORTING ALPHA/ALPHA PAIRS
IBATCH = 1 of  1
Closing buffer JAO[aa] ( 0.00 GB; CompressionRatio= 1.00)
SORTING BETA/BETA PAIRS
IBATCH = 1 of  1
Closing buffer JAO[bb] ( 0.00 GB; CompressionRatio= 1.00)
Collecting buffer JAO 
TOTAL TIME for half transformation         ...     1.399 sec
AO-integral generation                     ...     1.017 sec
Half transformation                        ...     0.214 sec
J-integral sorting                         ...     0.128 sec

-------------------------- SECOND HALF TRANSFORMATION -------------------------
Formation of (ij|kl),(ij|ka), (ij|ab)      ... ok (     0.177 sec)
Formation of (ik|jl),(ik|ja), (ia|jb)      ... ok (     0.307 sec)


-----------------------
SPIN UNRESTRICTED GUESS
-----------------------

Entering MDCI_UHF_Guess, Tailored=0
Spin-components of the MP2 energy:
EMP2(aa)=     -0.213099778
EMP2(bb)=     -0.167113219
EMP2(ab)=     -0.456329146

Initial guess performed in     0.037 sec
E(0)                                       ...   -763.389870832
E(MP2)                                     ...     -0.836542143
Initial E(tot)                             ...   -764.226412975
<T|T>                                      ...      0.151600480
Number of pairs included                   ... 378

------------------------------------------------
                  UHF COUPLED CLUSTER ITERATIONS
------------------------------------------------

Number of amplitudes to be optimized       ...       978008

Iter       E(tot)           E(Corr)          Delta-E          Residual     Time      <S|S>**1/2
  0   -764.226412975     -0.836542143     -0.000000000      0.171952287    1.06      0.000000384
                           *** Turning on DIIS ***
  1   -764.146977492     -0.757106660      0.079435483      0.276532457    1.10      0.061219030
  2   -764.166914324     -0.777043492     -0.019936832      0.129253830    1.11      0.064705919
  3   -764.175832375     -0.785961543     -0.008918051      0.074327034    1.10      0.072244828
  4   -764.177943603     -0.788072771     -0.002111228      0.032311966    1.13      0.077830592
  5   -764.180423183     -0.790552351     -0.002479580      0.011497130    1.15      0.087947572
  6   -764.181134269     -0.791263437     -0.000711087      0.003215716    1.15      0.091740129
  7   -764.181907440     -0.792036607     -0.000773170      0.001984714    1.16      0.097272879
  8   -764.182120552     -0.792249720     -0.000213113      0.001477570    1.17      0.101391160
  9   -764.182147468     -0.792276636     -0.000026916      0.001580471    1.19      0.103336098
 10   -764.182336881     -0.792466049     -0.000189413      0.000815748    1.15      0.106996763
 11   -764.182324880     -0.792454048      0.000012001      0.000607089    1.14      0.109252361
 12   -764.182351706     -0.792480874     -0.000026826      0.000399714    1.15      0.110759298
 13   -764.182366198     -0.792495366     -0.000014492      0.000287764    1.15      0.112284625
 14   -764.182367405     -0.792496573     -0.000001207      0.000437252    1.15      0.112664917
 15   -764.182379564     -0.792508732     -0.000012159      0.000128367    1.14      0.113309260
 16   -764.182385743     -0.792514911     -0.000006178      0.000104930    1.15      0.113532163
 17   -764.182394265     -0.792523433     -0.000008522      0.000067292    1.16      0.113732765
 18   -764.182395423     -0.792524590     -0.000001158      0.000034246    1.14      0.113789555
 19   -764.182396271     -0.792525439     -0.000000848      0.000023794    1.14      0.113865647
 20   -764.182397088     -0.792526255     -0.000000817      0.000018838    1.16      0.113905250
 21   -764.182397800     -0.792526968     -0.000000712      0.000016262    1.15      0.113945596
 22   -764.182397591     -0.792526759      0.000000209      0.000018855    1.14      0.113963442
 23   -764.182397740     -0.792526908     -0.000000150      0.000020583    1.14      0.113987256
 24   -764.182398260     -0.792527427     -0.000000519      0.000010180    1.17      0.114003973
 25   -764.182398878     -0.792528045     -0.000000618      0.000009100    1.16      0.114021814
               --- The Coupled-Cluster iterations have converged ---

----------------------
COUPLED CLUSTER ENERGY
----------------------

E(0)                                       ...   -763.389870832
E(CORR)                                    ...     -0.792528045
E(TOT)                                     ...   -764.182398878
Singles norm <S|S>**1/2                    ...      0.114021814 ( 0.078140262, 0.035881552)  
T1 diagnostic                              ...      0.021548097                              

------------------
LARGEST AMPLITUDES
------------------
  21a-> 28a  -1a-> -1a       0.093662
  21a-> 24a  13b-> 14b       0.088416
  21a-> 22a  13b-> 16b       0.077484
  21a-> 23a  13b-> 15b       0.077484
  13b-> 17b  -1b-> -1b       0.076455
  13b-> 20b  -1b-> -1b       0.059034
  21a-> 32a  13b-> 14b       0.046984
  21a-> 24a  13b-> 23b       0.045130
  21a-> 22a  13b-> 25b       0.041575
  21a-> 23a  13b-> 24b       0.041575
  20a-> 26a  13b-> 18b       0.041185
  20a-> 27a  13b-> 19b       0.041185
  21a-> 31a  13b-> 15b       0.040130
  21a-> 30a  13b-> 16b       0.040130
  20a-> 25a  13b-> 22b       0.039121
  21a-> 26a  13b-> 19b       0.036938

----------------------
UHF TRIPLES CORRECTION (Algorithm 1)
----------------------

Multiplier for the singles contribution    ...      1.000000000

SPIN-CASE Alpha-Alpha-Alpha:
10% done
20% done
30% done
40% done
50% done
60% done
70% done
80% done
90% done


SPIN-CASE Beta-Beta-Beta:
10% done
20% done
30% done
40% done
50% done
60% done
70% done
80% done
90% done


SPIN-CASE Alpha-Alpha-Beta:
10% done
20% done
30% done
40% done
50% done
60% done
70% done
80% done
90% done


SPIN-CASE Beta-Beta-Alpha:
10% done
20% done
30% done
40% done
50% done
60% done
70% done
80% done
90% done


Triples Correction (T)                     ...     -0.024143284
    alpha-alpha-alpha ... -0.002516002 ( 10.4%)
    alpha-alpha-beta  ... -0.012425915 ( 51.5%)
    alpha-beta -beta  ... -0.008641677 ( 35.8%)
    beta -beta -beta  ... -0.000559691 (  2.3%)
Scaling of triples based on CCSD energies (Peterson et al. Molecular Physics 113, 1551 (2015))
E(T*) = f*E(T) where f = E(F12-CCSD)/E(CCSD) 
f = CCSD (with F12)/ CCSD (without F12)    ...      1.000000000
Scaled triples correction (T)              ...     -0.024143284

Final correlation energy                   ...     -0.816671330
E(CCSD)                                    ...   -764.182398878
E(CCSD(T))                                 ...   -764.206542162



        !!!!!!!!!!!!!!!!!!!!!!!!!!!!!!!!!!!!!!!!!!!!!!!!!!!!!!!!!!!!!!!!!!!!!!!!!! 
        !  Warning: Densities are linearized densities                           !
        !!!!!!!!!!!!!!!!!!!!!!!!!!!!!!!!!!!!!!!!!!!!!!!!!!!!!!!!!!!!!!!!!!!!!!!!!! 

NORM  =      1.193388362 sqrt=     1.092423161
W(HF) =      0.837950186
------------------------------------------------------------------------------
                           ORCA POPULATION ANALYSIS
------------------------------------------------------------------------------
Input electron density              ... 64_Gd.mdcip
Input spin density                  ... 64_Gd.mdcir
BaseName (.gbw .S,...)              ... 64_Gd

                    ********************************
                    * MULLIKEN POPULATION ANALYSIS *
                    ********************************

------------------------------------------
MULLIKEN ATOMIC CHARGES AND SPIN DENSITIES
------------------------------------------
   0 Gd:    0.000000    8.000000
Sum of atomic charges       :    0.0000000
Sum of atomic spin densities:    8.0000000

---------------------------------------------------
MULLIKEN REDUCED ORBITAL CHARGES AND SPIN DENSITIES
---------------------------------------------------
CHARGE
  0 Gds       :     5.879038  s :     5.879038
      pz      :     4.000847  p :    12.005694
      px      :     4.002423
      py      :     4.002423
      dz2     :     2.030092  d :    11.079770
      dxz     :     2.022888
      dyz     :     2.022888
      dx2y2   :     2.017097
      dxy     :     2.986805
      f0      :     1.003023  f :     7.028380
      f+1     :     1.003152
      f-1     :     1.003152
      f+2     :     1.002587
      f-2     :     1.004977
      f+3     :     1.005745
      f-3     :     1.005745
      g0      :     0.000696  g :     0.007118
      g+1     :     0.000705
      g-1     :     0.000705
      g+2     :     0.000653
      g-2     :     0.000820
      g+3     :     0.000813
      g-3     :     0.000813
      g+4     :     0.000956
      g-4     :     0.000957

SPIN
  0 Gds       :     0.021822  s :     0.021822
      pz      :     0.003632  p :     0.020007
      px      :     0.008188
      py      :     0.008188
      dz2     :     0.000837  d :     0.998375
      dxz     :     0.007579
      dyz     :     0.007579
      dx2y2   :     0.006713
      dxy     :     0.975668
      f0      :     0.992374  f :     6.955428
      f+1     :     0.992601
      f-1     :     0.992601
      f+2     :     0.992580
      f-2     :     0.994392
      f+3     :     0.995439
      f-3     :     0.995439
      g0      :     0.000364  g :     0.004368
      g+1     :     0.000379
      g-1     :     0.000379
      g+2     :     0.000351
      g-2     :     0.000499
      g+3     :     0.000518
      g-3     :     0.000518
      g+4     :     0.000681
      g-4     :     0.000680


                     *******************************
                     * LOEWDIN POPULATION ANALYSIS *
                     *******************************

-----------------------------------------
LOEWDIN ATOMIC CHARGES AND SPIN DENSITIES
-----------------------------------------
   0 Gd:    0.000000    8.000000

--------------------------------------------------
LOEWDIN REDUCED ORBITAL CHARGES AND SPIN DENSITIES
--------------------------------------------------
CHARGE
  0 Gds       :     5.879038  s :     5.879038
      pz      :     4.000847  p :    12.005694
      px      :     4.002423
      py      :     4.002423
      dz2     :     2.030092  d :    11.079770
      dxz     :     2.022888
      dyz     :     2.022888
      dx2y2   :     2.017097
      dxy     :     2.986805
      f0      :     1.003023  f :     7.028380
      f+1     :     1.003152
      f-1     :     1.003152
      f+2     :     1.002587
      f-2     :     1.004977
      f+3     :     1.005745
      f-3     :     1.005745
      g0      :     0.000696  g :     0.007118
      g+1     :     0.000705
      g-1     :     0.000705
      g+2     :     0.000653
      g-2     :     0.000820
      g+3     :     0.000813
      g-3     :     0.000813
      g+4     :     0.000956
      g-4     :     0.000957

SPIN
  0 Gds       :     0.021822  s :     0.021822
      pz      :     0.003632  p :     0.020007
      px      :     0.008188
      py      :     0.008188
      dz2     :     0.000837  d :     0.998375
      dxz     :     0.007579
      dyz     :     0.007579
      dx2y2   :     0.006713
      dxy     :     0.975668
      f0      :     0.992374  f :     6.955428
      f+1     :     0.992601
      f-1     :     0.992601
      f+2     :     0.992580
      f-2     :     0.994392
      f+3     :     0.995439
      f-3     :     0.995439
      g0      :     0.000364  g :     0.004368
      g+1     :     0.000379
      g-1     :     0.000379
      g+2     :     0.000351
      g-2     :     0.000499
      g+3     :     0.000518
      g-3     :     0.000518
      g+4     :     0.000681
      g-4     :     0.000680


                      *****************************
                      * MAYER POPULATION ANALYSIS *
                      *****************************

  NA   - Mulliken gross atomic population
  ZA   - Total nuclear charge
  QA   - Mulliken gross atomic charge
  VA   - Mayer's total valence
  BVA  - Mayer's bonded valence
  FA   - Mayer's free valence

  ATOM       NA         ZA         QA         VA         BVA        FA
  0 Gd    36.0000    36.0000     0.0000     9.1448     0.0000     9.1448





------------------------------------------------------------------------------- 
                                     TIMINGS                                   
------------------------------------------------------------------------------- 


Total execution time                   ...       40.182 sec

Fock Matrix Formation                  ...        0.804 sec (  2.0%)
Initial Guess                          ...        0.037 sec (  0.1%)
DIIS Solver                            ...        2.623 sec (  6.5%)
State Vector Update                    ...        0.112 sec (  0.3%)
Sigma-vector construction              ...       26.980 sec ( 67.1%)
  <0|H|D>                              ...        0.005 sec (  0.0% of sigma)
  <D|H|D>(0-ext Fock)                  ...        0.055 sec (  0.2% of sigma)
  <D|H|D>(0-ext)                       ...        0.415 sec (  1.5% of sigma)
  <D|H|D>(2-ext Fock)                  ...        0.009 sec (  0.0% of sigma)
  <D|H|D>(2-ext)                       ...        0.696 sec (  2.6% of sigma)
  <D|H|D>(4-ext)                       ...        5.110 sec ( 18.9% of sigma)
  <S|H|0>                              ...        1.254 sec (  4.6% of sigma)
  <S|H|S>                              ...        0.004 sec (  0.0% of sigma)
  <S|H|D>(1-ext)                       ...        0.017 sec (  0.1% of sigma)
  <D|H|S>(1-ext)                       ...        0.212 sec (  0.8% of sigma)
  Fock-dressing                        ...       12.797 sec ( 47.4% of sigma)
  (ik|jl)-dressing                     ...        0.711 sec (  2.6% of sigma)
  (ij|ab),(ia|jb)-dressing             ...        4.474 sec ( 16.6% of sigma)
  Pair energies                        ...        0.010 sec (  0.0% of sigma)
Total Time for computing (T)           ...        1.784 sec (  4.4% of ALL)
  I/O of integral and amplitudes       ...        0.363 sec ( 20.4% of (T))
  External N**7 contributions          ...        0.440 sec ( 24.6% of (T))
  Internal N**7 contributions          ...        0.238 sec ( 13.3% of (T))
  N**6 triples energy contributions    ...        0.683 sec ( 38.3% of (T))


-------------------------   --------------------
FINAL SINGLE POINT ENERGY      -764.206542161807
-------------------------   --------------------


                            ***************************************
                            *     ORCA property calculations      *
                            ***************************************

                                    ---------------------
                                    Active property flags
                                    ---------------------
   (+) Dipole Moment


------------------------------------------------------------------------------
                       ORCA ELECTRIC PROPERTIES CALCULATION
------------------------------------------------------------------------------

Dipole Moment Calculation                       ... on
Quadrupole Moment Calculation                   ... off
Polarizability Calculation                      ... off
GBWName                                         ... 64_Gd.gbw
Electron density file                           ... 64_Gd.scfp
The origin for moment calculation is the CENTER OF MASS  = ( 0.000000,  0.000000  0.000000)

-------------
DIPOLE MOMENT
-------------
                                X             Y             Z
Electronic contribution:     -0.00000       0.00000       0.00000
Nuclear contribution   :      0.00000       0.00000       0.00000
                        -----------------------------------------
Total Dipole Moment    :     -0.00000       0.00000       0.00000
                        -----------------------------------------
Magnitude (a.u.)       :      0.00000
Magnitude (Debye)      :      0.00000



--------------------
Rotational spectrum 
--------------------
 
Rotational constants in cm-1:     0.000000     0.000000     0.000000 
Rotational constants in MHz :     0.000000     0.000000     0.000000 

 Dipole components along the rotational axes: 
x,y,z [a.u.] :    -0.000000     0.000000     0.000000 
x,y,z [Debye]:    -0.000000     0.000000     0.000000 

 

                           *** MDCI DENSITY ***

------------------------------------------------------------------------------
                       ORCA ELECTRIC PROPERTIES CALCULATION
------------------------------------------------------------------------------

Dipole Moment Calculation                       ... on
Quadrupole Moment Calculation                   ... off
Polarizability Calculation                      ... off
GBWName                                         ... 64_Gd.gbw
Electron density file                           ... 64_Gd.mdcip
The origin for moment calculation is the CENTER OF MASS  = ( 0.000000,  0.000000  0.000000)

-------------
DIPOLE MOMENT
-------------
                                X             Y             Z
Electronic contribution:      0.00000      -0.00000      -0.00000
Nuclear contribution   :      0.00000       0.00000       0.00000
                        -----------------------------------------
Total Dipole Moment    :      0.00000      -0.00000      -0.00000
                        -----------------------------------------
Magnitude (a.u.)       :      0.00000
Magnitude (Debye)      :      0.00000



--------------------
Rotational spectrum 
--------------------
 
Rotational constants in cm-1:     0.000000     0.000000     0.000000 
Rotational constants in MHz :     0.000000     0.000000     0.000000 

 Dipole components along the rotational axes: 
x,y,z [a.u.] :     0.000000    -0.000000    -0.000000 
x,y,z [Debye]:     0.000000    -0.000000    -0.000000 

 

Timings for individual modules:

Sum of individual times         ...       82.901 sec (=   1.382 min)
GTO integral calculation        ...        1.100 sec (=   0.018 min)   1.3 %
SCF iterations                  ...       40.867 sec (=   0.681 min)  49.3 %
MDCI module                     ...       40.933 sec (=   0.682 min)  49.4 %
                             ****ORCA TERMINATED NORMALLY****
TOTAL RUN TIME: 0 days 0 hours 1 minutes 23 seconds 726 msec
