
                                 *****************
                                 * O   R   C   A *
                                 *****************

           --- An Ab Initio, DFT and Semiempirical electronic structure package ---

                  #######################################################
                  #                        -***-                        #
                  #          Department of theory and spectroscopy      #
                  #               Directorship: Frank Neese             #
                  #        Max Planck Institute fuer Kohlenforschung    #
                  #                Kaiser Wilhelm Platz 1               #
                  #                 D-45470 Muelheim/Ruhr               #
                  #                      Germany                        #
                  #                                                     #
                  #                  All rights reserved                #
                  #                        -***-                        #
                  #######################################################


                         Program Version 4.2.0 -  RELEASE  -


 With contributions from (in alphabetic order):
   Daniel Aravena         : Magnetic Suceptibility
   Michael Atanasov       : Ab Initio Ligand Field Theory (pilot matlab implementation)
   Alexander A. Auer      : GIAO ZORA, VPT2
   Ute Becker             : Parallelization
   Giovanni Bistoni       : ED, misc. LED, open-shell LED, HFLED
   Martin Brehm           : Molecular dynamics
   Dmytro Bykov           : SCF Hessian
   Vijay G. Chilkuri      : MRCI spin determinant printing, contributions to CSF-ICE
   Dipayan Datta          : RHF DLPNO-CCSD density
   Achintya Kumar Dutta   : EOM-CC, STEOM-CC
   Dmitry Ganyushin       : Spin-Orbit,Spin-Spin,Magnetic field MRCI
   Miquel Garcia          : C-PCM Hessian, Gaussian charge scheme
   Yang Guo               : DLPNO-NEVPT2, CIM, IAO-localization
   Andreas Hansen         : Spin unrestricted coupled pair/coupled cluster methods
   Benjamin Helmich-Paris : CASSCF linear response (MC-RPA)
   Lee Huntington         : MR-EOM, pCC
   Robert Izsak           : Overlap fitted RIJCOSX, COSX-SCS-MP3, EOM
   Christian Kollmar      : KDIIS, OOCD, Brueckner-CCSD(T), CCSD density
   Simone Kossmann        : Meta GGA functionals, TD-DFT gradient, OOMP2, MP2 Hessian
   Martin Krupicka        : AUTO-CI
   Lucas Lang             : DCDCAS
   Dagmar Lenk            : GEPOL surface, SMD
   Dimitrios Liakos       : Extrapolation schemes; Compound Job, initial MDCI parallelization
   Dimitrios Manganas     : Further ROCIS development; embedding schemes
   Dimitrios Pantazis     : SARC Basis sets
   Taras Petrenko         : DFT Hessian,TD-DFT gradient, ASA, ECA, R-Raman, ABS, FL, XAS/XES, NRVS
   Peter Pinski           : DLPNO-MP2, DLPNO-MP2 Gradient
   Christoph Reimann      : Effective Core Potentials
   Marius Retegan         : Local ZFS, SOC
   Christoph Riplinger    : Optimizer, TS searches, QM/MM, DLPNO-CCSD(T), (RO)-DLPNO pert. Triples
   Tobias Risthaus        : Range-separated hybrids, TD-DFT gradient, RPA, STAB
   Michael Roemelt        : Original ROCIS implementation
   Masaaki Saitow         : Open-shell DLPNO-CCSD energy and density
   Barbara Sandhoefer     : DKH picture change effects
   Avijit Sen             : IP-ROCIS
   Kantharuban Sivalingam : CASSCF convergence, NEVPT2, FIC-MRCI
   Bernardo de Souza      : ESD, SOC TD-DFT
   Georgi Stoychev        : AutoAux, RI-MP2 NMR
   Willem Van den Heuvel  : Paramagnetic NMR
   Boris Wezisla          : Elementary symmetry handling
   Frank Wennmohs         : Technical directorship


 We gratefully acknowledge several colleagues who have allowed us to
 interface, adapt or use parts of their codes:
   Stefan Grimme, W. Hujo, H. Kruse,             : VdW corrections, initial TS optimization,
                  C. Bannwarth                     DFT functionals, gCP, sTDA/sTD-DF
   Ed Valeev, F. Pavosevic, A. Kumar             : LibInt (2-el integral package), F12 methods
   Garnet Chan, S. Sharma, J. Yang, R. Olivares  : DMRG
   Ulf Ekstrom                                   : XCFun DFT Library
   Mihaly Kallay                                 : mrcc  (arbitrary order and MRCC methods)
   Andreas Klamt, Michael Diedenhofen            : otool_cosmo (COSMO solvation model)
   Jiri Pittner, Ondrej Demel                    : Mk-CCSD
   Frank Weinhold                                : gennbo (NPA and NBO analysis)
   Christopher J. Cramer and Donald G. Truhlar   : smd solvation model
   Lars Goerigk                                  : TD-DFT with DH, B97 family of functionals
   V. Asgeirsson, H. Jonsson                     : NEB implementation
   FAccTs GmbH                                   : IRC, NEB, NEB-TS, Multilevel, MM, QM/MM, CI optimization
   S Lehtola, MJT Oliveira, MAL Marques          : LibXC Library


 Your calculation uses the libint2 library for the computation of 2-el integrals
 For citations please refer to: http://libint.valeyev.net

 Your ORCA version has been built with support for libXC version: 4.2.3
 For citations please refer to: https://tddft.org/programs/libxc/

 This ORCA versions uses:
   CBLAS   interface :  Fast vector & matrix operations
   LAPACKE interface :  Fast linear algebra routines
   SCALAPACK package :  Parallel linear algebra routines


----- Orbital basis set information -----
Your calculation utilizes the basis: def2-SVP
   F. Weigend and R. Ahlrichs, Phys. Chem. Chem. Phys. 7, 3297 (2005).

----- AuxJ basis set information -----
Your calculation utilizes the auxiliary basis: def2/J
   F. Weigend, Phys. Chem. Chem. Phys. 8, 1057 (2006).

================================================================================
                                        WARNINGS
                       Please study these warnings very carefully!
================================================================================


INFO   : the flag for use of LIBINT has been found!

================================================================================
                                       INPUT FILE
================================================================================
NAME = 66_Dy_atom66.inp
|  1> # input to generate an atomic fitting density for Dy
|  2> # this file is use internally by ORCA
|  3> #
|  4> # atomic ground state (S=5): 1s2 2s2 2p6 3s2 3p6 4s2 3d10 4p6 5s2 4d10 5p6 4f10 6s2 
|  5> #
|  6> ! RHF AllowRHF def2-SVP def2/J  NoMulliken NoLoewdin NoMayer NoPrintMOs 
|  7> 
|  8> %output print[p_atomdensfit] 2 end
|  9> 
| 10> %scf
| 11>   guess hcore
| 12>   maxiter 1000
| 13>   maxdisk 500000
| 14>   SCFMode Conventional
| 15>   lshift 1.000000
| 16>   hftyp rohf
| 17>   rohf_case sahf
| 18>   rohf_numop   3
| 19>   rohf_norb[1] 7,1
| 20>   rohf_nel[1]  10,2
| 21> end
| 22> 
| 23> %basis
| 24>   NewECP 66
| 25>     N_core 28
| 26>     lmax h
| 27>     s 1
| 28>       1      26.4295860000    705.6712210000  2
| 29>     p 1
| 30>       1      17.3170340000    254.8669890000  2
| 31>     d 1
| 32>       1      12.9135990000     95.0451870000  2
| 33>     f 1
| 34>       1      24.9078780000    -54.5740930000  2
| 35>     g 1
| 36>       1      24.1487530000    -29.8282770000  2
| 37>     h 1
| 38>       1       1.0000000000      0.0000000000  2
| 39>   end
| 40>   NewGTO 66
| 41>     s 5 
| 42>      1   78529.9480720000      0.0036902563
| 43>      2   11854.6991140000      0.0276795762
| 44>      3    2717.9950256000      0.1294427621
| 45>      4     778.1426826200      0.3842488478
| 46>      5     242.0868850000      0.5771639528
| 47>     s 1 
| 48>      1      48.3506739980      1.0000000000
| 49>     s 1 
| 50>      1      31.8439308310      1.0000000000
| 51>     s 1 
| 52>      1      16.8737422420      1.0000000000
| 53>     s 1 
| 54>      1       4.2046140095      1.0000000000
| 55>     s 1 
| 56>      1       2.1291156307      1.0000000000
| 57>     s 1 
| 58>      1       0.7838875384      1.0000000000
| 59>     s 1 
| 60>      1       0.3424522853      1.0000000000
| 61>     s 1 
| 62>      1       0.0591905832      1.0000000000
| 63>     s 1 
| 64>      1       0.0237008154      1.0000000000
| 65>     p 5 
| 66>      1     376.9679685900     -0.0175637775
| 67>      2      98.8586558170     -0.0550838966
| 68>      3      26.8842294610     -0.3309674142
| 69>      4      16.4040886780      1.1194815444
| 70>      5       3.8008754878     -1.2464918376
| 71>     p 3 
| 72>      1      11.0102024330     -0.2407780383
| 73>      2       5.4423045780     -0.4990621903
| 74>      3       2.0660769990     -0.3642521953
| 75>     p 1 
| 76>      1       1.1129094543      1.0000000000
| 77>     p 1 
| 78>      1       0.4223451266      1.0000000000
| 79>     p 1 
| 80>      1       0.1200761708      1.0000000000
| 81>     p 1 
| 82>      1       0.0323874950      1.0000000000
| 83>     d 6 
| 84>      1     408.9077440500      0.0012887052
| 85>      2     125.1903034100      0.0096458609
| 86>      3      46.6880280920      0.0432388294
| 87>      4      18.7597691590      0.0833772051
| 88>      5       7.7821827368      0.4082796650
| 89>      6       3.7424993815      0.5830443256
| 90>     d 1 
| 91>      1       1.6344044471      1.0000000000
| 92>     d 1 
| 93>      1       0.4858361349      1.0000000000
| 94>     d 1 
| 95>      1       0.1334580211      1.0000000000
| 96>     f 5 
| 97>      1      86.1496326220      0.0186419874
| 98>      2      34.7170481470      0.1002200236
| 99>      3      16.8991224780      0.2219863083
|100>      4       7.9036466066      0.4059142348
|101>      5       3.4136465041      0.4908773753
|102>     f 1 
|103>      1       1.3694068892      1.0000000000
|104>     f 1 
|105>      1       0.4797895126      1.0000000000
|106>   end
|107>   NewAuxGTO 66
|108>     S 1
|109>      1 1310.72 1.0
|110>     S 1
|111>      1  655.36 1.0
|112>     S 1
|113>      1  327.68 1.0
|114>     S 1
|115>      1  163.84 1.0
|116>     S 1
|117>      1   81.82 1.0
|118>     S 1
|119>      1   40.96 1.0
|120>     S 1
|121>      1   20.48 1.0
|122>     S 1
|123>      1   10.24 1.0
|124>     S 1
|125>      1    5.12 1.0
|126>     S 1
|127>      1    2.56 1.0
|128>     S 1
|129>      1    1.28 1.0
|130>     S 1
|131>      1    0.64 1.0
|132>     S 1
|133>      1    0.32 1.0
|134>     S 1
|135>      1    0.16 1.0
|136>     S 1
|137>      1    0.08 1.0
|138>     S 1
|139>      1    0.04 1.0
|140>     S 1
|141>      1    0.02 1.0
|142>     S 1
|143>      1    0.01 1.0
|144>   end
|145> end
|146> 
|147> * xyz 0 5
|148> 66  0.0 0.0 0.0
|149> *
|150> 
|151> 
|152>                          ****END OF INPUT****
================================================================================

                       ****************************
                       * Single Point Calculation *
                       ****************************

---------------------------------
CARTESIAN COORDINATES (ANGSTROEM)
---------------------------------
  Dy     0.000000    0.000000    0.000000

----------------------------
CARTESIAN COORDINATES (A.U.)
----------------------------
  NO LB      ZA    FRAG     MASS         X           Y           Z
   0 Dy   38.0000*   0   162.500    0.000000    0.000000    0.000000
* core charge reduced due to ECP

--------------------------------
INTERNAL COORDINATES (ANGSTROEM)
--------------------------------
 Dy     0   0   0     0.000000000000     0.00000000     0.00000000

---------------------------
INTERNAL COORDINATES (A.U.)
---------------------------
 Dy     0   0   0     0.000000000000     0.00000000     0.00000000

---------------------
BASIS SET INFORMATION
---------------------
There are 1 groups of distinct atoms

 Group   1 Type Dy  : 14s12p9d7f contracted to 10s6p4d3f pattern {5111111111/531111/6111/511}

Atom   0Dy   basis set group =>   1
---------------------------------
AUXILIARY/J BASIS SET INFORMATION
---------------------------------
There are 1 groups of distinct atoms

 Group   1 Type Dy  : 18s contracted to 18s pattern {111111111111111111}

Atom   0Dy   basis set group =>   1
-------------------------
ECP PARAMETER INFORMATION
-------------------------

 Group 1, Type Dy ECP (replacing 28 core electrons, lmax=5)

Atom   0Dy   ECP group =>   1

------------------------------------------------------------------------------
                           ORCA GTO INTEGRAL CALCULATION
------------------------------------------------------------------------------

                         BASIS SET STATISTICS AND STARTUP INFO

 # of primitive gaussian shells          ...   42
 # of primitive gaussian functions       ...  144
 # of contracted shells                  ...   23
 # of contracted basis functions         ...   69
 Highest angular momentum                ...    3
 Maximum contraction depth               ...    6
 Integral package used                   ... LIBINT
 Integral threshhold            Thresh   ...  1.000e-10
 Primitive cut-off              TCut     ...  1.000e-11
 Storage cut-off                TCutStore... -1.000e+00
 Buffer length                           ... 1048576 integrals/buffer
 Generate file with integrals 4 distinct ...false


------------------------------ INTEGRAL EVALUATION ----------------------------


 * One electron integrals 

   ECP integrals                         ... done
 Pre-screening matrix                    ... done
 Shell pair data                         ... done (   0.000 sec)
 Statistics run                          ... done
 Maximum amount of storage needed        ...    34 MB
 Maximum amount of storage dedicated     ... 500000 MB
 Beginning two electron integral evaluation:
 Starting repulsion integrals
  <ss|ss>  ...         1540 b.         0 skpd (  0.0%)     0.000 s. (  0.000 ms/b)
  <ss|sp>  ...         3300 b.         0 skpd (  0.0%)     0.001 s. (  0.000 ms/b)
  <ss|sd>  ...         2200 b.         0 skpd (  0.0%)     0.002 s. (  0.001 ms/b)
  <ss|sf>  ...         1650 b.         0 skpd (  0.0%)     0.002 s. (  0.001 ms/b)
  <ss|pp>  ...         1155 b.         0 skpd (  0.0%)     0.001 s. (  0.001 ms/b)
  <ss|pd>  ...         1320 b.         0 skpd (  0.0%)     0.002 s. (  0.001 ms/b)
  <ss|pf>  ...          990 b.         0 skpd (  0.0%)     0.002 s. (  0.002 ms/b)
  <ss|dd>  ...          550 b.         0 skpd (  0.0%)     0.002 s. (  0.003 ms/b)
  <ss|df>  ...          660 b.         0 skpd (  0.0%)     0.003 s. (  0.004 ms/b)
  <ss|ff>  ...          330 b.         0 skpd (  0.0%)     0.003 s. (  0.008 ms/b)
  <sp|sp>  ...         1830 b.         0 skpd (  0.0%)     0.002 s. (  0.001 ms/b)
  <sp|sd>  ...         2400 b.         0 skpd (  0.0%)     0.004 s. (  0.001 ms/b)
  <sp|sf>  ...         1800 b.         0 skpd (  0.0%)     0.004 s. (  0.002 ms/b)
  <sp|pp>  ...         1260 b.         0 skpd (  0.0%)     0.003 s. (  0.002 ms/b)
  <sp|pd>  ...         1440 b.         0 skpd (  0.0%)     0.006 s. (  0.004 ms/b)
  <sp|pf>  ...         1080 b.         0 skpd (  0.0%)     0.007 s. (  0.006 ms/b)
  <sp|dd>  ...          600 b.         0 skpd (  0.0%)     0.005 s. (  0.009 ms/b)
  <sp|df>  ...          720 b.         0 skpd (  0.0%)     0.009 s. (  0.012 ms/b)
  <sp|ff>  ...          360 b.         0 skpd (  0.0%)     0.008 s. (  0.022 ms/b)
  <sd|sd>  ...          819 b.         1 skpd (  0.1%)     0.003 s. (  0.003 ms/b)
  <sd|sf>  ...         1198 b.         2 skpd (  0.2%)     0.006 s. (  0.005 ms/b)
  <sd|pp>  ...          840 b.         0 skpd (  0.0%)     0.004 s. (  0.005 ms/b)
  <sd|pd>  ...          960 b.         0 skpd (  0.0%)     0.009 s. (  0.010 ms/b)
  <sd|pf>  ...          720 b.         0 skpd (  0.0%)     0.011 s. (  0.016 ms/b)
  <sd|dd>  ...          400 b.         0 skpd (  0.0%)     0.009 s. (  0.023 ms/b)
  <sd|df>  ...          480 b.         0 skpd (  0.0%)     0.017 s. (  0.036 ms/b)
  <sd|ff>  ...          240 b.         0 skpd (  0.0%)     0.017 s. (  0.071 ms/b)
  <sf|sf>  ...          463 b.         2 skpd (  0.4%)     0.006 s. (  0.012 ms/b)
  <sf|pp>  ...          630 b.         0 skpd (  0.0%)     0.007 s. (  0.011 ms/b)
  <sf|pd>  ...          720 b.         0 skpd (  0.0%)     0.023 s. (  0.031 ms/b)
  <sf|pf>  ...          540 b.         0 skpd (  0.0%)     0.020 s. (  0.037 ms/b)
  <sf|dd>  ...          300 b.         0 skpd (  0.0%)     0.016 s. (  0.054 ms/b)
  <sf|df>  ...          360 b.         0 skpd (  0.0%)     0.031 s. (  0.087 ms/b)
  <sf|ff>  ...          180 b.         0 skpd (  0.0%)     0.032 s. (  0.179 ms/b)
  <pp|pp>  ...          231 b.         0 skpd (  0.0%)     0.002 s. (  0.008 ms/b)
  <pp|pd>  ...          504 b.         0 skpd (  0.0%)     0.007 s. (  0.014 ms/b)
  <pp|pf>  ...          378 b.         0 skpd (  0.0%)     0.009 s. (  0.024 ms/b)
  <pp|dd>  ...          210 b.         0 skpd (  0.0%)     0.007 s. (  0.035 ms/b)
  <pp|df>  ...          252 b.         0 skpd (  0.0%)     0.013 s. (  0.052 ms/b)
  <pp|ff>  ...          126 b.         0 skpd (  0.0%)     0.013 s. (  0.104 ms/b)
  <pd|pd>  ...          300 b.         0 skpd (  0.0%)     0.011 s. (  0.035 ms/b)
  <pd|pf>  ...          432 b.         0 skpd (  0.0%)     0.023 s. (  0.054 ms/b)
  <pd|dd>  ...          240 b.         0 skpd (  0.0%)     0.019 s. (  0.078 ms/b)
  <pd|df>  ...          288 b.         0 skpd (  0.0%)     0.036 s. (  0.124 ms/b)
  <pd|ff>  ...          144 b.         0 skpd (  0.0%)     0.041 s. (  0.282 ms/b)
  <pf|pf>  ...          171 b.         0 skpd (  0.0%)     0.016 s. (  0.096 ms/b)
  <pf|dd>  ...          180 b.         0 skpd (  0.0%)     0.023 s. (  0.126 ms/b)
  <pf|df>  ...          216 b.         0 skpd (  0.0%)     0.046 s. (  0.213 ms/b)
  <pf|ff>  ...          108 b.         0 skpd (  0.0%)     0.050 s. (  0.461 ms/b)
  <dd|dd>  ...           55 b.         0 skpd (  0.0%)     0.012 s. (  0.209 ms/b)
  <dd|df>  ...          120 b.         0 skpd (  0.0%)     0.034 s. (  0.282 ms/b)
  <dd|ff>  ...           60 b.         0 skpd (  0.0%)     0.037 s. (  0.612 ms/b)
  <df|df>  ...           78 b.         0 skpd (  0.0%)     0.044 s. (  0.562 ms/b)
  <df|ff>  ...           72 b.         0 skpd (  0.0%)     0.074 s. (  1.022 ms/b)
  <ff|ff>  ...           21 b.         0 skpd (  0.0%)     0.058 s. (  2.742 ms/b)


                                      INTEGRAL STATISTICS

Integral type statistics:
 Number of integrals retained            ...    2917158 
 One   Center Integrals retained         ...    2917158 (100.0%)
 Two   Center Integrals retained         ...          0 (  0.0%)
 Three Center Integrals retained         ...          0 (  0.0%)
 Four  Center Integrals retained         ...          0 (  0.0%)

Storage statistics:
 Number of char integrals                ...          0 (  0.0%)
 Number of short int integrals           ...          0 (  0.0%)
 Number of double/float integrals        ...    2917158 (100.0%)
 Amount of memory used                   ...         36 MB
 Amount of memory estimated              ...         34 MB ( 94.6%)

Prescreening statistics:
 Total number of shell quadruples        ...      38226 
 Number of skipped shell quadruples      ...          9 (  0.0%)
 # of negligible batches done            ...          0 (  0.0%)

Timings:
 Total evaluation time               ...     1.241 sec (   0.021 min)
 One electron matrix time            ...     0.093 sec (   0.002 min) =  7.5%
 Schwartz matrix evaluation time     ...     0.165 sec (   0.003 min) = 13.3%
 Statistics run                      ...     0.027 sec (   0.000 min) =  2.2%
 Repulsion integral time             ...     0.849 sec (   0.014 min) = 68.4%

-------------------------------------------------------------------------------
                                 ORCA SCF
-------------------------------------------------------------------------------

------------
SCF SETTINGS
------------
Hamiltonian:
 Ab initio Hamiltonian  Method          .... Hartree-Fock(GTOs)


General Settings:
 Integral files         IntName         .... 66_Dy_atom66
 Hartree-Fock type      HFTyp           .... ROHF
 Total Charge           Charge          ....    0
 Multiplicity           Mult            ....    5
 Number of Electrons    NEL             ....   38
 Basis Dimension        Dim             ....   69
 Nuclear Repulsion      ENuc            ....      0.0000000000 Eh

Convergence Acceleration:
 DIIS                   CNVDIIS         .... on
   Start iteration      DIISMaxIt       ....    12
   Startup error        DIISStart       ....  0.200000
   # of expansion vecs  DIISMaxEq       ....     5
   Bias factor          DIISBfac        ....   1.050
   Max. coefficient     DIISMaxC        ....  10.000
 Newton-Raphson         CNVNR           .... off
 SOSCF                  CNVSOSCF        .... off
 Level Shifting         CNVShift        .... on
   Level shift para.    LevelShift      ....    1.0000
   Turn off err/grad.   ShiftErr        ....    0.0010
 Zerner damping         CNVZerner       .... off
 Static damping         CNVDamp         .... on
   Fraction old density DampFac         ....    0.7000
   Max. Damping (<1)    DampMax         ....    0.9800
   Min. Damping (>=0)   DampMin         ....    0.0000
   Turn off err/grad.   DampErr         ....    0.1000
 Fernandez-Rico         CNVRico         .... off

SCF Procedure:
 Maximum # iterations   MaxIter         ....  1000
 SCF integral mode      SCFMode         .... Conventional
 Integral Threshold     Thresh          ....  1.000e-10 Eh
 Primitive CutOff       TCut            ....  1.000e-11 Eh
 Integral Buffer length BufferLength    .... 1048576
 Integral index format  IndFormat       ....     0
 Integral value format  ValFormat       ....     0
 Integral Storage       Thresh          ....  1.000e-10 Eh

Convergence Tolerance:
 Convergence Check Mode ConvCheckMode   .... Total+1el-Energy
 Convergence forced     ConvForced      .... 0
 Energy Change          TolE            ....  1.000e-06 Eh
 1-El. energy change                    ....  1.000e-03 Eh
 DIIS Error             TolErr          ....  1.000e-06


Diagonalization of the overlap matrix:
Smallest eigenvalue                        ... 1.510e-03
Time for diagonalization                   ...    0.001 sec
Threshold for overlap eigenvalues          ... 1.000e-08
Number of eigenvalues below threshold      ... 0
Time for construction of square roots      ...    0.003 sec
Total time needed                          ...    0.004 sec

--------------------
INITIAL GUESS: HCORE
--------------------
AVERAGE-CONFIGURATION (SAHF) CASE FOUND

-------------------
FINAL ROHF SETTINGS
-------------------
Number of operators             ... 3
  operator   0:  13 orbitals  26 electrons n(mue)= 2.000
  operator   1:   7 orbitals  10 electrons n(mue)= 1.429
  operator   2:   1 orbitals   2 electrons n(mue)= 2.000
Vector coupling coefficients a and b (Zerner convention):
   1.000    1.000    1.000           1.000    1.000    1.000 
   1.000    0.980    1.000           1.000    1.120    1.000 
   1.000    1.000    1.000           1.000    1.000    1.000 

                      -----------------
                      INTIAL GUESS DONE 
                      -----------------

 InCore treatment chosen:
   Memory dedicated               ...    1024 MB
   Memory needed                  ...     36 MB
   Number of tiny    integrals    ...       0
   Number of small   integrals    ...       0
   Number of regular integrals    ... 2917158

--------------
SCF ITERATIONS
--------------
ITER       Energy         Delta-E        Max-DP      RMS-DP      [F,P]     Damp
  0   -726.1275114527   0.000000000000 4.09145140  0.07475373 14.8393033 0.7000
  1   -823.5469121036 -97.419400650891 2.92170610  0.05190854  4.1441926 0.7000
  2   -833.1750308662  -9.628118762576 2.00543454  0.03354602  2.0565417 0.7000
  3   -860.3424267919 -27.167395925738 1.47279733  0.02660984  1.3220889 0.7000
  4   -867.1441929962  -6.801766204349 1.03095813  0.01909193  0.4889892 0.7000
  5   -871.3747472697  -4.230554273416 0.72167069  0.01329055  0.2002705 0.7000
                            ****Activating DIIS****
  6   -874.2227111894  -2.847963919705 1.68389828  0.03014568  0.0931601 0.0000
  7   -880.9184713438  -6.695760154410 0.09107419  0.00112579  0.1819768 0.7000
  8   -880.8602866897   0.058184654048 0.02201815  0.00028355  0.2102599 0.7000
  9   -880.9075003476  -0.047213657901 0.04596444  0.00057222  0.1801861 0.7000
 10   -880.9267153129  -0.019214965275 0.12296878  0.00158078  0.1708424 0.7000
 11   -880.9839202162  -0.057204903264 0.26731056  0.00379772  0.1300095 0.7000
 12   -881.0750715313  -0.091151315091 0.61830342  0.00908624  0.0666407 0.0000
 13   -881.1524544234  -0.077382892138 0.01138592  0.00016463  0.0672534 0.0000
 14   -881.1499831798   0.002471243580 0.00276811  0.00004182  0.0673199 0.0000
 15   -881.1505644699  -0.000581290085 0.00136732  0.00002518  0.0672643 0.0000
 16   -881.1507924836  -0.000228013655 0.01011213  0.00018482  0.0672110 0.0000
 17   -881.1515578977  -0.000765414145 0.12301098  0.00171548  0.0675243 0.0000
 18   -881.1714837148  -0.019925817148 0.06615707  0.00101241  0.0655063 0.0000
 19   -881.1812313368  -0.009747621931 0.13208966  0.00205998  0.0629712 0.0000
 20   -881.1993196872  -0.018088350394 0.14625637  0.00241230  0.0567045 0.0000
 21   -881.2177640487  -0.018444361492 0.10732323  0.00184804  0.0467689 0.0000
 22   -881.2298950144  -0.012130965723 0.09038869  0.00141482  0.0367070 0.0000
 23   -881.2380346386  -0.008139624254 0.06263303  0.00092760  0.0270816 0.0000
 24   -881.2428247660  -0.004790127380 0.01019234  0.00017958  0.0198280 0.0000
 25   -881.2437816223  -0.000956856259 0.00654578  0.00009842  0.0187118 0.0000
 26   -881.2433079713   0.000473650933 0.00564133  0.00008106  0.0194929 0.0000
 27   -881.2431239408   0.000184030531 0.00381642  0.00006388  0.0199708 0.0000
 28   -881.2428806641   0.000243276755 0.01981035  0.00029422  0.0204479 0.0000
 29   -881.2443580613  -0.001477397284 0.00642972  0.00010930  0.0180773 0.0000
 30   -881.2440097780   0.000348283358 0.00184937  0.00003033  0.0189164 0.0000
 31   -881.2441918795  -0.000182101484 0.00444483  0.00006809  0.0187149 0.0000
 32   -881.2445567504  -0.000364870908 0.00427706  0.00006443  0.0181982 0.0000
 33   -881.2442523891   0.000304361317 0.01232670  0.00018911  0.0187223 0.0000
 34   -881.2453527572  -0.001100368106 0.01589137  0.00024355  0.0173152 0.0000
 35   -881.2438769651   0.001475792020 0.00178741  0.00003293  0.0191076 0.0000
 36   -881.2437065162   0.000170448901 0.00530935  0.00008317  0.0193129 0.0000
 37   -881.2431755229   0.000530993331 0.01169095  0.00017985  0.0198998 0.0000
 38   -881.2419973452   0.001178177670 0.01623636  0.00025542  0.0211725 0.0000
 39   -881.2402837672   0.001713578045 0.00991741  0.00014748  0.0228897 0.0000
 40   -881.2395619750   0.000721792200 0.00874810  0.00015755  0.0232684 0.0000
 41   -881.2387607931   0.000801181891 0.00818340  0.00013955  0.0236982 0.0000
 42   -881.2388276668  -0.000066873692 0.01150181  0.00020499  0.0230433 0.0000
 43   -881.2394069219  -0.000579255053 0.01744436  0.00028745  0.0216151 0.0000
 44   -881.2403592638  -0.000952341958 0.03895772  0.00060928  0.0194609 0.0000
 45   -881.2424366303  -0.002077366472 0.02991702  0.00046109  0.0145235 0.0000
 46   -881.2437882859  -0.001351655603 0.01988238  0.00031411  0.0105029 0.0000
 47   -881.2444872987  -0.000699012775 0.02055071  0.00034357  0.0076640 0.0000
 48   -881.2450060968  -0.000518798102 0.01750311  0.00031022  0.0045793 0.0000
 49   -881.2453081993  -0.000302102584 0.00662682  0.00012703  0.0031887 0.0000
 50   -881.2454308513  -0.000122651938 0.00434162  0.00007438  0.0032243 0.0000
 51   -881.2455143611  -0.000083509800 0.00558657  0.00007409  0.0032467 0.0000
 52   -881.2455946141  -0.000080252994 0.00510260  0.00006365  0.0032671 0.0000
 53   -881.2456634410  -0.000068826917 0.00318625  0.00004066  0.0032845 0.0000
 54   -881.2457134336  -0.000049992598 0.00173882  0.00002335  0.0032975 0.0000
 55   -881.2457479372  -0.000034503593 0.00090868  0.00001362  0.0033067 0.0000
 56   -881.2457725162  -0.000024579009 0.00058759  0.00000988  0.0033134 0.0000
 57   -881.2457924148  -0.000019898617 0.00059411  0.00000992  0.0033188 0.0000
 58   -881.2458121296  -0.000019714802 0.00063548  0.00001067  0.0033240 0.0000
 59   -881.2458333278  -0.000021198207 0.00058819  0.00001044  0.0033295 0.0000
 60   -881.2458549564  -0.000021628590 0.00049901  0.00000964  0.0033351 0.0000
 61   -881.2458759917  -0.000021035239 0.00041943  0.00000888  0.0033405 0.0000
 62   -881.2458962161  -0.000020224488 0.00036876  0.00000844  0.0033457 0.0000
 63   -881.2459160124  -0.000019796273 0.00033627  0.00000824  0.0033508 0.0000
 64   -881.2459357695  -0.000019757044 0.00030639  0.00000809  0.0033557 0.0000
 65   -881.2459555374  -0.000019767926 0.00029195  0.00000789  0.0033607 0.0000
 66   -881.2459751985  -0.000019661070 0.00028930  0.00000769  0.0033656 0.0000
 67   -881.2459946810  -0.000019482536 0.00028706  0.00000753  0.0033703 0.0000
 68   -881.2460140160  -0.000019335058 0.00028575  0.00000741  0.0033750 0.0000
 69   -881.2460332681  -0.000019252039 0.00028480  0.00000731  0.0033797 0.0000
 70   -881.2460524641  -0.000019195994 0.00028369  0.00000722  0.0033843 0.0000
 71   -881.2460715944  -0.000019130288 0.00028235  0.00000714  0.0033888 0.0000
 72   -881.2460906459  -0.000019051517 0.00028101  0.00000706  0.0033933 0.0000
 73   -881.2461096202  -0.000018974336 0.00027980  0.00000699  0.0033977 0.0000
 74   -881.2461285271  -0.000018906926 0.00027864  0.00000693  0.0034020 0.0000
 75   -881.2461473720  -0.000018844815 0.00027743  0.00000688  0.0034063 0.0000
 76   -881.2461661525  -0.000018780579 0.00027612  0.00000682  0.0034106 0.0000
 77   -881.2461848642  -0.000018711640 0.00027475  0.00000677  0.0034147 0.0000
 78   -881.2462035037  -0.000018639535 0.00027333  0.00000672  0.0034188 0.0000
 79   -881.2462220693  -0.000018565565 0.00027185  0.00000667  0.0034229 0.0000
 80   -881.2462405581  -0.000018488836 0.00027028  0.00000662  0.0034269 0.0000
 81   -881.2462589657  -0.000018407558 0.00026860  0.00000657  0.0034308 0.0000
 82   -881.2462772864  -0.000018320678 0.00026682  0.00000652  0.0034347 0.0000
 83   -881.2462955144  -0.000018228063 0.00026493  0.00000647  0.0034385 0.0000
 84   -881.2463136442  -0.000018129762 0.00026294  0.00000642  0.0034422 0.0000
 85   -881.2463316697  -0.000018025483 0.00026082  0.00000636  0.0034459 0.0000
 86   -881.2463495844  -0.000017914784 0.00025859  0.00000631  0.0034495 0.0000
 87   -881.2463673819  -0.000017797412 0.00025623  0.00000625  0.0034530 0.0000
 88   -881.2463850553  -0.000017673398 0.00025376  0.00000619  0.0034565 0.0000
 89   -881.2464025982  -0.000017542910 0.00025118  0.00000613  0.0034598 0.0000
 90   -881.2464200043  -0.000017406134 0.00024848  0.00000607  0.0034632 0.0000
 91   -881.2464372676  -0.000017263295 0.00024568  0.00000600  0.0034664 0.0000
 92   -881.2464543823  -0.000017114718 0.00024277  0.00000594  0.0034696 0.0000
 93   -881.2464713432  -0.000016960866 0.00023978  0.00000587  0.0034727 0.0000
 94   -881.2464881455  -0.000016802281 0.00023670  0.00000580  0.0034757 0.0000
 95   -881.2465047850  -0.000016639541 0.00023356  0.00000573  0.0034787 0.0000
 96   -881.2465212583  -0.000016473276 0.00023035  0.00000566  0.0034816 0.0000
 97   -881.2465375624  -0.000016304144 0.00022709  0.00000559  0.0034844 0.0000
 98   -881.2465536953  -0.000016132838 0.00022378  0.00000552  0.0034871 0.0000
 99   -881.2465696553  -0.000015960076 0.00022045  0.00000545  0.0034898 0.0000
100   -881.2465854419  -0.000015786545 0.00021710  0.00000538  0.0034924 0.0000
101   -881.2466010548  -0.000015612938 0.00021374  0.00000531  0.0034949 0.0000
102   -881.2466164947  -0.000015439911 0.00021038  0.00000523  0.0034974 0.0000
103   -881.2466317628  -0.000015268099 0.00020703  0.00000516  0.0034997 0.0000
104   -881.2466468609  -0.000015098095 0.00020369  0.00000510  0.0035021 0.0000
105   -881.2466617914  -0.000014930451 0.00020039  0.00000503  0.0035043 0.0000
106   -881.2466765570  -0.000014765671 0.00019711  0.00000496  0.0035065 0.0000
107   -881.2466911613  -0.000014604215 0.00019387  0.00000489  0.0035087 0.0000
108   -881.2467056078  -0.000014446491 0.00019068  0.00000483  0.0035107 0.0000
109   -881.2467199006  -0.000014292864 0.00018753  0.00000477  0.0035127 0.0000
110   -881.2467340443  -0.000014143650 0.00018444  0.00000470  0.0035147 0.0000
111   -881.2467480434  -0.000013999125 0.00018140  0.00000464  0.0035166 0.0000
112   -881.2467619029  -0.000013859518 0.00017843  0.00000459  0.0035184 0.0000
113   -881.2467756279  -0.000013725029 0.00017551  0.00000453  0.0035202 0.0000
114   -881.2467892238  -0.000013595811 0.00017266  0.00000448  0.0035220 0.0000
115   -881.2468026957  -0.000013471996 0.00016987  0.00000442  0.0035236 0.0000
116   -881.2468160494  -0.000013353677 0.00016714  0.00000437  0.0035253 0.0000
117   -881.2468292904  -0.000013240931 0.00016449  0.00000432  0.0035269 0.0000
118   -881.2468424242  -0.000013133805 0.00016189  0.00000427  0.0035284 0.0000
119   -881.2468554565  -0.000013032330 0.00015937  0.00000423  0.0035299 0.0000
120   -881.2468683930  -0.000012936514 0.00015691  0.00000418  0.0035314 0.0000
121   -881.2468812394  -0.000012846357 0.00015451  0.00000414  0.0035328 0.0000
122   -881.2468940012  -0.000012761843 0.00015218  0.00000410  0.0035341 0.0000
123   -881.2469066842  -0.000012682944 0.00014992  0.00000406  0.0035355 0.0000
124   -881.2469192938  -0.000012609623 0.00014771  0.00000402  0.0035368 0.0000
125   -881.2469318356  -0.000012541840 0.00014557  0.00000399  0.0035380 0.0000
126   -881.2469443152  -0.000012479542 0.00014349  0.00000395  0.0035393 0.0000
127   -881.2469567378  -0.000012422681 0.00014146  0.00000392  0.0035404 0.0000
128   -881.2469691090  -0.000012371193 0.00013950  0.00000389  0.0035416 0.0000
129   -881.2469814341  -0.000012325024 0.00013759  0.00000386  0.0035427 0.0000
130   -881.2469937182  -0.000012284112 0.00013574  0.00000383  0.0035438 0.0000
131   -881.2470059666  -0.000012248395 0.00013394  0.00000381  0.0035449 0.0000
132   -881.2470181844  -0.000012217812 0.00013219  0.00000378  0.0035459 0.0000
133   -881.2470303767  -0.000012192304 0.00013049  0.00000376  0.0035469 0.0000
134   -881.2470425485  -0.000012171808 0.00012884  0.00000373  0.0035478 0.0000
135   -881.2470547048  -0.000012156268 0.00012724  0.00000371  0.0035488 0.0000
136   -881.2470668504  -0.000012145627 0.00012569  0.00000369  0.0035497 0.0000
137   -881.2470789902  -0.000012139829 0.00012419  0.00000367  0.0035506 0.0000
138   -881.2470911290  -0.000012138827 0.00012272  0.00000366  0.0035514 0.0000
139   -881.2471032716  -0.000012142567 0.00012130  0.00000364  0.0035523 0.0000
140   -881.2471154226  -0.000012151007 0.00011992  0.00000362  0.0035531 0.0000
141   -881.2471275867  -0.000012164098 0.00011859  0.00000361  0.0035539 0.0000
142   -881.2471397685  -0.000012181803 0.00011729  0.00000360  0.0035547 0.0000
143   -881.2471519726  -0.000012204085 0.00011603  0.00000358  0.0035554 0.0000
144   -881.2471642035  -0.000012230910 0.00011480  0.00000357  0.0035561 0.0000
145   -881.2471764658  -0.000012262247 0.00011362  0.00000356  0.0035568 0.0000
146   -881.2471887638  -0.000012298065 0.00011246  0.00000355  0.0035575 0.0000
147   -881.2472011022  -0.000012338344 0.00011134  0.00000355  0.0035582 0.0000
148   -881.2472134852  -0.000012383061 0.00011026  0.00000354  0.0035588 0.0000
149   -881.2472259174  -0.000012432198 0.00010920  0.00000353  0.0035594 0.0000
150   -881.2472384032  -0.000012485742 0.00010818  0.00000353  0.0035600 0.0000
151   -881.2472509468  -0.000012543680 0.00010718  0.00000352  0.0035606 0.0000
152   -881.2472635528  -0.000012606007 0.00010622  0.00000352  0.0036079 0.0000
153   -881.2472762256  -0.000012672714 0.00010528  0.00000352  0.0036716 0.0000
154   -881.2472889694  -0.000012743803 0.00010437  0.00000351  0.0037358 0.0000
155   -881.2473017886  -0.000012819274 0.00010349  0.00000351  0.0038005 0.0000
156   -881.2473146878  -0.000012899130 0.00010263  0.00000351  0.0038656 0.0000
157   -881.2473276712  -0.000012983384 0.00010306  0.00000351  0.0039313 0.0000
158   -881.2473407432  -0.000013072043 0.00010386  0.00000351  0.0039974 0.0000
159   -881.2473539083  -0.000013165122 0.00010466  0.00000352  0.0040641 0.0000
160   -881.2473671710  -0.000013262637 0.00010548  0.00000352  0.0041312 0.0000
161   -881.2473805356  -0.000013364611 0.00010630  0.00000352  0.0041989 0.0000
162   -881.2473940066  -0.000013471064 0.00010713  0.00000353  0.0042671 0.0000
163   -881.2474075887  -0.000013582023 0.00010798  0.00000353  0.0043358 0.0000
164   -881.2474212862  -0.000013697518 0.00010883  0.00000354  0.0044051 0.0000
165   -881.2474351038  -0.000013817579 0.00010968  0.00000354  0.0044748 0.0000
166   -881.2474490460  -0.000013942243 0.00011055  0.00000355  0.0045452 0.0000
167   -881.2474631175  -0.000014071545 0.00011143  0.00000356  0.0046161 0.0000
168   -881.2474773231  -0.000014205529 0.00011232  0.00000357  0.0046875 0.0000
169   -881.2474916673  -0.000014344237 0.00011322  0.00000357  0.0047595 0.0000
170   -881.2475061550  -0.000014487706 0.00011413  0.00000358  0.0048321 0.0000
171   -881.2475207910  -0.000014636009 0.00011505  0.00000359  0.0049052 0.0000
172   -881.2475355802  -0.000014789157 0.00011598  0.00000361  0.0049789 0.0000
173   -881.2475505274  -0.000014947272 0.00011692  0.00000362  0.0050532 0.0000
174   -881.2475656377  -0.000015110296 0.00011787  0.00000363  0.0051281 0.0000
175   -881.2475809162  -0.000015278491 0.00011884  0.00000364  0.0052037 0.0000
176   -881.2475963678  -0.000015451553 0.00011981  0.00000365  0.0052798 0.0000
177   -881.2476119980  -0.000015630240 0.00012080  0.00000367  0.0053565 0.0000
178   -881.2476278113  -0.000015813297 0.00012180  0.00000368  0.0054339 0.0000
179   -881.2476438147  -0.000016003355 0.00012280  0.00000370  0.0055119 0.0000
180   -881.2476600101  -0.000016195466 0.00012385  0.00000371  0.0055905 0.0000
181   -881.2476764098  -0.000016399693 0.00012482  0.00000373  0.0056698 0.0000
182   -881.2476930059  -0.000016596035 0.00012601  0.00000375  0.0057497 0.0000
183   -881.2477098313  -0.000016825399 0.00012678  0.00000376  0.0058304 0.0000
184   -881.2477268352  -0.000017003956 0.00012846  0.00000379  0.0059115 0.0000
185   -881.2477441414  -0.000017306169 0.00012827  0.00000377  0.0059937 0.0000
186   -881.2477615073  -0.000017365908 0.00013207  0.00000387  0.0060758 0.0000
187   -881.2477794675  -0.000017960202 0.00012737  0.00000372  0.0061603 0.0000
188   -881.2477968914  -0.000017423862 0.00014105  0.00000410  0.0062418 0.0000
189   -881.2478162497  -0.000019358338 0.00011465  0.00000334  0.0063320 0.0000
190   -881.2478321391  -0.000015889369 0.00017594  0.00000507  0.0064053 0.0000
191   -881.2478564656  -0.000024326569 0.00004098  0.00000123  0.0065178 0.0000
192   -881.2478624643  -0.000005998660 0.00033133  0.00000945  0.0065440 0.0000
193   -881.2479085794  -0.000046115090 0.00035965  0.00001008  0.0067559 0.0000
194   -881.2478597486   0.000048830834 0.00036292  0.00001040  0.0065258 0.0000
195   -881.2479104837  -0.000050735112 0.00036065  0.00001014  0.0067579 0.0000
196   -881.2479609132  -0.000050429509 0.00063678  0.00001774  0.0069885 0.0000
197   -881.2478737970   0.000087116154 0.00008575  0.00000286  0.0065811 0.0000
198   -881.2478877937  -0.000013996672 0.00017957  0.00000468  0.0066359 0.0000
199   -881.2478666004   0.000021193320 0.00008633  0.00000206  0.0065209 0.0000
200   -881.2478715102  -0.000004909838 0.00042141  0.00001073  0.0065139 0.0000
201   -881.2478266942   0.000044816053 0.00086487  0.00002444  0.0062438 0.0000
202   -881.2479438623  -0.000117168152 0.00059862  0.00001981  0.0067973 0.0000
203   -881.2478468463   0.000097016054 0.00030312  0.00000905  0.0064149 0.0000
204   -881.2478038763   0.000042969983 0.00061281  0.00001838  0.0062209 0.0000
205   -881.2477191979   0.000084678356 0.00168544  0.00005093  0.0058286 0.0000
206   -881.2475028321   0.000216365851 0.00379784  0.00011384  0.0047483 0.0000
207   -881.2471202031   0.000382628954 0.00278166  0.00007835  0.0035522 0.0000
208   -881.2469569911   0.000163211992 0.00057613  0.00001460  0.0035416 0.0000
209   -881.2469507113   0.000006279836 0.00014966  0.00000486  0.0035433 0.0000
210   -881.2469606984  -0.000009987113 0.00016516  0.00000407  0.0035460 0.0000
211   -881.2469720348  -0.000011336440 0.00023789  0.00000628  0.0035483 0.0000
212   -881.2469886757  -0.000016640879 0.00046580  0.00001115  0.0035512 0.0000
213   -881.2470208641  -0.000032188351 0.00039242  0.00000937  0.0035566 0.0000
214   -881.2470480472  -0.000027183095 0.00033785  0.00000807  0.0035605 0.0000
215   -881.2470714713  -0.000023424091 0.00031915  0.00000762  0.0035637 0.0000
216   -881.2470936217  -0.000022150461 0.00033024  0.00000789  0.0035665 0.0000
217   -881.2471165714  -0.000022949651 0.00034323  0.00000820  0.0035693 0.0000
218   -881.2471404346  -0.000023863200 0.00034537  0.00000825  0.0035721 0.0000
219   -881.2471644663  -0.000024031769 0.00034174  0.00000817  0.0035748 0.0000
220   -881.2471882674  -0.000023801060 0.00033936  0.00000811  0.0035774 0.0000
221   -881.2472119251  -0.000023657685 0.00034013  0.00000813  0.0035798 0.0000
222   -881.2472356590  -0.000023733933 0.00034172  0.00000817  0.0035822 0.0000
223   -881.2472595258  -0.000023866812 0.00034272  0.00000820  0.0035845 0.0000
224   -881.2472834862  -0.000023960379 0.00034294  0.00000821  0.0035867 0.0000
225   -881.2473074862  -0.000023999959 0.00034290  0.00000821  0.0035888 0.0000
226   -881.2473315083  -0.000024022110 0.00034291  0.00000822  0.0035908 0.0000
227   -881.2473555574  -0.000024049151 0.00034287  0.00000822  0.0035928 0.0000
228   -881.2473796311  -0.000024073710 0.00034260  0.00000822  0.0035947 0.0000
229   -881.2474037147  -0.000024083554 0.00034201  0.00000821  0.0035964 0.0000
230   -881.2474277863  -0.000024071632 0.00034107  0.00000820  0.0035981 0.0000
231   -881.2474518235  -0.000024037137 0.00033979  0.00000818  0.0035997 0.0000
232   -881.2474758038  -0.000023980369 0.00033815  0.00000814  0.0036013 0.0000
233   -881.2474997036  -0.000023899745 0.00033610  0.00000810  0.0036027 0.0000
234   -881.2475234962  -0.000023792665 0.00033363  0.00000805  0.0036040 0.0000
235   -881.2475471531  -0.000023656851 0.00033070  0.00000799  0.0036053 0.0000
236   -881.2475706441  -0.000023491045 0.00032731  0.00000792  0.0036065 0.0000
237   -881.2475939390  -0.000023294883 0.00032348  0.00000784  0.0036075 0.0000
238   -881.2476170077  -0.000023068639 0.00031920  0.00000775  0.0036085 0.0000
239   -881.2476398208  -0.000022813181 0.00031450  0.00000765  0.0036094 0.0000
240   -881.2476623509  -0.000022530084 0.00030942  0.00000754  0.0036102 0.0000
241   -881.2476845726  -0.000022221651 0.00030400  0.00000742  0.0036110 0.0000
242   -881.2477064634  -0.000021890873 0.00029829  0.00000730  0.0036116 0.0000
243   -881.2477280047  -0.000021541224 0.00029235  0.00000717  0.0036122 0.0000
244   -881.2477491812  -0.000021176492 0.00028623  0.00000703  0.0036127 0.0000
245   -881.2477699817  -0.000020800565 0.00027999  0.00000690  0.0036131 0.0000
246   -881.2477903990  -0.000020417286 0.00027368  0.00000676  0.0036134 0.0000
247   -881.2478104293  -0.000020030308 0.00026735  0.00000662  0.0036137 0.0000
248   -881.2478300723  -0.000019642974 0.00026104  0.00000648  0.0036139 0.0000
249   -881.2478493306  -0.000019258253 0.00025479  0.00000635  0.0036141 0.0000
250   -881.2478682093  -0.000018878700 0.00024864  0.00000622  0.0036142 0.0000
251   -881.2478867157  -0.000018506460 0.00024259  0.00000609  0.0036142 0.0000
252   -881.2479048590  -0.000018143281 0.00023668  0.00000596  0.0036142 0.0000
253   -881.2479226495  -0.000017790549 0.00023092  0.00000583  0.0036141 0.0000
254   -881.2479400989  -0.000017449328 0.00022533  0.00000572  0.0036140 0.0000
255   -881.2479572193  -0.000017120395 0.00021990  0.00000560  0.0036139 0.0000
256   -881.2479740236  -0.000016804287 0.00021464  0.00000549  0.0036137 0.0000
257   -881.2479905249  -0.000016501340 0.00020956  0.00000538  0.0036135 0.0000
258   -881.2480067366  -0.000016211721 0.00020466  0.00000528  0.0036132 0.0000
259   -881.2480226721  -0.000015935464 0.00019993  0.00000518  0.0036129 0.0000
260   -881.2480383446  -0.000015672492 0.00019537  0.00000509  0.0036126 0.0000
261   -881.2480537672  -0.000015422643 0.00019098  0.00000500  0.0036123 0.0000
262   -881.2480689529  -0.000015185694 0.00018676  0.00000491  0.0036119 0.0000
263   -881.2480839143  -0.000014961370 0.00018269  0.00000483  0.0036115 0.0000
264   -881.2480986636  -0.000014749356 0.00017879  0.00000475  0.0036111 0.0000
265   -881.2481132130  -0.000014549327 0.00017503  0.00000468  0.0036107 0.0000
266   -881.2481275739  -0.000014360926 0.00017141  0.00000461  0.0036102 0.0000
267   -881.2481417577  -0.000014183798 0.00016794  0.00000454  0.0036097 0.0000
268   -881.2481557753  -0.000014017587 0.00016460  0.00000447  0.0036093 0.0000
269   -881.2481696372  -0.000013861928 0.00016138  0.00000441  0.0036087 0.0000
270   -881.2481833537  -0.000013716475 0.00015829  0.00000436  0.0036082 0.0000
271   -881.2481969346  -0.000013580883 0.00015532  0.00000430  0.0036077 0.0000
272   -881.2482103894  -0.000013454813 0.00015246  0.00000425  0.0036071 0.0000
273   -881.2482237273  -0.000013337951 0.00014971  0.00000420  0.0036065 0.0000
274   -881.2482369573  -0.000013229985 0.00014706  0.00000415  0.0036060 0.0000
275   -881.2482500879  -0.000013130612 0.00014451  0.00000411  0.0036054 0.0000
276   -881.2482631275  -0.000013039559 0.00014206  0.00000406  0.0036048 0.0000
277   -881.2482760840  -0.000012956551 0.00013969  0.00000402  0.0036041 0.0000
278   -881.2482889654  -0.000012881336 0.00013741  0.00000399  0.0036035 0.0000
279   -881.2483017790  -0.000012813670 0.00013522  0.00000395  0.0036029 0.0000
280   -881.2483145324  -0.000012753325 0.00013310  0.00000392  0.0036022 0.0000
281   -881.2483272324  -0.000012700086 0.00013107  0.00000389  0.0036016 0.0000
282   -881.2483398862  -0.000012653756 0.00012910  0.00000386  0.0036009 0.0000
283   -881.2483525003  -0.000012614133 0.00012720  0.00000383  0.0036002 0.0000
284   -881.2483650814  -0.000012581051 0.00012537  0.00000380  0.0035995 0.0000
285   -881.2483776357  -0.000012554334 0.00012361  0.00000378  0.0035988 0.0000
286   -881.2483901695  -0.000012533830 0.00012190  0.00000375  0.0035981 0.0000
287   -881.2484026889  -0.000012519394 0.00012025  0.00000373  0.0035974 0.0000
288   -881.2484151998  -0.000012510891 0.00011866  0.00000371  0.0035967 0.0000
289   -881.2484277080  -0.000012508194 0.00011713  0.00000369  0.0035960 0.0000
290   -881.2484402192  -0.000012511183 0.00011564  0.00000368  0.0035952 0.0000
291   -881.2484527390  -0.000012519758 0.00011421  0.00000366  0.0035945 0.0000
292   -881.2484652728  -0.000012533815 0.00011282  0.00000365  0.0035938 0.0000
293   -881.2484778260  -0.000012553263 0.00011148  0.00000363  0.0035930 0.0000
294   -881.2484904041  -0.000012578021 0.00011019  0.00000362  0.0035922 0.0000
295   -881.2485030121  -0.000012608012 0.00010893  0.00000361  0.0035915 0.0000
296   -881.2485156552  -0.000012643167 0.00010772  0.00000360  0.0035907 0.0000
297   -881.2485283387  -0.000012683424 0.00010654  0.00000359  0.0035899 0.0000
298   -881.2485410674  -0.000012728728 0.00010541  0.00000358  0.0035891 0.0000
299   -881.2485538464  -0.000012779031 0.00010431  0.00000358  0.0036069 0.0000
300   -881.2485666807  -0.000012834288 0.00010324  0.00000357  0.0036716 0.0000
301   -881.2485795752  -0.000012894462 0.00010287  0.00000357  0.0037366 0.0000
302   -881.2485925347  -0.000012959520 0.00010359  0.00000356  0.0038022 0.0000
303   -881.2486055641  -0.000013029443 0.00010432  0.00000356  0.0038681 0.0000
304   -881.2486186683  -0.000013104197 0.00010506  0.00000356  0.0039346 0.0000
305   -881.2486318521  -0.000013183777 0.00010581  0.00000356  0.0040015 0.0000
306   -881.2486451203  -0.000013268166 0.00010656  0.00000356  0.0040689 0.0000
307   -881.2486584776  -0.000013357358 0.00010733  0.00000356  0.0041367 0.0000
308   -881.2486719290  -0.000013451352 0.00010811  0.00000356  0.0042051 0.0000
309   -881.2486854791  -0.000013550150 0.00010889  0.00000356  0.0042739 0.0000
310   -881.2486991329  -0.000013653756 0.00010969  0.00000356  0.0043432 0.0000
311   -881.2487128951  -0.000013762183 0.00011049  0.00000357  0.0044131 0.0000
312   -881.2487267705  -0.000013875442 0.00011131  0.00000357  0.0044834 0.0000
313   -881.2487407641  -0.000013993557 0.00011214  0.00000358  0.0045543 0.0000
314   -881.2487548806  -0.000014116543 0.00011298  0.00000358  0.0046256 0.0000
315   -881.2487691251  -0.000014244439 0.00011382  0.00000359  0.0046976 0.0000
316   -881.2487835023  -0.000014377251 0.00011468  0.00000360  0.0047700 0.0000
317   -881.2487980174  -0.000014515048 0.00011555  0.00000361  0.0048430 0.0000
318   -881.2488126752  -0.000014657810 0.00011644  0.00000362  0.0049165 0.0000
319   -881.2488274808  -0.000014805678 0.00011733  0.00000363  0.0049906 0.0000
320   -881.2488424394  -0.000014958517 0.00011824  0.00000364  0.0050653 0.0000
321   -881.2488575561  -0.000015116689 0.00011915  0.00000365  0.0051405 0.0000
322   -881.2488728357  -0.000015279679 0.00012008  0.00000366  0.0052163 0.0000
323   -881.2488882843  -0.000015448568 0.00012102  0.00000367  0.0052927 0.0000
324   -881.2489039058  -0.000015621528 0.00012198  0.00000368  0.0053697 0.0000
325   -881.2489197080  -0.000015802136 0.00012293  0.00000370  0.0054473 0.0000
326   -881.2489356918  -0.000015983790 0.00012395  0.00000371  0.0055255 0.0000
327   -881.2489518711  -0.000016179368 0.00012485  0.00000372  0.0056043 0.0000
328   -881.2489682351  -0.000016363980 0.00012603  0.00000374  0.0056837 0.0000
329   -881.2489848221  -0.000016586956 0.00012670  0.00000375  0.0057639 0.0000
330   -881.2490015720  -0.000016749964 0.00012842  0.00000379  0.0058445 0.0000
331   -881.2490186241  -0.000017052051 0.00012805  0.00000376  0.0059261 0.0000
332   -881.2490357104  -0.000017086287 0.00013203  0.00000387  0.0060076 0.0000
333   -881.2490534050  -0.000017694622 0.00012697  0.00000371  0.0060915 0.0000
334   -881.2490705212  -0.000017116196 0.00014101  0.00000410  0.0061722 0.0000
335   -881.2490895920  -0.000019070828 0.00011429  0.00000332  0.0062619 0.0000
336   -881.2491052002  -0.000015608233 0.00017488  0.00000504  0.0063345 0.0000
337   -881.2491290292  -0.000023828935 0.00004421  0.00000132  0.0064457 0.0000
338   -881.2491353717  -0.000006342543 0.00032068  0.00000914  0.0064738 0.0000
339   -881.2491793596  -0.000043987849 0.00032222  0.00000902  0.0066776 0.0000
340   -881.2491362438   0.000043115786 0.00037667  0.00001076  0.0064727 0.0000
341   -881.2491881132  -0.000051869449 0.00026324  0.00000738  0.0067122 0.0000
342   -881.2492243105  -0.000036197293 0.00033222  0.00000919  0.0068795 0.0000
343   -881.2491796093   0.000044701201 0.00034087  0.00000972  0.0066682 0.0000
344   -881.2492274222  -0.000047812861 0.00009895  0.00000268  0.0068849 0.0000
345   -881.2492405212  -0.000013098980 0.00042804  0.00001214  0.0069478 0.0000
346   -881.2493020398  -0.000061518642 0.00083046  0.00002314  0.0072198 0.0000
347   -881.2491869928   0.000115046994 0.00040172  0.00001082  0.0066918 0.0000
348   -881.2491364434   0.000050549445 0.00072696  0.00001928  0.0064362 0.0000
349   -881.2490515160   0.000084927334 0.00245350  0.00006528  0.0059736 0.0000
350   -881.2487994104   0.000252105615 0.00450156  0.00011804  0.0044107 0.0000
351   -881.2484999051   0.000299505361 0.00180558  0.00004544  0.0035867 0.0000
352   -881.2484605112   0.000039393811 0.00032776  0.00000962  0.0035922 0.0000
353   -881.2484725576  -0.000012046332 0.00017742  0.00000503  0.0035927 0.0000
354   -881.2484849227  -0.000012365147 0.00017422  0.00000438  0.0035925 0.0000
355   -881.2484972624  -0.000012339695 0.00020387  0.00000675  0.0035919 0.0000
356   -881.2485122505  -0.000014988067 0.00050154  0.00001243  0.0035907 0.0000
357   -881.2485479193  -0.000035668829 0.00052055  0.00001291  0.0035883 0.0000
358   -881.2485850367  -0.000037117360 0.00057205  0.00001420  0.0035851 0.0000
359   -881.2486258599  -0.000040823184 0.00065538  0.00001627  0.0035812 0.0000
360   -881.2486726356  -0.000046775744 0.00077451  0.00001924  0.0035763 0.0000
361   -881.2487278932  -0.000055257595 0.00084801  0.00002110  0.0035700 0.0000
362   -881.2487884456  -0.000060552436 0.00093249  0.00002326  0.0035624 0.0000
363   -881.2488550930  -0.000066647326 0.00099928  0.00002500  0.0035533 0.0000
364   -881.2489266269  -0.000071533954 0.00100557  0.00002526  0.0035426 0.0000
365   -881.2489988251  -0.000072198211 0.00090248  0.00002281  0.0035311 0.0000
366   -881.2490639871  -0.000065161995 0.00068513  0.00001750  0.0035201 0.0000
367   -881.2491139591  -0.000049971985 0.00042320  0.00001101  0.0035113 0.0000
368   -881.2491453783  -0.000031419219 0.00024280  0.00000649  0.0035058 0.0000
369   -881.2491638313  -0.000018452947 0.00020000  0.00000537  0.0035026 0.0000
370   -881.2491791100  -0.000015278776 0.00023487  0.00000623  0.0034998 0.0000
371   -881.2491969135  -0.000017803416 0.00026546  0.00000703  0.0034964 0.0000
372   -881.2492170538  -0.000020140356 0.00026020  0.00000694  0.0034926 0.0000
373   -881.2492369553  -0.000019901446 0.00023135  0.00000623  0.0034887 0.0000
374   -881.2492548460  -0.000017890775 0.00020671  0.00000562  0.0034852 0.0000
375   -881.2492709863  -0.000016140295 0.00019984  0.00000545  0.0034820 0.0000
376   -881.2492866877  -0.000015701322 0.00020150  0.00000552  0.0034789 0.0000
377   -881.2493026081  -0.000015920407 0.00019841  0.00000546  0.0034757 0.0000
378   -881.2493184031  -0.000015795022 0.00018833  0.00000522  0.0034726 0.0000
379   -881.2493335368  -0.000015133698 0.00017822  0.00000498  0.0034695 0.0000
380   -881.2493479960  -0.000014459249 0.00017306  0.00000486  0.0034665 0.0000
381   -881.2493621597  -0.000014163710 0.00017052  0.00000482  0.0034637 0.0000
382   -881.2493762328  -0.000014073010 0.00016644  0.00000473  0.0034608 0.0000
383   -881.2493900940  -0.000013861237 0.00016053  0.00000460  0.0034579 0.0000
384   -881.2494035971  -0.000013503110 0.00015535  0.00000448  0.0034552 0.0000
385   -881.2494167985  -0.000013201398 0.00015193  0.00000441  0.0034524 0.0000
386   -881.2494298400  -0.000013041532 0.00014891  0.00000436  0.0034498 0.0000
387   -881.2494427519  -0.000012911905 0.00014520  0.00000428  0.0034471 0.0000
388   -881.2494554746  -0.000012722650 0.00014134  0.00000420  0.0034445 0.0000
389   -881.2494679953  -0.000012520751 0.00013816  0.00000413  0.0034419 0.0000
390   -881.2494803721  -0.000012376731 0.00013548  0.00000408  0.0034394 0.0000
391   -881.2494926451  -0.000012273064 0.00013268  0.00000403  0.0034368 0.0000
392   -881.2495048023  -0.000012157182 0.00012978  0.00000397  0.0034344 0.0000
393   -881.2495168331  -0.000012030766 0.00012714  0.00000392  0.0034319 0.0000
394   -881.2495287612  -0.000011928074 0.00012480  0.00000388  0.0034295 0.0000
395   -881.2495406131  -0.000011851948 0.00012251  0.00000384  0.0034271 0.0000
396   -881.2495523913  -0.000011778176 0.00012020  0.00000380  0.0034247 0.0000
397   -881.2495640928  -0.000011701474 0.00011803  0.00000376  0.0034223 0.0000
398   -881.2495757303  -0.000011637540 0.00011604  0.00000372  0.0034200 0.0000
399   -881.2495873205  -0.000011590201 0.00011411  0.00000369  0.0034177 0.0000
400   -881.2495988687  -0.000011548245 0.00011221  0.00000366  0.0034154 0.0000
401   -881.2496103763  -0.000011507567 0.00011041  0.00000363  0.0034132 0.0000
402   -881.2496218520  -0.000011475654 0.00010871  0.00000361  0.0034109 0.0000
403   -881.2496333071  -0.000011455096 0.00010708  0.00000358  0.0034087 0.0000
404   -881.2496447471  -0.000011440035 0.00010548  0.00000356  0.0034065 0.0000
405   -881.2496561753  -0.000011428186 0.00010396  0.00000354  0.0034043 0.0000
406   -881.2496675985  -0.000011423179 0.00010251  0.00000352  0.0034021 0.0000
407   -881.2496790251  -0.000011426674 0.00010111  0.00000351  0.0033999 0.0000
408   -881.2496904605  -0.000011435378 0.00009975  0.00000349  0.0033978 0.0000
409   -881.2497019086  -0.000011448056 0.00009845  0.00000347  0.0033956 0.0000
410   -881.2497133752  -0.000011466599 0.00009720  0.00000346  0.0033935 0.0000
411   -881.2497248670  -0.000011491858 0.00009654  0.00000345  0.0033914 0.0000
412   -881.2497363892  -0.000011522168 0.00009711  0.00000344  0.0033941 0.0000
413   -881.2497479458  -0.000011556623 0.00009769  0.00000343  0.0034558 0.0000
414   -881.2497595423  -0.000011596515 0.00009829  0.00000342  0.0035179 0.0000
415   -881.2497711842  -0.000011641898 0.00009889  0.00000341  0.0035804 0.0000
416   -881.2497828766  -0.000011692350 0.00009950  0.00000341  0.0036432 0.0000
417   -881.2497946234  -0.000011746822 0.00010013  0.00000340  0.0037065 0.0000
418   -881.2498064300  -0.000011806644 0.00010076  0.00000340  0.0037701 0.0000
419   -881.2498183011  -0.000011871074 0.00010141  0.00000340  0.0038342 0.0000
420   -881.2498302419  -0.000011940750 0.00010207  0.00000339  0.0038987 0.0000
421   -881.2498422560  -0.000012014141 0.00010274  0.00000339  0.0039635 0.0000
422   -881.2498543491  -0.000012093118 0.00010342  0.00000339  0.0040288 0.0000
423   -881.2498665250  -0.000012175849 0.00010411  0.00000339  0.0040946 0.0000
424   -881.2498787894  -0.000012264469 0.00010481  0.00000339  0.0041607 0.0000
425   -881.2498911453  -0.000012355866 0.00010553  0.00000340  0.0042274 0.0000
426   -881.2499035995  -0.000012454189 0.00010624  0.00000340  0.0042944 0.0000
427   -881.2499161535  -0.000012554001 0.00010700  0.00000340  0.0043620 0.0000
428   -881.2499288165  -0.000012663008 0.00010771  0.00000341  0.0044300 0.0000
429   -881.2499415861  -0.000012769623 0.00010853  0.00000341  0.0044984 0.0000
430   -881.2499544778  -0.000012891666 0.00010921  0.00000342  0.0045674 0.0000
431   -881.2499674789  -0.000013001120 0.00011014  0.00000343  0.0046368 0.0000
432   -881.2499806225  -0.000013143606 0.00011068  0.00000343  0.0047068 0.0000
433   -881.2499938654  -0.000013242917 0.00011193  0.00000345  0.0047772 0.0000
434   -881.2500072947  -0.000013429305 0.00011196  0.00000344  0.0048483 0.0000
435   -881.2500207706  -0.000013475819 0.00011421  0.00000349  0.0049195 0.0000
436   -881.2500345564  -0.000013785793 0.00011247  0.00000342  0.0049920 0.0000
437   -881.2500481861  -0.000013629745 0.00011810  0.00000357  0.0050635 0.0000
438   -881.2500625352  -0.000014349096 0.00010999  0.00000332  0.0051386 0.0000
439   -881.2500759726  -0.000013437411 0.00012795  0.00000384  0.0052085 0.0000
440   -881.2500916176  -0.000015644975 0.00009565  0.00000287  0.0052898 0.0000
441   -881.2501034425  -0.000011824956 0.00016090  0.00000477  0.0053506 0.0000
442   -881.2501232116  -0.000019769068 0.00003195  0.00000100  0.0054528 0.0000
443   -881.2501274222  -0.000004210569 0.00028088  0.00000823  0.0054731 0.0000
444   -881.2501620870  -0.000034664871 0.00024299  0.00000697  0.0056516 0.0000
445   -881.2501329177   0.000029169336 0.00033141  0.00000970  0.0054971 0.0000
446   -881.2501739452  -0.000041027469 0.00015421  0.00000444  0.0057077 0.0000
447   -881.2501930097  -0.000019064508 0.00006352  0.00000173  0.0058057 0.0000
448   -881.2501857289   0.000007280769 0.00034654  0.00001003  0.0057654 0.0000
449   -881.2502294011  -0.000043672145 0.00051526  0.00001472  0.0059856 0.0000
450   -881.2501659485   0.000063452591 0.00039946  0.00001167  0.0056581 0.0000
451   -881.2502163505  -0.000050402012 0.00021949  0.00000634  0.0059119 0.0000
452   -881.2502442712  -0.000027920729 0.00010057  0.00000296  0.0060514 0.0000
453   -881.2502311068   0.000013164379 0.00023860  0.00000693  0.0059875 0.0000
454   -881.2502619894  -0.000030882600 0.00026079  0.00000739  0.0061391 0.0000
455   -881.2502293535   0.000032635940 0.00065996  0.00001890  0.0059734 0.0000
456   -881.2503143811  -0.000085027645 0.00079360  0.00002247  0.0063927 0.0000
457   -881.2502141781   0.000100203023 0.00036401  0.00000998  0.0058883 0.0000
458   -881.2501722946   0.000041883534 0.00089998  0.00002444  0.0056569 0.0000
459   -881.2500757187   0.000096575927 0.00259516  0.00007011  0.0050847 0.0000
460   -881.2498425297   0.000233188946 0.00369446  0.00009778  0.0034338 0.0000
461   -881.2496355667   0.000206963020 0.00111682  0.00002814  0.0033902 0.0000
462   -881.2496201799   0.000015386827 0.00024048  0.00000744  0.0033947 0.0000
463   -881.2496302610  -0.000010081151 0.00015908  0.00000461  0.0033928 0.0000
464   -881.2496411325  -0.000010871541 0.00016395  0.00000432  0.0033904 0.0000
465   -881.2496525518  -0.000011419285 0.00049545  0.00001357  0.0033876 0.0000
466   -881.2496868075  -0.000034255635 0.00069639  0.00001838  0.0033789 0.0000
467   -881.2497352193  -0.000048411832 0.00110115  0.00002904  0.0033656 0.0000
468   -881.2498116743  -0.000076455047 0.00197606  0.00005222  0.0033432 0.0000
469   -881.2499483870  -0.000136712612 0.00356392  0.00009440  0.0032995 0.0000
470   -881.2501932013  -0.000244814301 0.00426372  0.00011349  0.0032103 0.0000
471   -881.2504835490  -0.000290347753 0.00166283  0.00004530  0.0030888 0.0000
472   -881.2505989577  -0.000115408709 0.00027933  0.00000709  0.0030413 0.0000
473   -881.2505839477   0.000015010010 0.00012946  0.00000336  0.0030540 0.0000
474   -881.2505923183  -0.000008370625 0.00018630  0.00000490  0.0030496 0.0000
475   -881.2506046513  -0.000012332950 0.00010769  0.00000387  0.0030435 0.0000
476   -881.2506135738  -0.000008922511 0.00025628  0.00000788  0.0030423 0.0000
477   -881.2506339597  -0.000020385913 0.00006382  0.00000248  0.0030351 0.0000
478   -881.2506400908  -0.000006131076 0.00006608  0.00000204  0.0030337 0.0000
479   -881.2506454033  -0.000005312509 0.00013552  0.00000424  0.0030317 0.0000
480   -881.2506564895  -0.000011086207 0.00015037  0.00000511  0.0030277 0.0000
481   -881.2506697502  -0.000013260731 0.00011600  0.00000387  0.0030235 0.0000
482   -881.2506799056  -0.000010155369 0.00007448  0.00000257  0.0030201 0.0000
483   -881.2506866496  -0.000006743987 0.00009681  0.00000325  0.0030179 0.0000
484   -881.2506952394  -0.000008589838 0.00012487  0.00000422  0.0030149 0.0000
485   -881.2507064477  -0.000011208320 0.00011126  0.00000387  0.0030112 0.0000
486   -881.2507167410  -0.000010293288 0.00008204  0.00000287  0.0030078 0.0000
487   -881.2507244166  -0.000007675590 0.00009040  0.00000319  0.0030053 0.0000
488   -881.2507329809  -0.000008564248 0.00010016  0.00000353  0.0030025 0.0000
489   -881.2507425224  -0.000009541519 0.00010180  0.00000362  0.0029994 0.0000
490   -881.2507523561  -0.000009833745 0.00008514  0.00000308  0.0029962 0.0000
491   -881.2507607498  -0.000008393680 0.00008323  0.00000303  0.0029935 0.0000
492   -881.2507690692  -0.000008319409 0.00009201  0.00000338  0.0029909 0.0000
493   -881.2507783796  -0.000009310327 0.00008763  0.00000323  0.0029880 0.0000
494   -881.2507873435  -0.000008963937 0.00008602  0.00000321  0.0029852 0.0000
495   -881.2507962854  -0.000008941886 0.00007762  0.00000293  0.0029825 0.0000
496   -881.2508044972  -0.000008211845 0.00008620  0.00000326  0.0029800 0.0000
497   -881.2508136757  -0.000009178512 0.00008236  0.00000309  0.0029773 0.0000
498   -881.2508224389  -0.000008763121 0.00008334  0.00000310  0.0029747 0.0000
499   -881.2508312698  -0.000008830979 0.00008230  0.00000302  0.0029721 0.0000
500   -881.2508399402  -0.000008670374 0.00008298  0.00000302  0.0029696 0.0000
501   -881.2508486357  -0.000008695515 0.00008822  0.00000318  0.0029672 0.0000
502   -881.2508578616  -0.000009225904 0.00007947  0.00000285  0.0030192 0.0000
503   -881.2508661730  -0.000008311336 0.00009117  0.00000323  0.0030702 0.0000
504   -881.2508756501  -0.000009477132 0.00007737  0.00000272  0.0031286 0.0000
505   -881.2508836982  -0.000008048077 0.00009698  0.00000337  0.0031782 0.0000
506   -881.2508937232  -0.000010025025 0.00007364  0.00000256  0.0032403 0.0000
507   -881.2509013844  -0.000007661235 0.00010164  0.00000347  0.0032875 0.0000
508   -881.2509118577  -0.000010473276 0.00007008  0.00000240  0.0033527 0.0000
509   -881.2509191433  -0.000007285570 0.00010874  0.00000366  0.0033976 0.0000
510   -881.2509303158  -0.000011172534 0.00006372  0.00000216  0.0034673 0.0000
511   -881.2509369653  -0.000006649457 0.00011843  0.00000392  0.0035081 0.0000
512   -881.2509491166  -0.000012151354 0.00005232  0.00000176  0.0035840 0.0000
513   -881.2509546238  -0.000005507183 0.00013689  0.00000447  0.0036176 0.0000
514   -881.2509686507  -0.000014026884 0.00002635  0.00000091  0.0037053 0.0000
515   -881.2509715560  -0.000002905349 0.00017473  0.00000562  0.0037222 0.0000
516   -881.2509894530  -0.000017897007 0.00003480  0.00000104  0.0038342 0.0000
517   -881.2509861997   0.000003253342 0.00021842  0.00000694  0.0038119 0.0000
518   -881.2510085696  -0.000022369945 0.00005401  0.00000163  0.0039519 0.0000
519   -881.2510033610   0.000005208690 0.00020954  0.00000660  0.0039173 0.0000
520   -881.2510248999  -0.000021538906 0.00000624  0.00000020  0.0040515 0.0000
                 **** Energy Check signals convergence ****

               *****************************************************
               *                     SUCCESS                       *
               *           SCF CONVERGED AFTER 521 CYCLES          *
               *****************************************************


----------------
TOTAL SCF ENERGY
----------------

Total Energy       :         -881.25102555 Eh          -23980.05953 eV

Components:
Nuclear Repulsion  :            0.00000000 Eh               0.00000 eV
Electronic Energy  :         -881.25102555 Eh          -23980.05953 eV
One Electron Energy:        -1564.45526303 Eh          -42570.99197 eV
Two Electron Energy:          683.20423748 Eh           18590.93245 eV

Virial components:
Potential Energy   :        -1383.70549692 Eh          -37652.54079 eV
Kinetic Energy     :          502.45447137 Eh           13672.48126 eV
Virial Ratio       :            2.75389229


---------------
SCF CONVERGENCE
---------------

  Last Energy change         ...   -6.4979e-07  Tolerance :   1.0000e-06
  Last MAX-Density change    ...    1.6344e-04  Tolerance :   1.0000e-05
  Last RMS-Density change    ...    5.1006e-06  Tolerance :   1.0000e-06
  Last DIIS Error            ...    4.0541e-03  Tolerance :   1.0000e-06

             **** THE GBW FILE WAS UPDATED (66_Dy_atom66.gbw) ****
             **** DENSITY FILE WAS UPDATED (66_Dy_atom66.scfp) ****
             **** ENERGY FILE WAS UPDATED (66_Dy_atom66.en.tmp) ****
             **** THE GBW FILE WAS UPDATED (66_Dy_atom66.gbw) ****
             **** DENSITY FILE WAS UPDATED (66_Dy_atom66.scfp) ****
----------------
ORBITAL ENERGIES
----------------

  NO   OCC          E(Eh)            E(eV) 
   0   2.0000     -16.630396      -452.5361 
   1   2.0000     -12.228140      -332.7446 
   2   2.0000     -12.200524      -331.9931 
   3   2.0000     -12.165796      -331.0481 
   4   2.0000      -6.721043      -182.8889 
   5   2.0000      -6.718742      -182.8263 
   6   2.0000      -6.676215      -181.6690 
   7   2.0000      -6.673616      -181.5983 
   8   2.0000      -6.670252      -181.5068 
   9   2.0000      -2.521647       -68.6175 
  10   2.0000      -1.548087       -42.1256 
  11   2.0000      -1.534859       -41.7656 
  12   2.0000      -1.520870       -41.3850 
  13   1.4286      -1.157027       -31.4843 
  14   1.4286      -1.123682       -30.5769 
  15   1.4286      -1.095721       -29.8161 
  16   1.4286      -1.079962       -29.3873 
  17   1.4286      -1.079422       -29.3726 
  18   1.4286      -1.075756       -29.2728 
  19   1.4286      -0.171482        -4.6663 
  20   2.0000      -0.368555       -10.0289 
  21   0.0000      -0.017613        -0.4793 
  22   0.0000      -0.016682        -0.4539 
  23   0.0000      -0.013580        -0.3695 
  24   0.0000      -0.008831        -0.2403 
  25   0.0000      -0.008212        -0.2235 
  26   0.0000      -0.002004        -0.0545 
  27   0.0000      -0.000496        -0.0135 
  28   0.0000       0.024996         0.6802 
  29   0.0000       0.069762         1.8983 
  30   0.0000       0.232313         6.3215 
  31   0.0000       0.235845         6.4177 
  32   0.0000       0.238993         6.5033 
  33   0.0000       0.537391        14.6232 
  34   0.0000       0.539331        14.6759 
  35   0.0000       0.539648        14.6846 
  36   0.0000       0.544945        14.8287 
  37   0.0000       0.545947        14.8560 
  38   0.0000       0.995141        27.0792 
  39   0.0000       1.247642        33.9501 
  40   0.0000       1.250239        34.0207 
  41   0.0000       1.252280        34.0763 
  42   0.0000       1.255502        34.1640 
  43   0.0000       1.263320        34.3767 
  44   0.0000       1.264300        34.4033 
  45   0.0000       1.310528        35.6613 
  46   0.0000       1.849467        50.3266 
  47   0.0000       2.106552        57.3222 
  48   0.0000       2.118416        57.6450 
  49   0.0000       2.131373        57.9976 
  50   0.0000       3.861507       105.0769 
  51   0.0000       3.866335       105.2083 
  52   0.0000       3.880325       105.5890 
  53   0.0000       3.889546       105.8399 
  54   0.0000       3.890160       105.8566 
  55   0.0000       4.652798       126.6091 
  56   0.0000       4.669706       127.0691 
  57   0.0000       4.681495       127.3900 
  58   0.0000       4.685246       127.4920 
  59   0.0000       4.688454       127.5793 
  60   0.0000       4.690888       127.6455 
  61   0.0000       4.741459       129.0217 
  62   0.0000       8.367482       227.6908 
  63   0.0000      32.764112       891.5568 
  64   0.0000      32.793267       892.3502 
  65   0.0000      32.830127       893.3532 
  66   0.0000      69.530501      1892.0211 
  67   0.0000     247.801246      6743.0147 
  68   0.0000     584.739745     15911.5774 
CleanUpVectors: The p-vectors have cracked symmetry
CleanUpVectors: The p-vectors have cracked symmetry
CleanUpVectors: The p-vectors have cracked symmetry
CleanUpVectors: The d-vectors have cracked symmetry at i=4
CleanUpVectors: The d-vectors have cracked symmetry at i=5
CleanUpVectors: The d-vectors have cracked symmetry at i=6
CleanUpVectors: The d-vectors have cracked symmetry at i=7
CleanUpVectors: The d-vectors have cracked symmetry at i=8
CleanUpVectors: The p-vectors have cracked symmetry
CleanUpVectors: The p-vectors have cracked symmetry
CleanUpVectors: The p-vectors have cracked symmetry
CleanUpVectors: The f-vectors have cracked symmetry
CleanUpVectors: The f-vectors have cracked symmetry
CleanUpVectors: The f-vectors have cracked symmetry
CleanUpVectors: The f-vectors have cracked symmetry
CleanUpVectors: The f-vectors have cracked symmetry
CleanUpVectors: The f-vectors have cracked symmetry
CleanUpVectors: The p-vectors have cracked symmetry
CleanUpVectors: The d-vectors have cracked symmetry at i=21
CleanUpVectors: The d-vectors have cracked symmetry at i=22
CleanUpVectors: The d-vectors have cracked symmetry at i=23
CleanUpVectors: The d-vectors have cracked symmetry at i=24
CleanUpVectors: The d-vectors have cracked symmetry at i=25
CleanUpVectors: The p-vectors have cracked symmetry
CleanUpVectors: The p-vectors have cracked symmetry
CleanUpVectors: The f-vectors have cracked symmetry
CleanUpVectors: The p-vectors have cracked symmetry
CleanUpVectors: The p-vectors have cracked symmetry
CleanUpVectors: The p-vectors have cracked symmetry
CleanUpVectors: The d-vectors have cracked symmetry at i=33
CleanUpVectors: The d-vectors have cracked symmetry at i=34
CleanUpVectors: The d-vectors have cracked symmetry at i=35
CleanUpVectors: The d-vectors have cracked symmetry at i=36
CleanUpVectors: The d-vectors have cracked symmetry at i=37
CleanUpVectors: The f-vectors have cracked symmetry
CleanUpVectors: The f-vectors have cracked symmetry
CleanUpVectors: The f-vectors have cracked symmetry
CleanUpVectors: The f-vectors have cracked symmetry
CleanUpVectors: The f-vectors have cracked symmetry
CleanUpVectors: The f-vectors have cracked symmetry
CleanUpVectors: The f-vectors have cracked symmetry
CleanUpVectors: The p-vectors have cracked symmetry
CleanUpVectors: The p-vectors have cracked symmetry
CleanUpVectors: The p-vectors have cracked symmetry
CleanUpVectors: The d-vectors have cracked symmetry at i=50
CleanUpVectors: The d-vectors have cracked symmetry at i=51
CleanUpVectors: The d-vectors have cracked symmetry at i=52
CleanUpVectors: The d-vectors have cracked symmetry at i=53
CleanUpVectors: The d-vectors have cracked symmetry at i=54
CleanUpVectors: The f-vectors have cracked symmetry
CleanUpVectors: The f-vectors have cracked symmetry
CleanUpVectors: The f-vectors have cracked symmetry
CleanUpVectors: The f-vectors have cracked symmetry
CleanUpVectors: The f-vectors have cracked symmetry
CleanUpVectors: The f-vectors have cracked symmetry
CleanUpVectors: The f-vectors have cracked symmetry
CleanUpVectors: The p-vectors have cracked symmetry
CleanUpVectors: The p-vectors have cracked symmetry
CleanUpVectors: The p-vectors have cracked symmetry
--------------------------
ATOM BASIS FOR ELEMENT Dy
--------------------------
 NewGTO Dy
 S 14
    1      78529.948071999999        -0.000143056584
    2      11854.699113999999        -0.001073027263
    3       2717.995025600000        -0.005017981911
    4        778.142682620000        -0.014895802100
    5        242.086885000000        -0.022374354716
    6         48.350673998000         0.111982055606
    7         31.843930831000        -0.561599097917
    8         16.873742242000         1.068051938359
    9          4.204614009500        -0.996062082310
   10          2.129115630700        -0.402325893636
   11          0.783887538400        -0.009886373732
   12          0.342452285300         0.005337733800
   13          0.059190583200        -0.012000141225
   14          0.023700815400         0.000084455378
 P 42
    1        376.967968590000         0.000081724059
    2         98.858655817000         0.000256304750
    3         26.884229461000         0.001539987651
    4         16.404088678000        -0.005208935017
    5          3.800875487800         0.005799912481
    6        376.967968590000         0.000744375439
    7         98.858655817000         0.002334526255
    8         26.884229461000         0.014026823914
    9         16.404088678000        -0.047445065056
   10          3.800875487800         0.052827924339
   11        376.967968590000        -0.005504237943
   12         98.858655817000        -0.017262509373
   13         26.884229461000        -0.103720478077
   14         16.404088678000         0.350829586241
   15          3.800875487800        -0.390632804825
   16         11.010202433000         0.002722874747
   17          5.442304578000         0.005643720021
   18          2.066076999000         0.004119200867
   19         11.010202433000         0.024578044175
   20          5.442304578000         0.050943070414
   21          2.066076999000         0.037181989729
   22         11.010202433000        -0.181881281260
   23          5.442304578000        -0.376986502761
   24          2.066076999000        -0.275152403644
   25          1.112909454300         0.000091471121
   26          1.112909454300         0.001776989675
   27          1.112909454300        -0.012541752291
   28          0.422345126600         0.000317336941
   29          0.422345126600         0.000656660090
   30          0.422345126600        -0.006289652632
   31          0.120076170800        -0.000307330029
   32          0.120076170800        -0.000047013668
   33          0.120076170800         0.002111773578
   34          0.032387495000        -0.000308850817
   35          0.032387495000         0.000237848712
   36          0.032387495000         0.000223362138
   37         86.149632622000         0.002379279561
   38         34.717048147000         0.005154625601
   39         16.899122478000         0.005557636989
   40          7.903646606600         0.004752932309
   41          3.413646504100         0.002482512226
   42         86.149632622000        -0.003123777356
 D 42
    1      78529.948071999999         0.000000000007
    2      11854.699113999999         0.000000000325
    3       2717.995025600000         0.000000006622
    4        778.142682620000         0.000000068664
    5        242.086885000000         0.000000331517
    6         48.350673998000         0.000000851758
    7         31.843930831000         0.000003834169
    8         16.873742242000        -0.000023793007
    9          4.204614009500         0.000152874669
   10          2.129115630700         0.000276339500
   11          0.783887538400        -0.001817932712
   12          0.342452285300        -0.001776158530
   13          0.059190583200         0.033990228788
   14          0.023700815400         0.000823600369
   15        408.907744050000         0.000536363116
   16        125.190303410000         0.004014637337
   17         46.688028092000         0.017996135413
   18         18.759769159000         0.034701852343
   19          7.782182736800         0.169927267680
   20          3.742499381500         0.242664863520
   21        408.907744050000        -0.000353337313
   22        125.190303410000        -0.002644703051
   23         46.688028092000        -0.011855226324
   24         18.759769159000        -0.022860369959
   25          7.782182736800        -0.111942157062
   26          3.742499381500        -0.159859148191
   27        408.907744050000         0.000860041849
   28        125.190303410000         0.006437348157
   29         46.688028092000         0.028856252607
   30         18.759769159000         0.055643358653
   31          7.782182736800         0.272473175411
   32          3.742499381500         0.389105685196
   33        408.907744050000        -0.000135616067
   34        125.190303410000        -0.001015075997
   35         46.688028092000        -0.004550210534
   36         18.759769159000        -0.008774146807
   37          7.782182736800        -0.042965049198
   38          3.742499381500        -0.061356296386
   39        408.907744050000         0.000125567419
   40        125.190303410000         0.000939862627
   41         46.688028092000         0.004213056795
   42         18.759769159000         0.008124015043
 S 14
    1      78529.948071999999         0.000299912414
    2      11854.699113999999         0.002249558794
    3       2717.995025600000         0.010519998634
    4        778.142682620000         0.031228454092
    5        242.086885000000         0.046906940924
    6         48.350673998000        -0.005293551538
    7         31.843930831000         0.202418759944
    8         16.873742242000        -0.491591566932
    9          4.204614009500         0.728503819731
   10          2.129115630700         0.387119886742
   11          0.783887538400        -0.810890283352
   12          0.342452285300        -0.446162045831
   13          0.059190583200        -0.191501632409
   14          0.023700815400        -0.002368884085
 S 14
    1      78529.948071999999         0.000289562378
    2      11854.699113999999         0.002171926079
    3       2717.995025600000         0.010156951421
    4        778.142682620000         0.030150754026
    5        242.086885000000         0.045288173206
    6         48.350673998000         0.023054490539
    7         31.843930831000         0.068336218974
    8         16.873742242000        -0.223168739672
    9          4.204614009500         0.370077160956
[...]
  BAS[ATNO][ 19].a[ 26] =       408.907744050000;     BAS[ATNO][ 19].d[ 26] =         0.000899367503;
  BAS[ATNO][ 19].a[ 27] =       125.190303410000;     BAS[ATNO][ 19].d[ 27] =         0.006731697703;
  BAS[ATNO][ 19].a[ 28] =        46.688028092000;     BAS[ATNO][ 19].d[ 28] =         0.030175712832;
  BAS[ATNO][ 19].a[ 29] =        18.759769159000;     BAS[ATNO][ 19].d[ 29] =         0.058187666798;
  BAS[ATNO][ 19].a[ 30] =         7.782182736800;     BAS[ATNO][ 19].d[ 30] =         0.284932087598;
  BAS[ATNO][ 19].a[ 31] =         3.742499381500;     BAS[ATNO][ 19].d[ 31] =         0.406897651529;
  BAS[ATNO][ 19].a[ 32] =       408.907744050000;     BAS[ATNO][ 19].d[ 32] =         0.000391435817;
  BAS[ATNO][ 19].a[ 33] =       125.190303410000;     BAS[ATNO][ 19].d[ 33] =         0.002929867471;
  BAS[ATNO][ 19].a[ 34] =        46.688028092000;     BAS[ATNO][ 19].d[ 34] =         0.013133513021;
  BAS[ATNO][ 19].a[ 35] =        18.759769159000;     BAS[ATNO][ 19].d[ 35] =         0.025325283408;
  BAS[ATNO][ 19].a[ 36] =         7.782182736800;     BAS[ATNO][ 19].d[ 36] =         0.124012291053;
  BAS[ATNO][ 19].a[ 37] =         3.742499381500;     BAS[ATNO][ 19].d[ 37] =         0.177095919296;
  BAS[ATNO][ 19].a[ 38] =       408.907744050000;     BAS[ATNO][ 19].d[ 38] =        -0.000597580127;
  BAS[ATNO][ 19].a[ 39] =       125.190303410000;     BAS[ATNO][ 19].d[ 39] =        -0.004472842027;
  BAS[ATNO][ 19].a[ 40] =        46.688028092000;     BAS[ATNO][ 19].d[ 40] =        -0.020050097691;
  BAS[ATNO][ 19].a[ 41] =        18.759769159000;     BAS[ATNO][ 19].d[ 41] =        -0.038662496895;

  // Basis function  21 L = f
  InitBFNGauss(BAS[ATNO][ 20]);
  BAS[ATNO][ 20].l  = 3;
  BAS[ATNO][ 20].ng = 42;
  BAS[ATNO][ 20].a[  0] =       376.967968590000;     BAS[ATNO][ 20].d[  0] =         0.000000008854;
  BAS[ATNO][ 20].a[  1] =        98.858655817000;     BAS[ATNO][ 20].d[  1] =         0.000000105886;
  BAS[ATNO][ 20].a[  2] =        26.884229461000;     BAS[ATNO][ 20].d[  2] =         0.000002339455;
  BAS[ATNO][ 20].a[  3] =        16.404088678000;     BAS[ATNO][ 20].d[  3] =        -0.000012968566;
  BAS[ATNO][ 20].a[  4] =         3.800875487800;     BAS[ATNO][ 20].d[  4] =         0.000062320785;
  BAS[ATNO][ 20].a[  5] =       376.967968590000;     BAS[ATNO][ 20].d[  5] =         0.000000014448;
  BAS[ATNO][ 20].a[  6] =        98.858655817000;     BAS[ATNO][ 20].d[  6] =         0.000000172786;
  BAS[ATNO][ 20].a[  7] =        26.884229461000;     BAS[ATNO][ 20].d[  7] =         0.000003817567;
  BAS[ATNO][ 20].a[  8] =        16.404088678000;     BAS[ATNO][ 20].d[  8] =        -0.000021162349;
  BAS[ATNO][ 20].a[  9] =         3.800875487800;     BAS[ATNO][ 20].d[  9] =         0.000101696226;
  BAS[ATNO][ 20].a[ 10] =       376.967968590000;     BAS[ATNO][ 20].d[ 10] =        -0.000000005161;
  BAS[ATNO][ 20].a[ 11] =        98.858655817000;     BAS[ATNO][ 20].d[ 11] =        -0.000000061722;
  BAS[ATNO][ 20].a[ 12] =        26.884229461000;     BAS[ATNO][ 20].d[ 12] =        -0.000001363696;
  BAS[ATNO][ 20].a[ 13] =        16.404088678000;     BAS[ATNO][ 20].d[ 13] =         0.000007559531;
  BAS[ATNO][ 20].a[ 14] =         3.800875487800;     BAS[ATNO][ 20].d[ 14] =        -0.000036327525;
  BAS[ATNO][ 20].a[ 15] =        11.010202433000;     BAS[ATNO][ 20].d[ 15] =         0.000011196308;
  BAS[ATNO][ 20].a[ 16] =         5.442304578000;     BAS[ATNO][ 20].d[ 16] =         0.000046948863;
  BAS[ATNO][ 20].a[ 17] =         2.066076999000;     BAS[ATNO][ 20].d[ 17] =         0.000090262827;
  BAS[ATNO][ 20].a[ 18] =        11.010202433000;     BAS[ATNO][ 20].d[ 18] =         0.000019294083;
  BAS[ATNO][ 20].a[ 19] =         5.442304578000;     BAS[ATNO][ 20].d[ 19] =         0.000080904821;
  BAS[ATNO][ 20].a[ 20] =         2.066076999000;     BAS[ATNO][ 20].d[ 20] =         0.000155545787;
  BAS[ATNO][ 20].a[ 21] =        11.010202433000;     BAS[ATNO][ 20].d[ 21] =        -0.000006500633;
  BAS[ATNO][ 20].a[ 22] =         5.442304578000;     BAS[ATNO][ 20].d[ 22] =        -0.000027258749;
  BAS[ATNO][ 20].a[ 23] =         2.066076999000;     BAS[ATNO][ 20].d[ 23] =        -0.000052407057;
  BAS[ATNO][ 20].a[ 24] =         1.112909454300;     BAS[ATNO][ 20].d[ 24] =        -0.000968025012;
  BAS[ATNO][ 20].a[ 25] =         1.112909454300;     BAS[ATNO][ 20].d[ 25] =        -0.001678245875;
  BAS[ATNO][ 20].a[ 26] =         1.112909454300;     BAS[ATNO][ 20].d[ 26] =         0.000560860761;
  BAS[ATNO][ 20].a[ 27] =         0.422345126600;     BAS[ATNO][ 20].d[ 27] =         0.001569434640;
  BAS[ATNO][ 20].a[ 28] =         0.422345126600;     BAS[ATNO][ 20].d[ 28] =         0.002693970549;
  BAS[ATNO][ 20].a[ 29] =         0.422345126600;     BAS[ATNO][ 20].d[ 29] =        -0.000888387387;
  BAS[ATNO][ 20].a[ 30] =         0.120076170800;     BAS[ATNO][ 20].d[ 30] =        -0.002311776466;
  BAS[ATNO][ 20].a[ 31] =         0.120076170800;     BAS[ATNO][ 20].d[ 31] =        -0.003486887729;
  BAS[ATNO][ 20].a[ 32] =         0.120076170800;     BAS[ATNO][ 20].d[ 32] =         0.001162260173;
  BAS[ATNO][ 20].a[ 33] =         0.032387495000;     BAS[ATNO][ 20].d[ 33] =         0.002962268930;
  BAS[ATNO][ 20].a[ 34] =         0.032387495000;     BAS[ATNO][ 20].d[ 34] =         0.004015866299;
  BAS[ATNO][ 20].a[ 35] =         0.032387495000;     BAS[ATNO][ 20].d[ 35] =        -0.001529708926;
  BAS[ATNO][ 20].a[ 36] =        86.149632622000;     BAS[ATNO][ 20].d[ 36] =         0.006229085573;
  BAS[ATNO][ 20].a[ 37] =        34.717048147000;     BAS[ATNO][ 20].d[ 37] =         0.033487797718;
  BAS[ATNO][ 20].a[ 38] =        16.899122478000;     BAS[ATNO][ 20].d[ 38] =         0.074175123109;
  BAS[ATNO][ 20].a[ 39] =         7.903646606600;     BAS[ATNO][ 20].d[ 39] =         0.135633312560;
  BAS[ATNO][ 20].a[ 40] =         3.413646504100;     BAS[ATNO][ 20].d[ 40] =         0.164023132881;
  BAS[ATNO][ 20].a[ 41] =        86.149632622000;     BAS[ATNO][ 20].d[ 41] =         0.002215962913;

  // Basis function  22 L = p
  InitBFNGauss(BAS[ATNO][ 21]);
  BAS[ATNO][ 21].l  = 1;
  BAS[ATNO][ 21].ng = 42;
  BAS[ATNO][ 21].a[  0] =       376.967968590000;     BAS[ATNO][ 21].d[  0] =         0.020692634249;
  BAS[ATNO][ 21].a[  1] =        98.858655817000;     BAS[ATNO][ 21].d[  1] =         0.064896684404;
  BAS[ATNO][ 21].a[  2] =        26.884229461000;     BAS[ATNO][ 21].d[  2] =         0.389926805350;
  BAS[ATNO][ 21].a[  3] =        16.404088678000;     BAS[ATNO][ 21].d[  3] =        -1.318908882047;
  BAS[ATNO][ 21].a[  4] =         3.800875487800;     BAS[ATNO][ 21].d[  4] =         1.468545117365;
  BAS[ATNO][ 21].a[  5] =       376.967968590000;     BAS[ATNO][ 21].d[  5] =        -0.013721322188;
  BAS[ATNO][ 21].a[  6] =        98.858655817000;     BAS[ATNO][ 21].d[  6] =        -0.043033105640;
  BAS[ATNO][ 21].a[  7] =        26.884229461000;     BAS[ATNO][ 21].d[  7] =        -0.258561150861;
  BAS[ATNO][ 21].a[  8] =        16.404088678000;     BAS[ATNO][ 21].d[  8] =         0.874570800835;
  BAS[ATNO][ 21].a[  9] =         3.800875487800;     BAS[ATNO][ 21].d[  9] =        -0.973794851820;
  BAS[ATNO][ 21].a[ 10] =       376.967968590000;     BAS[ATNO][ 21].d[ 10] =        -0.000898017271;
  BAS[ATNO][ 21].a[ 11] =        98.858655817000;     BAS[ATNO][ 21].d[ 11] =        -0.002816381071;
  BAS[ATNO][ 21].a[ 12] =        26.884229461000;     BAS[ATNO][ 21].d[ 12] =        -0.016922012021;
  BAS[ATNO][ 21].a[ 13] =        16.404088678000;     BAS[ATNO][ 21].d[ 13] =         0.057237901193;
  BAS[ATNO][ 21].a[ 14] =         3.800875487800;     BAS[ATNO][ 21].d[ 14] =        -0.063731802453;
  BAS[ATNO][ 21].a[ 15] =        11.010202433000;     BAS[ATNO][ 21].d[ 15] =        -0.146117942830;
  BAS[ATNO][ 21].a[ 16] =         5.442304578000;     BAS[ATNO][ 21].d[ 16] =        -0.302859600925;
  BAS[ATNO][ 21].a[ 17] =         2.066076999000;     BAS[ATNO][ 21].d[ 17] =        -0.221049153089;
  BAS[ATNO][ 21].a[ 18] =        11.010202433000;     BAS[ATNO][ 21].d[ 18] =         0.096892374516;
  BAS[ATNO][ 21].a[ 19] =         5.442304578000;     BAS[ATNO][ 21].d[ 19] =         0.200829448528;
  BAS[ATNO][ 21].a[ 20] =         2.066076999000;     BAS[ATNO][ 21].d[ 20] =         0.146580063425;
  BAS[ATNO][ 21].a[ 21] =        11.010202433000;     BAS[ATNO][ 21].d[ 21] =         0.006316013998;
  BAS[ATNO][ 21].a[ 22] =         5.442304578000;     BAS[ATNO][ 21].d[ 22] =         0.013091242880;
  BAS[ATNO][ 21].a[ 23] =         2.066076999000;     BAS[ATNO][ 21].d[ 23] =         0.009554949365;
  BAS[ATNO][ 21].a[ 24] =         1.112909454300;     BAS[ATNO][ 21].d[ 24] =        -0.682168544777;
  BAS[ATNO][ 21].a[ 25] =         1.112909454300;     BAS[ATNO][ 21].d[ 25] =         0.452340249567;
  BAS[ATNO][ 21].a[ 26] =         1.112909454300;     BAS[ATNO][ 21].d[ 26] =         0.029743962707;
  BAS[ATNO][ 21].a[ 27] =         0.422345126600;     BAS[ATNO][ 21].d[ 27] =         0.416000469986;
  BAS[ATNO][ 21].a[ 28] =         0.422345126600;     BAS[ATNO][ 21].d[ 28] =        -0.275847191550;
  BAS[ATNO][ 21].a[ 29] =         0.422345126600;     BAS[ATNO][ 21].d[ 29] =        -0.018126231740;
  BAS[ATNO][ 21].a[ 30] =         0.120076170800;     BAS[ATNO][ 21].d[ 30] =        -0.147236138342;
  BAS[ATNO][ 21].a[ 31] =         0.120076170800;     BAS[ATNO][ 21].d[ 31] =         0.097632463848;
  BAS[ATNO][ 21].a[ 32] =         0.120076170800;     BAS[ATNO][ 21].d[ 32] =         0.006394223115;
  BAS[ATNO][ 21].a[ 33] =         0.032387495000;     BAS[ATNO][ 21].d[ 33] =         0.044458121352;
  BAS[ATNO][ 21].a[ 34] =         0.032387495000;     BAS[ATNO][ 21].d[ 34] =        -0.029477392011;
  BAS[ATNO][ 21].a[ 35] =         0.032387495000;     BAS[ATNO][ 21].d[ 35] =        -0.001993433628;
  BAS[ATNO][ 21].a[ 36] =        86.149632622000;     BAS[ATNO][ 21].d[ 36] =        -0.000220428034;
  BAS[ATNO][ 21].a[ 37] =        34.717048147000;     BAS[ATNO][ 21].d[ 37] =        -0.000477549594;
  BAS[ATNO][ 21].a[ 38] =        16.899122478000;     BAS[ATNO][ 21].d[ 38] =        -0.000514886529;
  BAS[ATNO][ 21].a[ 39] =         7.903646606600;     BAS[ATNO][ 21].d[ 39] =        -0.000440334773;
  BAS[ATNO][ 21].a[ 40] =         3.413646504100;     BAS[ATNO][ 21].d[ 40] =        -0.000229992010;
  BAS[ATNO][ 21].a[ 41] =        86.149632622000;     BAS[ATNO][ 21].d[ 41] =        -0.000130527222;

-------------------------------------------
RADIAL EXPECTATION VALUES <R**-3> TO <R**3>
-------------------------------------------
   0 :     0.000000     9.569706     2.047923     0.548252     0.327627     0.217459
   1 :    17.257524     4.743978     1.986132     0.570274     0.361351     0.252441
   2 :    17.247073     4.742147     1.985714     0.570431     0.361571     0.252634
   3 :    17.234524     4.739972     1.985210     0.570625     0.361849     0.252921
   4 :    13.964963     4.544804     1.930205     0.608418     0.426024     1.691570
   5 :    13.967309     4.544350     1.930373     0.608221     0.425210     1.687575
   6 :    13.958236     4.542323     1.929870     0.608427     0.425607     1.689733
   7 :    13.967608     4.545838     1.930409     0.608317     0.425890     1.689983
   8 :    13.964603     4.543817     1.930271     0.608239     0.425247     1.687260
   9 :     0.000000    24.121763     1.165104     1.428493     2.512281     5.673888
  10 :     0.000000    21.803686     0.667832     3.550763    14.766017    67.810103
  11 :     0.000000     4.944191     0.234743     7.221521    58.007509   495.295004
  12 :     0.000000   376.073467     5.639587     2.401662    10.258764    63.454051
  13 :     0.000000  2104.708202    28.964020     0.449853     1.422937     7.631644
  14 :     0.000000    41.711085     1.809548     1.150771     2.286222     8.841181
  15 :     0.000000    52.251951     3.407139     0.428027     0.351399     0.928503
  16 :     0.000000   106.565764     6.314711     0.223872     0.095043     0.184919
  17 :     0.000000  1850.387217    21.740798     0.124562     0.042683     0.084210
  18 :     3.762988     1.123251     0.841649     1.473377     2.479920     4.698178
  19 :     3.736346     1.117026     0.839047     1.479507     2.506649     4.806714
  20 :     3.712385     1.112946     0.838202     1.476298     2.478581     4.629867
  21 :    10.939676     3.824516     1.724697     0.741370     0.696057     5.709183
  22 :    10.876095     3.805758     1.719290     0.745061     0.704415     5.828082
  23 :    10.819660     3.789052     1.714449     0.748420     0.712096     5.938211
  24 :    10.797512     3.782512     1.712562     0.749709     0.715018     5.979707
  25 :    10.797196     3.782427     1.712542     0.749714     0.715018     5.979429
  26 :    10.793052     3.781210     1.712195     0.749941     0.715519     5.986543
  27 :     0.416063     0.156488     0.274392     4.719274    25.917495   161.086061
  28 :     0.882653     0.429992     0.502398     2.543513     7.618291   129.854233
  29 :     0.878504     0.422997     0.501361     2.547406     7.635920   130.387213
  30 :     0.886714     0.425943     0.502719     2.546589     7.664606   129.932660
  31 :     0.868765     0.427797     0.498087     2.585084     8.001389   133.393091
  32 :     0.872131     0.423308     0.499450     2.561622     7.747653   131.911129
  33 :     0.182382     0.088757     0.223428     5.425360    33.252431   225.115818
  34 :     0.177596     0.086966     0.221810     5.452829    33.547429   227.732316
  35 :     9.013061     3.242574     1.550341     0.879410     1.061993    10.879154
  36 :     0.392734     0.151134     0.262108     5.444201    36.220491   271.586327
  37 :     0.493679     0.185607     0.295129     4.887520    30.287662   219.169026
  38 :     0.508907     0.190839     0.300019     4.806785    29.424405   211.510857
  39 :     1.185751     0.507114     0.498946     2.945935    10.693645   217.744588
  40 :     1.190314     0.506597     0.499632     2.943220    10.678957   217.376532
  41 :     1.188508     0.499431     0.499674     2.941438    10.667936   217.126125
  42 :     1.199044     0.523246     0.502053     2.932132    10.616557   215.830465
  43 :     1.202270     0.508549     0.502336     2.930187    10.605260   215.662580
  44 :     1.363438     0.623281     0.598800     2.078041     4.705623    78.505822
  45 :     1.385702     0.630351     0.600951     2.076818     4.703869    78.508737
  46 :     1.363408     0.623273     0.598810     2.077957     4.705347    78.494208
  47 :     1.379745     0.628456     0.600390     2.077024     4.703815    78.493840
  48 :     1.384288     0.629872     0.600821     2.076771     4.703669    78.486954
  49 :     1.387790     0.630941     0.601157     2.076493     4.703096    78.473300
  50 :     2.403888     0.955795     0.705864     1.983447     4.466300    74.797213
  51 :     6.686289     1.446682     0.838558     1.982374     5.985818    26.806905
  52 :     6.701257     1.449520     0.839489     1.980217     5.969250    26.666167
  53 :     6.794665     1.468423     0.846381     1.964951     5.902790    26.432818
  54 :     9.273828     2.599894     1.217217     1.325844     2.572316    34.326122
  55 :     9.275490     2.601209     1.217386     1.325532     2.570882    34.296688
  56 :     9.299489     2.606507     1.219378     1.322595     2.559297    34.078314
  57 :     9.316246     2.610978     1.220719     1.320800     2.552507    33.953413
  58 :     9.308130     2.609014     1.220065     1.321709     2.556027    34.019930
  59 :     6.931302     2.322575     1.184462     1.264050     2.079073    28.813043
  60 :     6.973584     2.334579     1.187839     1.261338     2.071444    28.673593
  61 :     7.016867     2.346885     1.191288     1.258620     2.063874    28.536776
  62 :     7.022320     2.348377     1.191671     1.258456     2.063629    28.534680
  63 :     7.022030     2.348282     1.191633     1.258532     2.063917    28.540795
  64 :     7.027226     2.349710     1.192014     1.258302     2.063390    28.532089
  65 :     7.767918     2.556313     1.246667     1.228583     2.001549    27.672606
  66 :    71.824099    13.697537     3.303861     0.452529     0.431606     1.107312
  67 :    71.826940    13.698335     3.304035     0.452424     0.431218     1.105169
  68 :    71.829117    13.698973     3.304184     0.452320     0.430839     1.103239
Making the total density                ... o.k.
o.k.
Initializing the integrals              ... done
Making exponents                        ... done
Making rho(0)                           ... done (       551.181095728)
Integral calculation                    ... Two index integrals                     ... done
Solving the equation system             ... done
atomic density will be written to file 66_Dy_atom66.adf

-------
TIMINGS
-------

Total SCF time: 0 days 0 hours 1 min 1 sec 

Total time                  ....      61.765 sec
Sum of individual times     ....      59.768 sec  ( 96.8%)

Fock matrix formation       ....      55.158 sec  ( 89.3%)
Diagonalization             ....       2.953 sec  (  4.8%)
Density matrix formation    ....       0.056 sec  (  0.1%)
Population analysis         ....       0.000 sec  (  0.0%)
Initial guess               ....       0.001 sec  (  0.0%)
Orbital Transformation      ....       0.000 sec  (  0.0%)
Orbital Orthonormalization  ....       0.000 sec  (  0.0%)
DIIS solution               ....       1.599 sec  (  2.6%)

-------------------------   --------------------
FINAL SINGLE POINT ENERGY      -881.251025549652
-------------------------   --------------------


                            ***************************************
                            *     ORCA property calculations      *
                            ***************************************

                                    ---------------------
                                    Active property flags
                                    ---------------------
   (+) Dipole Moment


------------------------------------------------------------------------------
                       ORCA ELECTRIC PROPERTIES CALCULATION
------------------------------------------------------------------------------

Dipole Moment Calculation                       ... on
Quadrupole Moment Calculation                   ... off
Polarizability Calculation                      ... off
GBWName                                         ... 66_Dy_atom66.gbw
Electron density file                           ... 66_Dy_atom66.scfp
The origin for moment calculation is the CENTER OF MASS  = ( 0.000000,  0.000000  0.000000)

-------------
DIPOLE MOMENT
-------------
                                X             Y             Z
Electronic contribution:      0.00000       0.00000       0.00000
Nuclear contribution   :      0.00000       0.00000       0.00000
                        -----------------------------------------
Total Dipole Moment    :      0.00000       0.00000       0.00000
                        -----------------------------------------
Magnitude (a.u.)       :      0.00000
Magnitude (Debye)      :      0.00000



--------------------
Rotational spectrum 
--------------------
 
Rotational constants in cm-1:     0.000000     0.000000     0.000000 
Rotational constants in MHz :     0.000000     0.000000     0.000000 

 Dipole components along the rotational axes: 
x,y,z [a.u.] :     0.000000     0.000000     0.000000 
x,y,z [Debye]:     0.000000     0.000000     0.000000 

 

Timings for individual modules:

Sum of individual times         ...       63.164 sec (=   1.053 min)
GTO integral calculation        ...        1.376 sec (=   0.023 min)   2.2 %
SCF iterations                  ...       61.788 sec (=   1.030 min)  97.8 %
                             ****ORCA TERMINATED NORMALLY****
TOTAL RUN TIME: 0 days 0 hours 1 minutes 3 seconds 490 msec
