
                                 *****************
                                 * O   R   C   A *
                                 *****************

           --- An Ab Initio, DFT and Semiempirical electronic structure package ---

                  #######################################################
                  #                        -***-                        #
                  #          Department of theory and spectroscopy      #
                  #               Directorship: Frank Neese             #
                  #        Max Planck Institute fuer Kohlenforschung    #
                  #                Kaiser Wilhelm Platz 1               #
                  #                 D-45470 Muelheim/Ruhr               #
                  #                      Germany                        #
                  #                                                     #
                  #                  All rights reserved                #
                  #                        -***-                        #
                  #######################################################


                         Program Version 4.2.0 -  RELEASE  -


 With contributions from (in alphabetic order):
   Daniel Aravena         : Magnetic Suceptibility
   Michael Atanasov       : Ab Initio Ligand Field Theory (pilot matlab implementation)
   Alexander A. Auer      : GIAO ZORA, VPT2
   Ute Becker             : Parallelization
   Giovanni Bistoni       : ED, misc. LED, open-shell LED, HFLED
   Martin Brehm           : Molecular dynamics
   Dmytro Bykov           : SCF Hessian
   Vijay G. Chilkuri      : MRCI spin determinant printing, contributions to CSF-ICE
   Dipayan Datta          : RHF DLPNO-CCSD density
   Achintya Kumar Dutta   : EOM-CC, STEOM-CC
   Dmitry Ganyushin       : Spin-Orbit,Spin-Spin,Magnetic field MRCI
   Miquel Garcia          : C-PCM Hessian, Gaussian charge scheme
   Yang Guo               : DLPNO-NEVPT2, CIM, IAO-localization
   Andreas Hansen         : Spin unrestricted coupled pair/coupled cluster methods
   Benjamin Helmich-Paris : CASSCF linear response (MC-RPA)
   Lee Huntington         : MR-EOM, pCC
   Robert Izsak           : Overlap fitted RIJCOSX, COSX-SCS-MP3, EOM
   Christian Kollmar      : KDIIS, OOCD, Brueckner-CCSD(T), CCSD density
   Simone Kossmann        : Meta GGA functionals, TD-DFT gradient, OOMP2, MP2 Hessian
   Martin Krupicka        : AUTO-CI
   Lucas Lang             : DCDCAS
   Dagmar Lenk            : GEPOL surface, SMD
   Dimitrios Liakos       : Extrapolation schemes; Compound Job, initial MDCI parallelization
   Dimitrios Manganas     : Further ROCIS development; embedding schemes
   Dimitrios Pantazis     : SARC Basis sets
   Taras Petrenko         : DFT Hessian,TD-DFT gradient, ASA, ECA, R-Raman, ABS, FL, XAS/XES, NRVS
   Peter Pinski           : DLPNO-MP2, DLPNO-MP2 Gradient
   Christoph Reimann      : Effective Core Potentials
   Marius Retegan         : Local ZFS, SOC
   Christoph Riplinger    : Optimizer, TS searches, QM/MM, DLPNO-CCSD(T), (RO)-DLPNO pert. Triples
   Tobias Risthaus        : Range-separated hybrids, TD-DFT gradient, RPA, STAB
   Michael Roemelt        : Original ROCIS implementation
   Masaaki Saitow         : Open-shell DLPNO-CCSD energy and density
   Barbara Sandhoefer     : DKH picture change effects
   Avijit Sen             : IP-ROCIS
   Kantharuban Sivalingam : CASSCF convergence, NEVPT2, FIC-MRCI
   Bernardo de Souza      : ESD, SOC TD-DFT
   Georgi Stoychev        : AutoAux, RI-MP2 NMR
   Willem Van den Heuvel  : Paramagnetic NMR
   Boris Wezisla          : Elementary symmetry handling
   Frank Wennmohs         : Technical directorship


 We gratefully acknowledge several colleagues who have allowed us to
 interface, adapt or use parts of their codes:
   Stefan Grimme, W. Hujo, H. Kruse,             : VdW corrections, initial TS optimization,
                  C. Bannwarth                     DFT functionals, gCP, sTDA/sTD-DF
   Ed Valeev, F. Pavosevic, A. Kumar             : LibInt (2-el integral package), F12 methods
   Garnet Chan, S. Sharma, J. Yang, R. Olivares  : DMRG
   Ulf Ekstrom                                   : XCFun DFT Library
   Mihaly Kallay                                 : mrcc  (arbitrary order and MRCC methods)
   Andreas Klamt, Michael Diedenhofen            : otool_cosmo (COSMO solvation model)
   Jiri Pittner, Ondrej Demel                    : Mk-CCSD
   Frank Weinhold                                : gennbo (NPA and NBO analysis)
   Christopher J. Cramer and Donald G. Truhlar   : smd solvation model
   Lars Goerigk                                  : TD-DFT with DH, B97 family of functionals
   V. Asgeirsson, H. Jonsson                     : NEB implementation
   FAccTs GmbH                                   : IRC, NEB, NEB-TS, Multilevel, MM, QM/MM, CI optimization
   S Lehtola, MJT Oliveira, MAL Marques          : LibXC Library


 Your calculation uses the libint2 library for the computation of 2-el integrals
 For citations please refer to: http://libint.valeyev.net

 Your ORCA version has been built with support for libXC version: 4.2.3
 For citations please refer to: https://tddft.org/programs/libxc/

 This ORCA versions uses:
   CBLAS   interface :  Fast vector & matrix operations
   LAPACKE interface :  Fast linear algebra routines
   SCALAPACK package :  Parallel linear algebra routines


----- Orbital basis set information -----
Your calculation utilizes the basis: def2-SVP
   F. Weigend and R. Ahlrichs, Phys. Chem. Chem. Phys. 7, 3297 (2005).

----- AuxJ basis set information -----
Your calculation utilizes the auxiliary basis: def2/J
   F. Weigend, Phys. Chem. Chem. Phys. 8, 1057 (2006).

================================================================================
                                        WARNINGS
                       Please study these warnings very carefully!
================================================================================


INFO   : the flag for use of LIBINT has been found!

================================================================================
                                       INPUT FILE
================================================================================
NAME = 71_Lu_atom71.inp
|  1> # input to generate an atomic fitting density for Lu
|  2> # this file is use internally by ORCA
|  3> #
|  4> # atomic ground state (S=4): 1s2 2s2 2p6 3s2 3p6 4s2 3d10 4p6 5s2 4d10 5p6 6s2 5d3 
|  5> #
|  6> ! RHF AllowRHF def2-SVP def2/J  NoMulliken NoLoewdin NoMayer NoPrintMOs 
|  7> 
|  8> %output print[p_atomdensfit] 2 end
|  9> 
| 10> %scf
| 11>   guess hcore
| 12>   maxiter 1000
| 13>   maxdisk 500000
| 14>   SCFMode Conventional
| 15>   lshift 1.000000
| 16>   hftyp rohf
| 17>   rohf_case sahf
| 18>   rohf_numop   2
| 19>   rohf_norb[1] 5
| 20>   rohf_nel[1]  3
| 21> end
| 22> 
| 23> %basis
| 24>   NewECP 71
| 25>     N_core 28
| 26>     lmax h
| 27>     s 1
| 28>       1      35.1620970000    989.9955840000  2
| 29>     p 1
| 30>       1      19.4644020000    278.8656520000  2
| 31>     d 1
| 32>       1      10.0068650000     71.0091780000  2
| 33>     f 1
| 34>       1      23.5179320000    -47.4058900000  2
| 35>     g 1
| 36>       1      29.4122380000    -35.5571460000  2
| 37>     h 1
| 38>       1       1.0000000000      0.0000000000  2
| 39>   end
| 40>   NewGTO 71
| 41>     s 5 
| 42>      1   95170.1709930000      0.0030946055
| 43>      2   15488.4599980000      0.0204645862
| 44>      3    3776.2465986000      0.0915171953
| 45>      4    1079.0522042000      0.2861421278
| 46>      5     268.9540089000      0.7196311625
| 47>     s 1 
| 48>      1      63.4801506540      1.0000000000
| 49>     s 1 
| 50>      1      45.1782367330      1.0000000000
| 51>     s 1 
| 52>      1      21.4631010620      1.0000000000
| 53>     s 1 
| 54>      1       5.3501284738      1.0000000000
| 55>     s 1 
| 56>      1       2.6784324209      1.0000000000
| 57>     s 1 
| 58>      1       1.0286996374      1.0000000000
| 59>     s 1 
| 60>      1       0.4406558225      1.0000000000
| 61>     s 1 
| 62>      1       0.0791024783      1.0000000000
| 63>     s 1 
| 64>      1       0.0312957601      1.0000000000
| 65>     p 5 
| 66>      1     489.4124480400     -0.0304757714
| 67>      2     133.9537395200     -0.0894838385
| 68>      3      45.4992313220     -0.1825075956
| 69>      4      15.5612718940      1.2207598940
| 70>      5       5.8487824789     -1.5819664104
| 71>     p 3 
| 72>      1      12.3044905440     -0.3245740087
| 73>      2      11.0511972780     -0.4320071666
| 74>      3       2.0069549241     -0.4079418942
| 75>     p 1 
| 76>      1       3.7750599965      1.0000000000
| 77>     p 1 
| 78>      1       1.1351251245      1.0000000000
| 79>     p 1 
| 80>      1       0.4041434891      1.0000000000
| 81>     p 1 
| 82>      1       0.0818764383      1.0000000000
| 83>     p 1 
| 84>      1       0.0290910718      1.0000000000
| 85>     d 6 
| 86>      1     487.9825710800      0.0026362012
| 87>      2     146.9340671800      0.0215191011
| 88>      3      55.7615799160      0.0888170815
| 89>      4      22.8987417590      0.1935949106
| 90>      5       9.1045787832      0.3692071452
| 91>      6       4.1457846324      0.5374551300
| 92>     d 1 
| 93>      1       1.7383363795      1.0000000000
| 94>     d 1 
| 95>      1       0.4733864431      1.0000000000
| 96>     d 1 
| 97>      1       0.1212658110      1.0000000000
| 98>     f 5 
| 99>      1     110.2746644200      0.0150358933
|100>      2      41.2232494970      0.1076825446
|101>      3      17.7289671820      0.2908939115
|102>      4       7.4262392641      0.4393316453
|103>      5       3.0434594520      0.4213537840
|104>     f 1 
|105>      1       1.1752462623      1.0000000000
|106>     f 1 
|107>      1       0.3892048290      1.0000000000
|108>   end
|109>   NewAuxGTO 71
|110>     S 1
|111>      1 1310.72 1.0
|112>     S 1
|113>      1  655.36 1.0
|114>     S 1
|115>      1  327.68 1.0
|116>     S 1
|117>      1  163.84 1.0
|118>     S 1
|119>      1   81.82 1.0
|120>     S 1
|121>      1   40.96 1.0
|122>     S 1
|123>      1   20.48 1.0
|124>     S 1
|125>      1   10.24 1.0
|126>     S 1
|127>      1    5.12 1.0
|128>     S 1
|129>      1    2.56 1.0
|130>     S 1
|131>      1    1.28 1.0
|132>     S 1
|133>      1    0.64 1.0
|134>     S 1
|135>      1    0.32 1.0
|136>     S 1
|137>      1    0.16 1.0
|138>     S 1
|139>      1    0.08 1.0
|140>     S 1
|141>      1    0.04 1.0
|142>     S 1
|143>      1    0.02 1.0
|144>     S 1
|145>      1    0.01 1.0
|146>   end
|147> end
|148> 
|149> * xyz 0 4
|150> 71  0.0 0.0 0.0
|151> *
|152> 
|153> 
|154>                          ****END OF INPUT****
================================================================================

                       ****************************
                       * Single Point Calculation *
                       ****************************

---------------------------------
CARTESIAN COORDINATES (ANGSTROEM)
---------------------------------
  Lu     0.000000    0.000000    0.000000

----------------------------
CARTESIAN COORDINATES (A.U.)
----------------------------
  NO LB      ZA    FRAG     MASS         X           Y           Z
   0 Lu   43.0000*   0   174.967    0.000000    0.000000    0.000000
* core charge reduced due to ECP

--------------------------------
INTERNAL COORDINATES (ANGSTROEM)
--------------------------------
 Lu     0   0   0     0.000000000000     0.00000000     0.00000000

---------------------------
INTERNAL COORDINATES (A.U.)
---------------------------
 Lu     0   0   0     0.000000000000     0.00000000     0.00000000

---------------------
BASIS SET INFORMATION
---------------------
There are 1 groups of distinct atoms

 Group   1 Type Lu  : 14s13p9d7f contracted to 10s7p4d3f pattern {5111111111/5311111/6111/511}

Atom   0Lu   basis set group =>   1
---------------------------------
AUXILIARY/J BASIS SET INFORMATION
---------------------------------
There are 1 groups of distinct atoms

 Group   1 Type Lu  : 18s contracted to 18s pattern {111111111111111111}

Atom   0Lu   basis set group =>   1
-------------------------
ECP PARAMETER INFORMATION
-------------------------

 Group 1, Type Lu ECP (replacing 28 core electrons, lmax=5)

Atom   0Lu   ECP group =>   1

------------------------------------------------------------------------------
                           ORCA GTO INTEGRAL CALCULATION
------------------------------------------------------------------------------

                         BASIS SET STATISTICS AND STARTUP INFO

 # of primitive gaussian shells          ...   43
 # of primitive gaussian functions       ...  147
 # of contracted shells                  ...   24
 # of contracted basis functions         ...   72
 Highest angular momentum                ...    3
 Maximum contraction depth               ...    6
 Integral package used                   ... LIBINT
 Integral threshhold            Thresh   ...  1.000e-10
 Primitive cut-off              TCut     ...  1.000e-11
 Storage cut-off                TCutStore... -1.000e+00
 Buffer length                           ... 1048576 integrals/buffer
 Generate file with integrals 4 distinct ...false


------------------------------ INTEGRAL EVALUATION ----------------------------


 * One electron integrals 

   ECP integrals                         ... done
 Pre-screening matrix                    ... done
 Shell pair data                         ... done (   0.000 sec)
 Statistics run                          ... done
 Maximum amount of storage needed        ...    40 MB
 Maximum amount of storage dedicated     ... 500000 MB
 Beginning two electron integral evaluation:
 Starting repulsion integrals
  <ss|ss>  ...         1540 b.         0 skpd (  0.0%)     0.000 s. (  0.000 ms/b)
  <ss|sp>  ...         3850 b.         0 skpd (  0.0%)     0.001 s. (  0.000 ms/b)
  <ss|sd>  ...         2200 b.         0 skpd (  0.0%)     0.001 s. (  0.001 ms/b)
  <ss|sf>  ...         1650 b.         0 skpd (  0.0%)     0.002 s. (  0.001 ms/b)
  <ss|pp>  ...         1540 b.         0 skpd (  0.0%)     0.001 s. (  0.001 ms/b)
  <ss|pd>  ...         1540 b.         0 skpd (  0.0%)     0.002 s. (  0.001 ms/b)
  <ss|pf>  ...         1155 b.         0 skpd (  0.0%)     0.003 s. (  0.002 ms/b)
  <ss|dd>  ...          550 b.         0 skpd (  0.0%)     0.002 s. (  0.003 ms/b)
  <ss|df>  ...          660 b.         0 skpd (  0.0%)     0.003 s. (  0.004 ms/b)
  <ss|ff>  ...          330 b.         0 skpd (  0.0%)     0.003 s. (  0.008 ms/b)
  <sp|sp>  ...         2485 b.         0 skpd (  0.0%)     0.002 s. (  0.001 ms/b)
  <sp|sd>  ...         2800 b.         0 skpd (  0.0%)     0.004 s. (  0.001 ms/b)
  <sp|sf>  ...         2099 b.         1 skpd (  0.0%)     0.005 s. (  0.002 ms/b)
  <sp|pp>  ...         1960 b.         0 skpd (  0.0%)     0.004 s. (  0.002 ms/b)
  <sp|pd>  ...         1960 b.         0 skpd (  0.0%)     0.007 s. (  0.004 ms/b)
  <sp|pf>  ...         1470 b.         0 skpd (  0.0%)     0.008 s. (  0.006 ms/b)
  <sp|dd>  ...          700 b.         0 skpd (  0.0%)     0.006 s. (  0.008 ms/b)
  <sp|df>  ...          840 b.         0 skpd (  0.0%)     0.010 s. (  0.011 ms/b)
  <sp|ff>  ...          420 b.         0 skpd (  0.0%)     0.009 s. (  0.021 ms/b)
  <sd|sd>  ...          819 b.         1 skpd (  0.1%)     0.003 s. (  0.003 ms/b)
  <sd|sf>  ...         1196 b.         4 skpd (  0.3%)     0.006 s. (  0.005 ms/b)
  <sd|pp>  ...         1120 b.         0 skpd (  0.0%)     0.005 s. (  0.004 ms/b)
  <sd|pd>  ...         1120 b.         0 skpd (  0.0%)     0.010 s. (  0.009 ms/b)
  <sd|pf>  ...          840 b.         0 skpd (  0.0%)     0.012 s. (  0.015 ms/b)
  <sd|dd>  ...          400 b.         0 skpd (  0.0%)     0.009 s. (  0.023 ms/b)
  <sd|df>  ...          480 b.         0 skpd (  0.0%)     0.024 s. (  0.050 ms/b)
  <sd|ff>  ...          240 b.         0 skpd (  0.0%)     0.017 s. (  0.071 ms/b)
  <sf|sf>  ...          461 b.         4 skpd (  0.9%)     0.006 s. (  0.012 ms/b)
  <sf|pp>  ...          840 b.         0 skpd (  0.0%)     0.008 s. (  0.009 ms/b)
  <sf|pd>  ...          840 b.         0 skpd (  0.0%)     0.016 s. (  0.019 ms/b)
  <sf|pf>  ...          630 b.         0 skpd (  0.0%)     0.021 s. (  0.034 ms/b)
  <sf|dd>  ...          300 b.         0 skpd (  0.0%)     0.016 s. (  0.053 ms/b)
  <sf|df>  ...          360 b.         0 skpd (  0.0%)     0.031 s. (  0.087 ms/b)
  <sf|ff>  ...          180 b.         0 skpd (  0.0%)     0.032 s. (  0.177 ms/b)
  <pp|pp>  ...          406 b.         0 skpd (  0.0%)     0.003 s. (  0.006 ms/b)
  <pp|pd>  ...          784 b.         0 skpd (  0.0%)     0.009 s. (  0.012 ms/b)
  <pp|pf>  ...          588 b.         0 skpd (  0.0%)     0.012 s. (  0.020 ms/b)
  <pp|dd>  ...          280 b.         0 skpd (  0.0%)     0.008 s. (  0.030 ms/b)
  <pp|df>  ...          336 b.         0 skpd (  0.0%)     0.015 s. (  0.045 ms/b)
  <pp|ff>  ...          168 b.         0 skpd (  0.0%)     0.015 s. (  0.089 ms/b)
  <pd|pd>  ...          406 b.         0 skpd (  0.0%)     0.012 s. (  0.030 ms/b)
  <pd|pf>  ...          588 b.         0 skpd (  0.0%)     0.033 s. (  0.056 ms/b)
  <pd|dd>  ...          280 b.         0 skpd (  0.0%)     0.019 s. (  0.066 ms/b)
  <pd|df>  ...          336 b.         0 skpd (  0.0%)     0.033 s. (  0.100 ms/b)
  <pd|ff>  ...          168 b.         0 skpd (  0.0%)     0.033 s. (  0.196 ms/b)
  <pf|pf>  ...          231 b.         0 skpd (  0.0%)     0.018 s. (  0.080 ms/b)
  <pf|dd>  ...          210 b.         0 skpd (  0.0%)     0.025 s. (  0.117 ms/b)
  <pf|df>  ...          252 b.         0 skpd (  0.0%)     0.050 s. (  0.197 ms/b)
  <pf|ff>  ...          126 b.         0 skpd (  0.0%)     0.053 s. (  0.424 ms/b)
  <dd|dd>  ...           55 b.         0 skpd (  0.0%)     0.011 s. (  0.208 ms/b)
  <dd|df>  ...          120 b.         0 skpd (  0.0%)     0.040 s. (  0.333 ms/b)
  <dd|ff>  ...           60 b.         0 skpd (  0.0%)     0.036 s. (  0.604 ms/b)
  <df|df>  ...           78 b.         0 skpd (  0.0%)     0.044 s. (  0.570 ms/b)
  <df|ff>  ...           72 b.         0 skpd (  0.0%)     0.075 s. (  1.036 ms/b)
  <ff|ff>  ...           21 b.         0 skpd (  0.0%)     0.057 s. (  2.713 ms/b)


                                      INTEGRAL STATISTICS

Integral type statistics:
 Number of integrals retained            ...    3454155 
 One   Center Integrals retained         ...    3454155 (100.0%)
 Two   Center Integrals retained         ...          0 (  0.0%)
 Three Center Integrals retained         ...          0 (  0.0%)
 Four  Center Integrals retained         ...          0 (  0.0%)

Storage statistics:
 Number of char integrals                ...          0 (  0.0%)
 Number of short int integrals           ...          0 (  0.0%)
 Number of double/float integrals        ...    3454155 (100.0%)
 Amount of memory used                   ...         42 MB
 Amount of memory estimated              ...         40 MB ( 94.6%)

Prescreening statistics:
 Total number of shell quadruples        ...      45150 
 Number of skipped shell quadruples      ...         18 (  0.0%)
 # of negligible batches done            ...          0 (  0.0%)

Timings:
 Total evaluation time               ...     1.289 sec (   0.021 min)
 One electron matrix time            ...     0.104 sec (   0.002 min) =  8.1%
 Schwartz matrix evaluation time     ...     0.162 sec (   0.003 min) = 12.6%
 Statistics run                      ...     0.031 sec (   0.001 min) =  2.4%
 Repulsion integral time             ...     0.889 sec (   0.015 min) = 69.0%

-------------------------------------------------------------------------------
                                 ORCA SCF
-------------------------------------------------------------------------------

------------
SCF SETTINGS
------------
Hamiltonian:
 Ab initio Hamiltonian  Method          .... Hartree-Fock(GTOs)


General Settings:
 Integral files         IntName         .... 71_Lu_atom71
 Hartree-Fock type      HFTyp           .... ROHF
 Total Charge           Charge          ....    0
 Multiplicity           Mult            ....    4
 Number of Electrons    NEL             ....   43
 Basis Dimension        Dim             ....   72
 Nuclear Repulsion      ENuc            ....      0.0000000000 Eh

Convergence Acceleration:
 DIIS                   CNVDIIS         .... on
   Start iteration      DIISMaxIt       ....    12
   Startup error        DIISStart       ....  0.200000
   # of expansion vecs  DIISMaxEq       ....     5
   Bias factor          DIISBfac        ....   1.050
   Max. coefficient     DIISMaxC        ....  10.000
 Newton-Raphson         CNVNR           .... off
 SOSCF                  CNVSOSCF        .... off
 Level Shifting         CNVShift        .... on
   Level shift para.    LevelShift      ....    1.0000
   Turn off err/grad.   ShiftErr        ....    0.0010
 Zerner damping         CNVZerner       .... off
 Static damping         CNVDamp         .... on
   Fraction old density DampFac         ....    0.7000
   Max. Damping (<1)    DampMax         ....    0.9800
   Min. Damping (>=0)   DampMin         ....    0.0000
   Turn off err/grad.   DampErr         ....    0.1000
 Fernandez-Rico         CNVRico         .... off

SCF Procedure:
 Maximum # iterations   MaxIter         ....  1000
 SCF integral mode      SCFMode         .... Conventional
 Integral Threshold     Thresh          ....  1.000e-10 Eh
 Primitive CutOff       TCut            ....  1.000e-11 Eh
 Integral Buffer length BufferLength    .... 1048576
 Integral index format  IndFormat       ....     0
 Integral value format  ValFormat       ....     0
 Integral Storage       Thresh          ....  1.000e-10 Eh

Convergence Tolerance:
 Convergence Check Mode ConvCheckMode   .... Total+1el-Energy
 Convergence forced     ConvForced      .... 0
 Energy Change          TolE            ....  1.000e-06 Eh
 1-El. energy change                    ....  1.000e-03 Eh
 DIIS Error             TolErr          ....  1.000e-06


Diagonalization of the overlap matrix:
Smallest eigenvalue                        ... 1.339e-03
Time for diagonalization                   ...    0.002 sec
Threshold for overlap eigenvalues          ... 1.000e-08
Number of eigenvalues below threshold      ... 0
Time for construction of square roots      ...    0.003 sec
Total time needed                          ...    0.004 sec

--------------------
INITIAL GUESS: HCORE
--------------------
AVERAGE-CONFIGURATION (SAHF) CASE FOUND

-------------------
FINAL ROHF SETTINGS
-------------------
Number of operators             ... 2
  operator   0:  20 orbitals  40 electrons n(mue)= 2.000
  operator   1:   5 orbitals   3 electrons n(mue)= 0.600
Vector coupling coefficients a and b (Zerner convention):
   1.000    1.000           1.000    1.000 
   1.000    0.833           1.000    1.667 

                      -----------------
                      INTIAL GUESS DONE 
                      -----------------

 InCore treatment chosen:
   Memory dedicated               ...    1024 MB
   Memory needed                  ...     42 MB
   Number of tiny    integrals    ...       0
   Number of small   integrals    ...       0
   Number of regular integrals    ... 3454155

--------------
SCF ITERATIONS
--------------
ITER       Energy         Delta-E        Max-DP      RMS-DP      [F,P]     Damp
  0  -1068.5283815174   0.000000000000 4.95808288  0.11257810  8.9912893 0.7000
  1  -1122.6006482289 -54.072266711518 3.19101608  0.07095754  2.9754247 0.7000
  2  -1163.2652351310 -40.664586902056 2.11864952  0.04887965  1.5822814 0.7000
  3  -1207.2119811067 -43.946745975740 1.53391195  0.03507025  0.6018213 0.7000
  4  -1213.3497218670  -6.137740760261 1.12640521  0.02510982  0.3394247 0.7000
  5  -1218.3519363490  -5.002214482052 0.83884442  0.01785644  0.2839690 0.7000
  6  -1222.2777506798  -3.925814330811 0.60361096  0.01266782  0.2083250 0.7000
                            ****Activating DIIS****
  7  -1225.1125257378  -2.834775057926 0.40451030  0.00881558  0.1303714 0.7000
  8  -1227.1149957521  -2.002470014341 0.30688435  0.00683347  0.1209730 0.7000
  9  -1228.6283014742  -1.513305722098 0.20586122  0.00446987  0.1005871 0.7000
 10  -1229.6195707018  -0.991269227612 0.47703921  0.01072532  0.0587608 0.0000
 11  -1231.9742546942  -2.354683992368 0.00893247  0.00027609  0.0636757 0.0000
 12  -1231.9620807772   0.012173917022 0.00772234  0.00037204  0.0822569 0.0000
 13  -1231.9387361413   0.023344635841 0.00591092  0.00021362  0.1019364 0.7000
 14  -1231.9612427312  -0.022506589834 0.04245845  0.00154275  0.0919903 0.0000
 15  -1232.0262833665  -0.065040635390 0.03056417  0.00097048  0.0343643 0.0000
 16  -1232.0519797992  -0.025696432644 0.05271257  0.00158986  0.0284559 0.0000
 17  -1232.0826594199  -0.030679620749 0.05069226  0.00147571  0.0205769 0.0000
 18  -1232.0997927745  -0.017133354584 0.03593307  0.00102860  0.0124606 0.0000
 19  -1232.1065940486  -0.006801274059 0.02770379  0.00078589  0.0074104 0.0000
 20  -1232.1094603584  -0.002866309854 0.01384960  0.00039480  0.0034010 0.0000
 21  -1232.1102177537  -0.000757395251 0.00608013  0.00017504  0.0026274 0.0000
 22  -1232.1104108417  -0.000193087963 0.00377015  0.00011186  0.0015896 0.0000
 23  -1232.1104933011  -0.000082459401 0.00166744  0.00005512  0.0015325 0.0000
 24  -1232.1105303290  -0.000037027994 0.00085308  0.00002593  0.0016573 0.0000
 25  -1232.1105508451  -0.000020516083 0.00007835  0.00000228  0.0017509 0.0000
 26  -1232.1105525877  -0.000001742604 0.00024203  0.00000688  0.0017600 0.0000
 27  -1232.1105505664   0.000002021301 0.00013305  0.00000386  0.0017547 0.0000
 28  -1232.1105494055   0.000001160963 0.00023749  0.00000850  0.0017520 0.0000
 29  -1232.1105553444  -0.000005938901 0.00058725  0.00001471  0.0017770 0.0000
 30  -1232.1105691115  -0.000013767114 0.00089040  0.00002231  0.0018425 0.0000
 31  -1232.1105483247   0.000020786770 0.00018945  0.00000611  0.0017428 0.0000
 32  -1232.1105436046   0.000004720073 0.00040082  0.00001037  0.0017213 0.0000
 33  -1232.1105343687   0.000009235951 0.00102906  0.00002580  0.0016755 0.0000
 34  -1232.1105118506   0.000022518072 0.00245536  0.00006147  0.0015573 0.0000
 35  -1232.1104632385   0.000048612140 0.00321656  0.00007980  0.0012733 0.0000
 36  -1232.1104127291   0.000050509401 0.00291698  0.00007174  0.0008911 0.0000
 37  -1232.1103825061   0.000030223004 0.00126756  0.00003456  0.0005972 0.0000
 38  -1232.1103778357   0.000004670337 0.00109462  0.00003468  0.0005422 0.0000
 39  -1232.1103803827  -0.000002546982 0.00128161  0.00004436  0.0003942 0.0000
 40  -1232.1103855612  -0.000005178495 0.00110979  0.00003366  0.0002630 0.0000
 41  -1232.1103885134  -0.000002952213 0.00066248  0.00001887  0.0001430 0.0000
 42  -1232.1103896209  -0.000001107491 0.00042864  0.00001087  0.0001611 0.0000
 43  -1232.1103902309  -0.000000609939 0.00021155  0.00000389  0.0001063 0.0000
                 **** Energy Check signals convergence ****

               *****************************************************
               *                     SUCCESS                       *
               *           SCF CONVERGED AFTER  44 CYCLES          *
               *****************************************************


----------------
TOTAL SCF ENERGY
----------------

Total Energy       :        -1232.11039047 Eh          -33527.42823 eV

Components:
Nuclear Repulsion  :            0.00000000 Eh               0.00000 eV
Electronic Energy  :        -1232.11039047 Eh          -33527.42823 eV
One Electron Energy:        -2256.78516412 Eh          -61410.24635 eV
Two Electron Energy:         1024.67477365 Eh           27882.81813 eV

Virial components:
Potential Energy   :        -2040.28959413 Eh          -55519.10239 eV
Kinetic Energy     :          808.17920366 Eh           21991.67417 eV
Virial Ratio       :            2.52455097


---------------
SCF CONVERGENCE
---------------

  Last Energy change         ...   -2.3859e-07  Tolerance :   1.0000e-06
  Last MAX-Density change    ...    1.1661e-04  Tolerance :   1.0000e-05
  Last RMS-Density change    ...    2.0191e-06  Tolerance :   1.0000e-06
  Last DIIS Error            ...    1.1619e-04  Tolerance :   1.0000e-06

             **** THE GBW FILE WAS UPDATED (71_Lu_atom71.gbw) ****
             **** DENSITY FILE WAS UPDATED (71_Lu_atom71.scfp) ****
             **** ENERGY FILE WAS UPDATED (71_Lu_atom71.en.tmp) ****
             **** THE GBW FILE WAS UPDATED (71_Lu_atom71.gbw) ****
             **** DENSITY FILE WAS UPDATED (71_Lu_atom71.scfp) ****
----------------
ORBITAL ENERGIES
----------------

  NO   OCC          E(Eh)            E(eV) 
   0   2.0000     -20.198579      -549.6313 
   1   2.0000     -13.430776      -365.4700 
   2   2.0000     -13.430771      -365.4699 
   3   2.0000     -13.430765      -365.4697 
   4   2.0000      -6.419213      -174.6757 
   5   2.0000      -6.419212      -174.6756 
   6   2.0000      -6.419205      -174.6755 
   7   2.0000      -6.419200      -174.6753 
   8   2.0000      -6.419199      -174.6753 
   9   2.0000      -2.541264       -69.1513 
  10   2.0000      -1.279906       -34.8280 
  11   2.0000      -1.279867       -34.8269 
  12   2.0000      -1.279834       -34.8260 
  13   2.0000      -0.660046       -17.9608 
  14   2.0000      -0.660046       -17.9608 
  15   2.0000      -0.660042       -17.9606 
  16   2.0000      -0.660041       -17.9606 
  17   2.0000      -0.660039       -17.9606 
  18   2.0000      -0.660035       -17.9605 
  19   2.0000      -0.660035       -17.9605 
  20   0.6000      -0.086342        -2.3495 
  21   0.6000      -0.086339        -2.3494 
  22   0.6000      -0.086337        -2.3493 
  23   0.6000      -0.086336        -2.3493 
  24   0.6000      -0.086335        -2.3493 
  25   0.0000      -0.101038        -2.7494 
  26   0.0000      -0.025998        -0.7075 
  27   0.0000      -0.025985        -0.7071 
  28   0.0000      -0.025981        -0.7070 
  29   0.0000       0.077836         2.1180 
  30   0.0000       0.129703         3.5294 
  31   0.0000       0.129651         3.5280 
  32   0.0000       0.129610         3.5269 
  33   0.0000       0.527555        14.3555 
  34   0.0000       0.527561        14.3557 
  35   0.0000       0.527586        14.3563 
  36   0.0000       0.527615        14.3571 
  37   0.0000       0.527617        14.3572 
  38   0.0000       1.111887        30.2560 
  39   0.0000       1.111888        30.2560 
  40   0.0000       1.111909        30.2566 
  41   0.0000       1.111917        30.2568 
  42   0.0000       1.111923        30.2570 
  43   0.0000       1.111946        30.2576 
  44   0.0000       1.111947        30.2576 
  45   0.0000       1.696864        46.1740 
  46   0.0000       1.769416        48.1483 
  47   0.0000       1.769428        48.1486 
  48   0.0000       1.769439        48.1489 
  49   0.0000       3.625235        98.6477 
  50   0.0000       3.625238        98.6477 
  51   0.0000       3.625252        98.6481 
  52   0.0000       3.625268        98.6486 
  53   0.0000       3.625269        98.6486 
  54   0.0000       4.036371       109.8352 
  55   0.0000       4.036371       109.8353 
  56   0.0000       4.036389       109.8357 
  57   0.0000       4.036396       109.8359 
  58   0.0000       4.036401       109.8361 
  59   0.0000       4.036421       109.8366 
  60   0.0000       4.036422       109.8366 
  61   0.0000      11.012616       299.6685 
  62   0.0000      14.217129       386.8677 
  63   0.0000      14.217136       386.8679 
  64   0.0000      14.217142       386.8681 
  65   0.0000      85.950799      2338.8401 
  66   0.0000      89.189826      2426.9785 
  67   0.0000      89.189827      2426.9786 
  68   0.0000      89.189829      2426.9786 
  69   0.0000      95.606121      2601.5748 
  70   0.0000     358.658757      9759.6009 
  71   0.0000     781.353155     21261.7003 
CleanUpVectors: The p-vectors have cracked symmetry
CleanUpVectors: The p-vectors have cracked symmetry
CleanUpVectors: The p-vectors have cracked symmetry
CleanUpVectors: The d-vectors have cracked symmetry at i=4
CleanUpVectors: The d-vectors have cracked symmetry at i=5
CleanUpVectors: The d-vectors have cracked symmetry at i=6
CleanUpVectors: The d-vectors have cracked symmetry at i=7
CleanUpVectors: The d-vectors have cracked symmetry at i=8
CleanUpVectors: The p-vectors have cracked symmetry
CleanUpVectors: The p-vectors have cracked symmetry
CleanUpVectors: The p-vectors have cracked symmetry
CleanUpVectors: The f-vectors have cracked symmetry
CleanUpVectors: The f-vectors have cracked symmetry
CleanUpVectors: The f-vectors have cracked symmetry
CleanUpVectors: The f-vectors have cracked symmetry
CleanUpVectors: The f-vectors have cracked symmetry
CleanUpVectors: The f-vectors have cracked symmetry
CleanUpVectors: The f-vectors have cracked symmetry
CleanUpVectors: The d-vectors have cracked symmetry at i=20
CleanUpVectors: The d-vectors have cracked symmetry at i=21
CleanUpVectors: The d-vectors have cracked symmetry at i=22
CleanUpVectors: The d-vectors have cracked symmetry at i=23
CleanUpVectors: The d-vectors have cracked symmetry at i=24
CleanUpVectors: The p-vectors have cracked symmetry
CleanUpVectors: The p-vectors have cracked symmetry
CleanUpVectors: The p-vectors have cracked symmetry
CleanUpVectors: The p-vectors have cracked symmetry
CleanUpVectors: The p-vectors have cracked symmetry
CleanUpVectors: The p-vectors have cracked symmetry
CleanUpVectors: The d-vectors have cracked symmetry at i=33
CleanUpVectors: The d-vectors have cracked symmetry at i=34
CleanUpVectors: The d-vectors have cracked symmetry at i=35
CleanUpVectors: The d-vectors have cracked symmetry at i=36
CleanUpVectors: The d-vectors have cracked symmetry at i=37
CleanUpVectors: The f-vectors have cracked symmetry
CleanUpVectors: The f-vectors have cracked symmetry
CleanUpVectors: The f-vectors have cracked symmetry
CleanUpVectors: The f-vectors have cracked symmetry
CleanUpVectors: The f-vectors have cracked symmetry
CleanUpVectors: The f-vectors have cracked symmetry
CleanUpVectors: The f-vectors have cracked symmetry
CleanUpVectors: The p-vectors have cracked symmetry
CleanUpVectors: The p-vectors have cracked symmetry
CleanUpVectors: The p-vectors have cracked symmetry
CleanUpVectors: The d-vectors have cracked symmetry at i=49
CleanUpVectors: The d-vectors have cracked symmetry at i=50
CleanUpVectors: The d-vectors have cracked symmetry at i=51
CleanUpVectors: The d-vectors have cracked symmetry at i=52
CleanUpVectors: The d-vectors have cracked symmetry at i=53
CleanUpVectors: The f-vectors have cracked symmetry
CleanUpVectors: The f-vectors have cracked symmetry
CleanUpVectors: The f-vectors have cracked symmetry
CleanUpVectors: The f-vectors have cracked symmetry
CleanUpVectors: The f-vectors have cracked symmetry
CleanUpVectors: The f-vectors have cracked symmetry
CleanUpVectors: The f-vectors have cracked symmetry
CleanUpVectors: The p-vectors have cracked symmetry
CleanUpVectors: The p-vectors have cracked symmetry
CleanUpVectors: The p-vectors have cracked symmetry
--------------------------
ATOM BASIS FOR ELEMENT Lu
--------------------------
 NewGTO Lu
 S 14
    1      95170.170993000007         0.000022090803
    2      15488.459998000000         0.000146086195
    3       3776.246598600000         0.000653294362
    4       1079.052204200000         0.002042622027
    5        268.954008900000         0.005137078119
    6         63.480150654000        -0.203585812235
    7         45.178236733000         0.593758148191
    8         21.463101062000        -1.016158079018
    9          5.350128473800         0.988056604743
   10          2.678432420900         0.402024753029
   11          1.028699637400         0.016418483657
   12          0.440655822500        -0.001096804710
   13          0.079102478300         0.000297564155
   14          0.031295760100        -0.000127015660
 P 43
    1        489.412448040000        -0.001210400170
    2        133.953739520000        -0.003554011871
    3         45.499231322000        -0.007248617987
    4         15.561271894000         0.048484678657
    5          5.848782478900        -0.062830646249
    6        489.412448040000         0.002642628277
    7        133.953739520000         0.007759361326
    8         45.499231322000         0.015825677604
    9         15.561271894000        -0.105855060176
   10          5.848782478900         0.137176155928
   11        489.412448040000         0.008175564430
   12        133.953739520000         0.024005327955
   13         45.499231322000         0.048960290037
   14         15.561271894000        -0.327486416551
   15          5.848782478900         0.424385264778
   16         12.304490544000        -0.019897959161
   17         11.051197278000        -0.026484132210
   18          2.006954924100        -0.025008814426
   19         12.304490544000         0.043442583361
   20         11.051197278000         0.057821966161
   21          2.006954924100         0.054600951618
   22         12.304490544000         0.134399390866
   23         11.051197278000         0.178885241838
   24          2.006954924100         0.168920309759
   25          3.775059996500        -0.050328511305
   26          3.775059996500         0.109880633839
   27          3.775059996500         0.339940475774
   28          1.135125124500        -0.000446271953
   29          1.135125124500         0.000974331904
   30          1.135125124500         0.003014321331
   31          0.404143489100        -0.000433335482
   32          0.404143489100         0.000946087469
   33          0.404143489100         0.002926925669
   34          0.081876438300         0.000077909244
   35          0.081876438300        -0.000170096954
   36          0.081876438300        -0.000526232048
   37          0.029091071800        -0.000033232558
   38          0.029091071800         0.000072555797
   39          0.029091071800         0.000224466762
   40        110.274664420000         0.000000308769
   41         41.223249497000         0.000000826640
   42         17.728967182000         0.000000960388
   43          7.426239264100         0.000000607561
 D 43
    1      95170.170993000007         0.000000000000
    2      15488.459998000000         0.000000000000
    3       3776.246598600000         0.000000000000
    4       1079.052204200000         0.000000000001
    5        268.954008900000         0.000000000010
    6         63.480150654000        -0.000000001146
    7         45.178236733000         0.000000004899
    8         21.463101062000        -0.000000020539
    9          5.350128473800         0.000000219128
   10          2.678432420900        -0.000000329082
   11          1.028699637400        -0.000000334272
   12          0.440655822500         0.000001116560
   13        487.982571080000         0.001563355571
   14        146.934067180000         0.012761547407
   15         55.761579916000         0.052671502906
   16         22.898741759000         0.114808263501
   17          9.104578783200         0.218952198078
   18          4.145784632400         0.318728885971
   19        487.982571080000         0.000388899962
   20        146.934067180000         0.003174559512
   21         55.761579916000         0.013102550595
   22         22.898741759000         0.028559676453
   23          9.104578783200         0.054466496968
   24          4.145784632400         0.079286922230
   25        487.982571080000         0.000463458698
   26        146.934067180000         0.003783176553
   27         55.761579916000         0.015614532350
   28         22.898741759000         0.034035052078
   29          9.104578783200         0.064908650623
   30          4.145784632400         0.094487573473
   31        487.982571080000         0.001284635307
   32        146.934067180000         0.010486376018
   33         55.761579916000         0.043281051059
   34         22.898741759000         0.094339861983
   35          9.104578783200         0.179916667299
   36          4.145784632400         0.261904833289
   37        487.982571080000        -0.000872141563
   38        146.934067180000        -0.007119222338
   39         55.761579916000        -0.029383594959
   40         22.898741759000        -0.064047527155
   41          9.104578783200        -0.122145797039
   42          4.145784632400        -0.177807732272
   43          1.738336379500         0.145623741102
 S 14
    1      95170.170993000007        -0.000011795643
    2      15488.459998000000        -0.000078004438
    3       3776.246598600000        -0.000348834191
    4       1079.052204200000        -0.001090682000
    5        268.954008900000        -0.002743003141
    6         63.480150654000         0.088306083726
    7         45.178236733000        -0.269037578069
    8         21.463101062000         0.508841574595
    9          5.350128473800        -0.731328536092
   10          2.678432420900        -0.433217182172
   11          1.028699637400         0.753229323772
   12          0.440655822500         0.631431368392
   13          0.079102478300         0.031680319248
   14          0.031295760100        -0.009753397358
 S 14
    1      95170.170993000007        -0.000001906213
    2      15488.459998000000        -0.000012605759
    3       3776.246598600000        -0.000056372687
    4       1079.052204200000        -0.000176257593
    5        268.954008900000        -0.000443277813
    6         63.480150654000         0.013781086088
    7         45.178236733000        -0.042693490058
    8         21.463101062000         0.082474206335
    9          5.350128473800        -0.120767001770
   10          2.678432420900        -0.094504281509
   11          1.028699637400         0.195848541405
   12          0.440655822500         0.170222131153
   13          0.079102478300         0.222072433442
   14          0.031295760100        -1.216230522528
 S 14
    1      95170.170993000007        -0.000004046177
    2      15488.459998000000        -0.000026757318
    3       3776.246598600000        -0.000119658159
    4       1079.052204200000        -0.000374129039
    5        268.954008900000        -0.000940913236
    6         63.480150654000         0.030761765398
    7         45.178236733000        -0.089483349856
    8         21.463101062000         0.163971630773
    9          5.350128473800        -0.280128772407
   10          2.678432420900        -0.027682682852
   11          1.028699637400         0.034001962615
   12          0.440655822500         0.914862820411
   13          0.079102478300        -2.533039097617
   14          0.031295760100         1.770665293769
 S 14
    1      95170.170993000007        -0.000005601343
    2      15488.459998000000        -0.000037041610
    3       3776.246598600000        -0.000165649293
    4       1079.052204200000        -0.000517927160
    5        268.954008900000        -0.001302557325
    6         63.480150654000         0.025839092355
    7         45.178236733000        -0.128778620521
    8         21.463101062000         0.326762789344
    9          5.350128473800        -0.155338790655
   10          2.678432420900        -1.933970917586
   11          1.028699637400         4.759897505967
   12          0.440655822500        -3.861932341678
   13          0.079102478300         1.493340948399
   14          0.031295760100        -0.678226119473
 S 14
    1      95170.170993000007         0.000061361531
    2      15488.459998000000         0.000405783013
    3       3776.246598600000         0.001814653026
    4       1079.052204200000         0.005673782684
    5        268.954008900000         0.014269240464
    6         63.480150654000        -0.487493141786
    7         45.178236733000         1.223860750569
    8         21.463101062000        -1.994134632369
    9          5.350128473800         6.489899372634
   10          2.678432420900        -8.674713143448
   11          1.028699637400         5.590853141218
   12          0.440655822500        -2.366365237933
   13          0.079102478300         0.580809290189
   14          0.031295760100        -0.258770400418
 S 14
    1      95170.170993000007         0.003037525944
    2      15488.459998000000         0.020087119831
    3       3776.246598600000         0.089829173706
    4       1079.052204200000         0.280864277128
    5        268.954008900000         0.706357668506
    6         63.480150654000        -0.654683767417
    7         45.178236733000         0.705301542037
    8         21.463101062000         0.201393390729
    9          5.350128473800        -0.425721429698
   10          2.678432420900         0.408743421750
   11          1.028699637400        -0.203887736172
   12          0.440655822500         0.081140663881
   13          0.079102478300        -0.020378008990
   14          0.031295760100         0.009201468694
 S 14
    1      95170.170993000007         0.000777255259
    2      15488.459998000000         0.005139978989
    3       3776.246598600000         0.022985876987
    4       1079.052204200000         0.071868764431
    5        268.954008900000         0.180745851346
    6         63.480150654000        -5.076079600968
    7         45.178236733000         9.594885214154
    8         21.463101062000        -6.935800978435
    9          5.350128473800         4.719039593977
   10          2.678432420900        -4.019056367744
   11          1.028699637400         1.869528017863
   12          0.440655822500        -0.727095635949
   13          0.079102478300         0.180372210357
   14          0.031295760100        -0.081334350055
 S 14
    1      95170.170993000007        -0.000418761156
    2      15488.459998000000        -0.002769262119
    3       3776.246598600000        -0.012384081442
    4       1079.052204200000        -0.038720673235
    5        268.954008900000        -0.097380288975
    6         63.480150654000        -7.968198238283
    7         45.178236733000        12.328766286519
    8         21.463101062000        -4.938501388929
    9          5.350128473800         2.182404674178
   10          2.678432420900        -1.755531128006
   11          1.028699637400         0.802620901332
   12          0.440655822500        -0.313034294896
   13          0.079102478300         0.078245308140
   14          0.031295760100        -0.035348044463
 S 14
    1      95170.170993000007        -0.003935440459
    2      15488.459998000000        -0.026025016920
    3       3776.246598600000        -0.116383323508
    4       1079.052204200000        -0.363889777434
    5        268.954008900000        -0.915162075469
    6         63.480150654000        10.775372268841
    7         45.178236733000       -12.580630329431
    8         21.463101062000         3.854166452756
    9          5.350128473800        -1.518890980603
   10          2.678432420900         1.211114732854
   11          1.028699637400        -0.553100191478
   12          0.440655822500         0.216008733971
   13          0.079102478300        -0.054093337826
   14          0.031295760100         0.024447083214
 P 43
    1        489.412448040000        -0.000891147335
    2        133.953739520000        -0.002616612492
    3         45.499231322000        -0.005336736361
    4         15.561271894000         0.035696452482
    5          5.848782478900        -0.046258555080
    6        489.412448040000         0.004657745828
    7        133.953739520000         0.013676207568
    8         45.499231322000         0.027893436423
    9         15.561271894000        -0.186574089585
   10          5.848782478900         0.241778865955
   11        489.412448040000        -0.001622849052
   12        133.953739520000        -0.004765056169
   13         45.499231322000        -0.009718614656
   14         15.561271894000         0.065006034175
   15          5.848782478900        -0.084240449775
   16         12.304490544000        -0.019266250293
   17         11.051197278000        -0.025643329340
   18          2.006954924100        -0.024214849089
   19         12.304490544000         0.100698609128
   20         11.051197278000         0.134029588457
   21          2.006954924100         0.126563373067
   22         12.304490544000        -0.035085349192
   23         11.051197278000        -0.046698509084
   24          2.006954924100        -0.044097134781
   25          3.775059996500        -0.021165429262
   26          3.775059996500         0.110625015257
   27          3.775059996500        -0.038543901582
   28          1.135125124500         0.111821899916
   29          1.135125124500        -0.584457770587
   30          1.135125124500         0.203636370446
   31          0.404143489100         0.102727577951
   32          0.404143489100        -0.536924623867
   33          0.404143489100         0.187075050600
   34          0.081876438300         0.010690109294
   35          0.081876438300        -0.055873827015
   36          0.081876438300         0.019467748541
   37          0.029091071800        -0.002799129436
   38          0.029091071800         0.014630154567
   39          0.029091071800        -0.005097504780
   40        110.274664420000        -0.000011848171
   41         41.223249497000        -0.000031720051
   42         17.728967182000        -0.000036852284
   43          7.426239264100        -0.000023313515
 F 43
    1        489.412448040000         0.000000000021
    2        133.953739520000         0.000000000230
    3         45.499231322000         0.000000001380
    4         15.561271894000        -0.000000026995
    5          5.848782478900         0.000000093073
    6        489.412448040000        -0.000000000004
    7        133.953739520000        -0.000000000045
    8         45.499231322000        -0.000000000270
    9         15.561271894000         0.000000005281
   10          5.848782478900        -0.000000018207
   11        489.412448040000        -0.000000000024
   12        133.953739520000        -0.000000000262
   13         45.499231322000        -0.000000001574
   14         15.561271894000         0.000000030783
   15          5.848782478900        -0.000000106133
   16         12.304490544000         0.000000018849
   17         11.051197278000         0.000000027934
   18          2.006954924100         0.000000145247
   19         12.304490544000        -0.000000003673
   20         11.051197278000        -0.000000005443
   21          2.006954924100        -0.000000028301
   22         12.304490544000        -0.000000021410
   23         11.051197278000        -0.000000031728
   24          2.006954924100        -0.000000164976
   25          3.775059996500         0.000000010913
   26          3.775059996500        -0.000000001833
   27          3.775059996500        -0.000000011698
   28          1.135125124500        -0.000000906708
   29          1.135125124500         0.000000165596
   30          1.135125124500         0.000000976272
   31          0.404143489100        -0.000002044499
   32          0.404143489100         0.000000419227
   33          0.404143489100         0.000002463096
   34          0.081876438300        -0.000019759424
   35          0.081876438300         0.000026676732
   36        110.274664420000         0.007789584288
   37         41.223249497000         0.055786659345
   38         17.728967182000         0.150702229471
   39          7.426239264100         0.227602764467
   40          3.043459452000         0.218289046744
   41        110.274664420000        -0.000514640249
   42         41.223249497000        -0.003685698647
   43         17.728967182000        -0.009956556098
 D 43
    1      95170.170993000007        -0.000000000000
    2      15488.459998000000        -0.000000000001
    3       3776.246598600000        -0.000000000027
    4       1079.052204200000        -0.000000000300
    5        268.954008900000        -0.000000003027
    6         63.480150654000         0.000000406305
    7         45.178236733000        -0.000001721361
    8         21.463101062000         0.000006853640
    9          5.350128473800        -0.000043315418
   10          2.678432420900        -0.000041204821
   11          1.028699637400         0.000219807257
   12          0.440655822500         0.001298583249
   13          0.079102478300        -0.019862541510
   14          0.031295760100         0.022217890069
   15        487.982571080000         0.000335079379
   16        146.934067180000         0.002735226367
   17         55.761579916000         0.011289264454
   18         22.898741759000         0.024607250157
   19          9.104578783200         0.046928778001
   20          4.145784632400         0.068314258836
   21        487.982571080000         0.000181392232
   22        146.934067180000         0.001480690385
   23         55.761579916000         0.006111342570
   24         22.898741759000         0.013320915284
   25          9.104578783200         0.025404475192
   26          4.145784632400         0.036981314404
   27        487.982571080000        -0.000026317658
   28        146.934067180000        -0.000214828950
   29         55.761579916000        -0.000886676458
   30         22.898741759000        -0.001932691851
   31          9.104578783200        -0.003685859502
   32          4.145784632400        -0.005365508559
   33        487.982571080000        -0.000283629104
   34        146.934067180000        -0.002315241857
   35         55.761579916000        -0.009555837102
   36         22.898741759000        -0.020828892351
   37          9.104578783200        -0.039723027112
   38          4.145784632400        -0.057824841632
   39        487.982571080000         0.000234630372
   40        146.934067180000         0.001915269103
   41         55.761579916000         0.007905005473
   42         22.898741759000         0.017230568738
   43          9.104578783200         0.032860621564
 P 43
    1        489.412448040000        -0.000083657645
    2        133.953739520000        -0.000245637988
    3         45.499231322000        -0.000500993244
    4         15.561271894000         0.003351052089
    5          5.848782478900        -0.004342583558
    6        489.412448040000         0.000437748351
    7        133.953739520000         0.001285329327
    8         45.499231322000         0.002621505392
    9         15.561271894000        -0.017534769627
   10          5.848782478900         0.022723073310
   11        489.412448040000        -0.000152415276
   12        133.953739520000        -0.000447526127
   13         45.499231322000        -0.000912756077
   14         15.561271894000         0.006105258298
   15          5.848782478900        -0.007911722527
   16         12.304490544000        -0.001840025841
   17         11.051197278000        -0.002449069638
   18          2.006954924100        -0.002312642438
   19         12.304490544000         0.009628149126
   20         11.051197278000         0.012815041599
   21          2.006954924100         0.012101170416
   22         12.304490544000        -0.003352329841
   23         11.051197278000        -0.004461942354
   24          2.006954924100        -0.004213386620
   25          3.775059996500        -0.002540263685
   26          3.775059996500         0.013292222578
   27          3.775059996500        -0.004628096829
   28          1.135125124500         0.014274654078
   29          1.135125124500        -0.074693777769
   30          1.135125124500         0.026006901249
   31          0.404143489100         0.007150053211
   32          0.404143489100        -0.037413500448
   33          0.404143489100         0.013026557858
   34          0.081876438300         0.036396958288
   35          0.081876438300        -0.190451133399
   36          0.081876438300         0.066312224704
   37          0.029091071800        -0.202490836176
   38          0.029091071800         1.059556278985
   39          0.029091071800        -0.368918072931
   40        110.274664420000         0.000002680061
   41         41.223249497000         0.000007175088
   42         17.728967182000         0.000008336002
   43          7.426239264100         0.000005273527
 P 43
    1        489.412448040000        -0.000297236818
    2        133.953739520000        -0.000872755314
    3         45.499231322000        -0.001780036223
    4         15.561271894000         0.011906336412
    5          5.848782478900        -0.015429262026
    6        489.412448040000         0.001551058886
    7        133.953739520000         0.004554263813
    8         45.499231322000         0.009288691145
    9         15.561271894000        -0.062130354519
   10          5.848782478900         0.080513894992
   11        489.412448040000        -0.000546700451
   12        133.953739520000        -0.001605237624
   13         45.499231322000        -0.003273977335
   14         15.561271894000         0.021899035000
   15          5.848782478900        -0.028378666404
   16         12.304490544000        -0.006586479281
   17         11.051197278000        -0.008766586898
   18          2.006954924100        -0.008278237820
   19         12.304490544000         0.034369958931
   20         11.051197278000         0.045746326495
   21          2.006954924100         0.043197994214
   22         12.304490544000        -0.012114350281
   23         11.051197278000        -0.016124168910
   24          2.006954924100        -0.015225960392
   25          3.775059996500        -0.003179143049
   26          3.775059996500         0.016589588435
   27          3.775059996500        -0.005847360760
   28          1.135125124500         0.031821519196
   29          1.135125124500        -0.166052926733
   30          1.135125124500         0.058528661240
   31          0.404143489100         0.077296638789
   32          0.404143489100        -0.403353977080
   33          0.404143489100         0.142169399611
   34          0.081876438300        -0.292090221298
   35          0.081876438300         1.524202747791
   36          0.081876438300        -0.537232263480
   37          0.029091071800         0.176215032535
   38          0.029091071800        -0.919535948171
   39          0.029091071800         0.324106339206
   40        110.274664420000         0.000011108909
   41         41.223249497000         0.000029740890
   42         17.728967182000         0.000034552900
   43          7.426239264100         0.000021858878
 P 13
    1        489.412448040000         0.106859998925
    2        133.953739520000         0.313765409261
    3         45.499231322000         0.639943160538
    4         15.561271894000        -4.280462641875
    5          5.848782478900         5.546994256364
    6         12.304490544000         0.870193544146
    7         11.051197278000         1.158225357927
    8          2.006954924100         1.093705574705
    9          3.775059996500        -5.681099452992
   10          1.135125124500         0.570804544628
   11          0.404143489100        -0.338826304632
   12          0.081876438300         0.111770272059
   13          0.029091071800        -0.048694377280
 D 43
    1      95170.170993000007         0.000000000000
    2      15488.459998000000         0.000000000000
    3       3776.246598600000         0.000000000004
    4       1079.052204200000         0.000000000043
    5        268.954008900000         0.000000000431
    6         63.480150654000        -0.000000058626
    7         45.178236733000         0.000000246465
    8         21.463101062000        -0.000000973025
    9          5.350128473800         0.000006153577
   10          2.678432420900         0.000004997995
   11          1.028699637400        -0.000022340207
   12          0.440655822500        -0.000201977024
   13          0.079102478300         0.002813336576
   14          0.031295760100        -0.003467341998
   15        487.982571080000         0.000452684364
   16        146.934067180000         0.003695226526
   17         55.761579916000         0.015251530908
   18         22.898741759000         0.033243816537
   19          9.104578783200         0.063399675958
   20          4.145784632400         0.092290957872
   21        487.982571080000         0.000238793801
   22        146.934067180000         0.001949254835
   23         55.761579916000         0.008045276834
   24         22.898741759000         0.017536318724
   25          9.104578783200         0.033443720981
   26          4.145784632400         0.048684050786
   27        487.982571080000        -0.000037779350
   28        146.934067180000        -0.000308389837
   29         55.761579916000        -0.001272835941
   30         22.898741759000        -0.002774405058
   31          9.104578783200        -0.005291100722
   32          4.145784632400        -0.007702259459
   33        487.982571080000        -0.000399843662
   34        146.934067180000        -0.003263892070
   35         55.761579916000        -0.013471258237
   36         22.898741759000        -0.029363349820
   37          9.104578783200        -0.055999191956
   38          4.145784632400        -0.081518067524
   39        487.982571080000         0.000327102656
   40        146.934067180000         0.002670113010
   41         55.761579916000         0.011020518177
   42         22.898741759000         0.024021462936
   43          9.104578783200         0.045811616259
 F 43
    1        489.412448040000        -0.000000000013
    2        133.953739520000        -0.000000000142
    3         45.499231322000        -0.000000000856
    4         15.561271894000         0.000000016732
    5          5.848782478900        -0.000000057688
    6        489.412448040000         0.000000000070
    7        133.953739520000         0.000000000751
    8         45.499231322000         0.000000004510
    9         15.561271894000        -0.000000088200
   10          5.848782478900         0.000000304099
   11        489.412448040000        -0.000000000024
   12        133.953739520000        -0.000000000262
   13         45.499231322000        -0.000000001574
   14         15.561271894000         0.000000030788
   15          5.848782478900        -0.000000106154
   16         12.304490544000        -0.000000011802
   17         11.051197278000        -0.000000017489
   18          2.006954924100        -0.000000090940
   19         12.304490544000         0.000000062212
   20         11.051197278000         0.000000092194
   21          2.006954924100         0.000000479382
   22         12.304490544000        -0.000000021712
   23         11.051197278000        -0.000000032176
   24          2.006954924100        -0.000000167306
   25          3.775059996500        -0.000000137704
   26          3.775059996500         0.000000724534
   27          3.775059996500        -0.000000252899
   28          1.135125124500         0.000002175595
   29          1.135125124500        -0.000011453849
   30          1.135125124500         0.000003994003
   31          0.404143489100        -0.000004528124
   32          0.404143489100         0.000023813977
   33          0.404143489100        -0.000008284524
   34          0.081876438300         0.000012547965
   35          0.081876438300        -0.000065937569
   36          0.081876438300         0.000022907567
   37          0.029091071800         0.000081591399
   38        110.274664420000        -0.001212286562
   39         41.223249497000        -0.008682031668
   40         17.728967182000        -0.023453663367
   41          7.426239264100        -0.035421630045
   42          3.043459452000        -0.033972143857
   43        110.274664420000         0.002313939855
 P 43
    1        489.412448040000        -0.000853330794
    2        133.953739520000        -0.002505574475
    3         45.499231322000        -0.005110267739
    4         15.561271894000         0.034181645335
    5          5.848782478900        -0.044295536771
    6        489.412448040000         0.004460165002
    7        133.953739520000         0.013096065051
    8         45.499231322000         0.026710201354
    9         15.561271894000        -0.178659646829
   10          5.848782478900         0.231522645499
   11        489.412448040000        -0.001559229595
   12        133.953739520000        -0.004578254884
   13         45.499231322000        -0.009337622357
   14         15.561271894000         0.062457646441
   15          5.848782478900        -0.080938028213
   16         12.304490544000        -0.019318496011
   17         11.051197278000        -0.025712868256
   18          2.006954924100        -0.024280514289
   19         12.304490544000         0.100973363029
   20         11.051197278000         0.134395285189
   21          2.006954924100         0.126908698398
   22         12.304490544000        -0.035299288915
   23         11.051197278000        -0.046983262302
   24          2.006954924100        -0.044366025615
   25          3.775059996500        -0.061121156702
   26          3.775059996500         0.319466314096
   27          3.775059996500        -0.111682260599
   28          1.135125124500         0.346581506647
   29          1.135125124500        -1.811502310035
   30          1.135125124500         0.633283234638
   31          0.404143489100        -0.321309108890
   32          0.404143489100         1.679409258487
   33          0.404143489100        -0.587104747907
   34          0.081876438300         0.133762874887
   35          0.081876438300        -0.699147960481
   36          0.081876438300         0.244415183953
   37          0.029091071800        -0.057105792321
   38          0.029091071800         0.298478919131
   39          0.029091071800        -0.104345268658
   40        110.274664420000         0.000010267445
   41         41.223249497000         0.000027488112
   42         17.728967182000         0.000031935627
   43          7.426239264100         0.000020203137
 D 43
    1      95170.170993000007         0.000000000000
    2      15488.459998000000         0.000000000000
    3       3776.246598600000         0.000000000001
    4       1079.052204200000         0.000000000006
    5        268.954008900000         0.000000000062
    6         63.480150654000        -0.000000008202
    7         45.178236733000         0.000000035627
    8         21.463101062000        -0.000000145092
    9          5.350128473800         0.000000801238
   10          2.678432420900         0.000002426291
   11          1.028699637400        -0.000021503297
   12          0.440655822500         0.000038452374
   13          0.079102478300        -0.000056465535
   14          0.031295760100         0.000043637739
   15        487.982571080000         0.001290370349
   16        146.934067180000         0.010533190716
   17         55.761579916000         0.043474272179
   18         22.898741759000         0.094761026750
   19          9.104578783200         0.180719875611
   20          4.145784632400         0.263074064256
   21        487.982571080000         0.000687171228
   22        146.934067180000         0.005609324177
   23         55.761579916000         0.023151701379
   24         22.898741759000         0.050463846402
   25          9.104578783200         0.096240198713
   26          4.145784632400         0.140096932529
   27        487.982571080000        -0.000102509471
   28        146.934067180000        -0.000836776675
   29         55.761579916000        -0.003453678749
   30         22.898741759000        -0.007527995937
   31          9.104578783200        -0.014356730145
   32          4.145784632400        -0.020899103299
   33        487.982571080000        -0.001111757089
   34        146.934067180000        -0.009075184855
   35         55.761579916000        -0.037456556811
   36         22.898741759000        -0.081644191014
   37          9.104578783200        -0.155704602940
   38          4.145784632400        -0.226659312267
   39        487.982571080000         0.000912920411
   40        146.934067180000         0.007452096839
   41         55.761579916000         0.030757487927
   42         22.898741759000         0.067042206577
   43          9.104578783200         0.127856985607
 F 43
    1        489.412448040000        -0.000000000007
    2        133.953739520000        -0.000000000078
    3         45.499231322000        -0.000000000467
    4         15.561271894000         0.000000009128
    5          5.848782478900        -0.000000031474
    6        489.412448040000         0.000000000039
    7        133.953739520000         0.000000000415
    8         45.499231322000         0.000000002490
    9         15.561271894000        -0.000000048697
   10          5.848782478900         0.000000167900
   11        489.412448040000        -0.000000000014
   12        133.953739520000        -0.000000000145
   13         45.499231322000        -0.000000000872
   14         15.561271894000         0.000000017051
   15          5.848782478900        -0.000000058789
   16         12.304490544000        -0.000000006789
   17         11.051197278000        -0.000000010061
   18          2.006954924100        -0.000000052313
   19         12.304490544000         0.000000036217
   20         11.051197278000         0.000000053672
   21          2.006954924100         0.000000279078
   22         12.304490544000        -0.000000012672
   23         11.051197278000        -0.000000018779
   24          2.006954924100        -0.000000097646
   25          3.775059996500         0.000000014585
   26          3.775059996500        -0.000000077717
   27          3.775059996500         0.000000026442
   28          1.135125124500         0.000000492004
   29          1.135125124500        -0.000002623440
   30          1.135125124500         0.000000922547
   31          0.404143489100        -0.000000497569
   32          0.404143489100         0.000002642740
   33          0.404143489100        -0.000000930711
   34          0.081876438300         0.000013309621
   35        110.274664420000        -0.003201373205
   36         41.223249497000        -0.022927271834
   37         17.728967182000        -0.061935792924
   38          7.426239264100        -0.093540472085
   39          3.043459452000        -0.089712708593
   40        110.274664420000         0.006155696292
   41         41.223249497000         0.044085245039
   42         17.728967182000         0.119091997839
   43          7.426239264100         0.179862421606
 P 43
    1        489.412448040000        -0.006345297859
    2        133.953739520000        -0.018631246488
    3         45.499231322000        -0.037999532167
    4         15.561271894000         0.254171913822
    5          5.848782478900        -0.329377981788
    6        489.412448040000         0.033218203272
    7        133.953739520000         0.097536246017
    8         45.499231322000         0.198930958292
    9         15.561271894000        -1.330612760305
   10          5.848782478900         1.724323269791
   11        489.412448040000        -0.011471948930
   12        133.953739520000        -0.033684267146
   13         45.499231322000        -0.068701060542
   14         15.561271894000         0.459528816375
   15          5.848782478900        -0.595497243716
   16         12.304490544000        -0.180727405399
   17         11.051197278000        -0.240547709430
   18          2.006954924100        -0.227147824891
   19         12.304490544000         0.946124173834
   20         11.051197278000         1.259288829770
   21          2.006954924100         1.189139232584
   22         12.304490544000        -0.326745190300
   23         11.051197278000        -0.434897003698
   24          2.006954924100        -0.410670750827
   25          3.775059996500         0.751787242346
   26          3.775059996500        -3.935673630342
   27          3.775059996500         1.359189901377
   28          1.135125124500        -0.138841089698
   29          1.135125124500         0.726845556645
   30          1.135125124500        -0.251017019451
   31          0.404143489100         0.091762981108
   32          0.404143489100        -0.480387435231
   33          0.404143489100         0.165902398832
   34          0.081876438300        -0.030336196341
   35          0.081876438300         0.158812708291
   36          0.081876438300        -0.054846165895
   37          0.029091071800         0.013126884623
   38          0.029091071800        -0.068720418209
   39          0.029091071800         0.023732682485
   40        110.274664420000         0.000000072143
   41         41.223249497000         0.000000193143
   42         17.728967182000         0.000000224393
   43          7.426239264100         0.000000141956
 end
  // -----------------------------------------------
  // The basis set
  // -----------------------------------------------
  BAS[ATNO] = new BFNGauss[NSH];
  // Basis function   1 L = s
  InitBFNGauss(BAS[ATNO][  0]);
  BAS[ATNO][  0].l  = 0;
  BAS[ATNO][  0].ng = 14;
  BAS[ATNO][  0].a[  0] =     95170.170993000007;     BAS[ATNO][  0].d[  0] =        -0.000022090803;
  BAS[ATNO][  0].a[  1] =     15488.459998000000;     BAS[ATNO][  0].d[  1] =        -0.000146086195;
  BAS[ATNO][  0].a[  2] =      3776.246598600000;     BAS[ATNO][  0].d[  2] =        -0.000653294362;
  BAS[ATNO][  0].a[  3] =      1079.052204200000;     BAS[ATNO][  0].d[  3] =        -0.002042622027;
  BAS[ATNO][  0].a[  4] =       268.954008900000;     BAS[ATNO][  0].d[  4] =        -0.005137078119;
  BAS[ATNO][  0].a[  5] =        63.480150654000;     BAS[ATNO][  0].d[  5] =         0.203585812235;
  BAS[ATNO][  0].a[  6] =        45.178236733000;     BAS[ATNO][  0].d[  6] =        -0.593758148191;
  BAS[ATNO][  0].a[  7] =        21.463101062000;     BAS[ATNO][  0].d[  7] =         1.016158079018;
  BAS[ATNO][  0].a[  8] =         5.350128473800;     BAS[ATNO][  0].d[  8] =        -0.988056604743;
  BAS[ATNO][  0].a[  9] =         2.678432420900;     BAS[ATNO][  0].d[  9] =        -0.402024753029;
  BAS[ATNO][  0].a[ 10] =         1.028699637400;     BAS[ATNO][  0].d[ 10] =        -0.016418483657;
  BAS[ATNO][  0].a[ 11] =         0.440655822500;     BAS[ATNO][  0].d[ 11] =         0.001096804710;
  BAS[ATNO][  0].a[ 12] =         0.079102478300;     BAS[ATNO][  0].d[ 12] =        -0.000297564155;
  BAS[ATNO][  0].a[ 13] =         0.031295760100;     BAS[ATNO][  0].d[ 13] =         0.000127015660;

  // Basis function   2 L = p
  InitBFNGauss(BAS[ATNO][  1]);
  BAS[ATNO][  1].l  = 1;
  BAS[ATNO][  1].ng = 43;
  BAS[ATNO][  1].a[  0] =       489.412448040000;     BAS[ATNO][  1].d[  0] =        -0.001210400170;
  BAS[ATNO][  1].a[  1] =       133.953739520000;     BAS[ATNO][  1].d[  1] =        -0.003554011871;
  BAS[ATNO][  1].a[  2] =        45.499231322000;     BAS[ATNO][  1].d[  2] =        -0.007248617987;
  BAS[ATNO][  1].a[  3] =        15.561271894000;     BAS[ATNO][  1].d[  3] =         0.048484678657;
  BAS[ATNO][  1].a[  4] =         5.848782478900;     BAS[ATNO][  1].d[  4] =        -0.062830646249;
  BAS[ATNO][  1].a[  5] =       489.412448040000;     BAS[ATNO][  1].d[  5] =         0.002642628277;
  BAS[ATNO][  1].a[  6] =       133.953739520000;     BAS[ATNO][  1].d[  6] =         0.007759361326;
  BAS[ATNO][  1].a[  7] =        45.499231322000;     BAS[ATNO][  1].d[  7] =         0.015825677604;
  BAS[ATNO][  1].a[  8] =        15.561271894000;     BAS[ATNO][  1].d[  8] =        -0.105855060176;
  BAS[ATNO][  1].a[  9] =         5.848782478900;     BAS[ATNO][  1].d[  9] =         0.137176155928;
  BAS[ATNO][  1].a[ 10] =       489.412448040000;     BAS[ATNO][  1].d[ 10] =         0.008175564430;
  BAS[ATNO][  1].a[ 11] =       133.953739520000;     BAS[ATNO][  1].d[ 11] =         0.024005327955;
  BAS[ATNO][  1].a[ 12] =        45.499231322000;     BAS[ATNO][  1].d[ 12] =         0.048960290037;
  BAS[ATNO][  1].a[ 13] =        15.561271894000;     BAS[ATNO][  1].d[ 13] =        -0.327486416551;
  BAS[ATNO][  1].a[ 14] =         5.848782478900;     BAS[ATNO][  1].d[ 14] =         0.424385264778;
  BAS[ATNO][  1].a[ 15] =        12.304490544000;     BAS[ATNO][  1].d[ 15] =        -0.019897959161;
  BAS[ATNO][  1].a[ 16] =        11.051197278000;     BAS[ATNO][  1].d[ 16] =        -0.026484132210;
  BAS[ATNO][  1].a[ 17] =         2.006954924100;     BAS[ATNO][  1].d[ 17] =        -0.025008814426;
  BAS[ATNO][  1].a[ 18] =        12.304490544000;     BAS[ATNO][  1].d[ 18] =         0.043442583361;
  BAS[ATNO][  1].a[ 19] =        11.051197278000;     BAS[ATNO][  1].d[ 19] =         0.057821966161;
  BAS[ATNO][  1].a[ 20] =         2.006954924100;     BAS[ATNO][  1].d[ 20] =         0.054600951618;
  BAS[ATNO][  1].a[ 21] =        12.304490544000;     BAS[ATNO][  1].d[ 21] =         0.134399390866;
  BAS[ATNO][  1].a[ 22] =        11.051197278000;     BAS[ATNO][  1].d[ 22] =         0.178885241838;
  BAS[ATNO][  1].a[ 23] =         2.006954924100;     BAS[ATNO][  1].d[ 23] =         0.168920309759;
  BAS[ATNO][  1].a[ 24] =         3.775059996500;     BAS[ATNO][  1].d[ 24] =        -0.050328511305;
  BAS[ATNO][  1].a[ 25] =         3.775059996500;     BAS[ATNO][  1].d[ 25] =         0.109880633839;
  BAS[ATNO][  1].a[ 26] =         3.775059996500;     BAS[ATNO][  1].d[ 26] =         0.339940475774;
  BAS[ATNO][  1].a[ 27] =         1.135125124500;     BAS[ATNO][  1].d[ 27] =        -0.000446271953;
  BAS[ATNO][  1].a[ 28] =         1.135125124500;     BAS[ATNO][  1].d[ 28] =         0.000974331904;
  BAS[ATNO][  1].a[ 29] =         1.135125124500;     BAS[ATNO][  1].d[ 29] =         0.003014321331;
  BAS[ATNO][  1].a[ 30] =         0.404143489100;     BAS[ATNO][  1].d[ 30] =        -0.000433335482;
  BAS[ATNO][  1].a[ 31] =         0.404143489100;     BAS[ATNO][  1].d[ 31] =         0.000946087469;
  BAS[ATNO][  1].a[ 32] =         0.404143489100;     BAS[ATNO][  1].d[ 32] =         0.002926925669;
  BAS[ATNO][  1].a[ 33] =         0.081876438300;     BAS[ATNO][  1].d[ 33] =         0.000077909244;
  BAS[ATNO][  1].a[ 34] =         0.081876438300;     BAS[ATNO][  1].d[ 34] =        -0.000170096954;
  BAS[ATNO][  1].a[ 35] =         0.081876438300;     BAS[ATNO][  1].d[ 35] =        -0.000526232048;
  BAS[ATNO][  1].a[ 36] =         0.029091071800;     BAS[ATNO][  1].d[ 36] =        -0.000033232558;
  BAS[ATNO][  1].a[ 37] =         0.029091071800;     BAS[ATNO][  1].d[ 37] =         0.000072555797;
  BAS[ATNO][  1].a[ 38] =         0.029091071800;     BAS[ATNO][  1].d[ 38] =         0.000224466762;
  BAS[ATNO][  1].a[ 39] =       110.274664420000;     BAS[ATNO][  1].d[ 39] =         0.000000308769;
  BAS[ATNO][  1].a[ 40] =        41.223249497000;     BAS[ATNO][  1].d[ 40] =         0.000000826640;
  BAS[ATNO][  1].a[ 41] =        17.728967182000;     BAS[ATNO][  1].d[ 41] =         0.000000960388;
  BAS[ATNO][  1].a[ 42] =         7.426239264100;     BAS[ATNO][  1].d[ 42] =         0.000000607561;

  // Basis function   3 L = d
  InitBFNGauss(BAS[ATNO][  2]);
  BAS[ATNO][  2].l  = 2;
  BAS[ATNO][  2].ng = 43;
  BAS[ATNO][  2].a[  0] =     95170.170993000007;     BAS[ATNO][  2].d[  0] =         0.000000000000;
  BAS[ATNO][  2].a[  1] =     15488.459998000000;     BAS[ATNO][  2].d[  1] =         0.000000000000;
  BAS[ATNO][  2].a[  2] =      3776.246598600000;     BAS[ATNO][  2].d[  2] =         0.000000000000;
[...]
  BAS[ATNO][ 21].a[ 31] =         4.145784632400;     BAS[ATNO][ 21].d[ 31] =        -0.020899103299;
  BAS[ATNO][ 21].a[ 32] =       487.982571080000;     BAS[ATNO][ 21].d[ 32] =        -0.001111757089;
  BAS[ATNO][ 21].a[ 33] =       146.934067180000;     BAS[ATNO][ 21].d[ 33] =        -0.009075184855;
  BAS[ATNO][ 21].a[ 34] =        55.761579916000;     BAS[ATNO][ 21].d[ 34] =        -0.037456556811;
  BAS[ATNO][ 21].a[ 35] =        22.898741759000;     BAS[ATNO][ 21].d[ 35] =        -0.081644191014;
  BAS[ATNO][ 21].a[ 36] =         9.104578783200;     BAS[ATNO][ 21].d[ 36] =        -0.155704602940;
  BAS[ATNO][ 21].a[ 37] =         4.145784632400;     BAS[ATNO][ 21].d[ 37] =        -0.226659312267;
  BAS[ATNO][ 21].a[ 38] =       487.982571080000;     BAS[ATNO][ 21].d[ 38] =         0.000912920411;
  BAS[ATNO][ 21].a[ 39] =       146.934067180000;     BAS[ATNO][ 21].d[ 39] =         0.007452096839;
  BAS[ATNO][ 21].a[ 40] =        55.761579916000;     BAS[ATNO][ 21].d[ 40] =         0.030757487927;
  BAS[ATNO][ 21].a[ 41] =        22.898741759000;     BAS[ATNO][ 21].d[ 41] =         0.067042206577;
  BAS[ATNO][ 21].a[ 42] =         9.104578783200;     BAS[ATNO][ 21].d[ 42] =         0.127856985607;

  // Basis function  23 L = f
  InitBFNGauss(BAS[ATNO][ 22]);
  BAS[ATNO][ 22].l  = 3;
  BAS[ATNO][ 22].ng = 43;
  BAS[ATNO][ 22].a[  0] =       489.412448040000;     BAS[ATNO][ 22].d[  0] =        -0.000000000007;
  BAS[ATNO][ 22].a[  1] =       133.953739520000;     BAS[ATNO][ 22].d[  1] =        -0.000000000078;
  BAS[ATNO][ 22].a[  2] =        45.499231322000;     BAS[ATNO][ 22].d[  2] =        -0.000000000467;
  BAS[ATNO][ 22].a[  3] =        15.561271894000;     BAS[ATNO][ 22].d[  3] =         0.000000009128;
  BAS[ATNO][ 22].a[  4] =         5.848782478900;     BAS[ATNO][ 22].d[  4] =        -0.000000031474;
  BAS[ATNO][ 22].a[  5] =       489.412448040000;     BAS[ATNO][ 22].d[  5] =         0.000000000039;
  BAS[ATNO][ 22].a[  6] =       133.953739520000;     BAS[ATNO][ 22].d[  6] =         0.000000000415;
  BAS[ATNO][ 22].a[  7] =        45.499231322000;     BAS[ATNO][ 22].d[  7] =         0.000000002490;
  BAS[ATNO][ 22].a[  8] =        15.561271894000;     BAS[ATNO][ 22].d[  8] =        -0.000000048697;
  BAS[ATNO][ 22].a[  9] =         5.848782478900;     BAS[ATNO][ 22].d[  9] =         0.000000167900;
  BAS[ATNO][ 22].a[ 10] =       489.412448040000;     BAS[ATNO][ 22].d[ 10] =        -0.000000000014;
  BAS[ATNO][ 22].a[ 11] =       133.953739520000;     BAS[ATNO][ 22].d[ 11] =        -0.000000000145;
  BAS[ATNO][ 22].a[ 12] =        45.499231322000;     BAS[ATNO][ 22].d[ 12] =        -0.000000000872;
  BAS[ATNO][ 22].a[ 13] =        15.561271894000;     BAS[ATNO][ 22].d[ 13] =         0.000000017051;
  BAS[ATNO][ 22].a[ 14] =         5.848782478900;     BAS[ATNO][ 22].d[ 14] =        -0.000000058789;
  BAS[ATNO][ 22].a[ 15] =        12.304490544000;     BAS[ATNO][ 22].d[ 15] =        -0.000000006789;
  BAS[ATNO][ 22].a[ 16] =        11.051197278000;     BAS[ATNO][ 22].d[ 16] =        -0.000000010061;
  BAS[ATNO][ 22].a[ 17] =         2.006954924100;     BAS[ATNO][ 22].d[ 17] =        -0.000000052313;
  BAS[ATNO][ 22].a[ 18] =        12.304490544000;     BAS[ATNO][ 22].d[ 18] =         0.000000036217;
  BAS[ATNO][ 22].a[ 19] =        11.051197278000;     BAS[ATNO][ 22].d[ 19] =         0.000000053672;
  BAS[ATNO][ 22].a[ 20] =         2.006954924100;     BAS[ATNO][ 22].d[ 20] =         0.000000279078;
  BAS[ATNO][ 22].a[ 21] =        12.304490544000;     BAS[ATNO][ 22].d[ 21] =        -0.000000012672;
  BAS[ATNO][ 22].a[ 22] =        11.051197278000;     BAS[ATNO][ 22].d[ 22] =        -0.000000018779;
  BAS[ATNO][ 22].a[ 23] =         2.006954924100;     BAS[ATNO][ 22].d[ 23] =        -0.000000097646;
  BAS[ATNO][ 22].a[ 24] =         3.775059996500;     BAS[ATNO][ 22].d[ 24] =         0.000000014585;
  BAS[ATNO][ 22].a[ 25] =         3.775059996500;     BAS[ATNO][ 22].d[ 25] =        -0.000000077717;
  BAS[ATNO][ 22].a[ 26] =         3.775059996500;     BAS[ATNO][ 22].d[ 26] =         0.000000026442;
  BAS[ATNO][ 22].a[ 27] =         1.135125124500;     BAS[ATNO][ 22].d[ 27] =         0.000000492004;
  BAS[ATNO][ 22].a[ 28] =         1.135125124500;     BAS[ATNO][ 22].d[ 28] =        -0.000002623440;
  BAS[ATNO][ 22].a[ 29] =         1.135125124500;     BAS[ATNO][ 22].d[ 29] =         0.000000922547;
  BAS[ATNO][ 22].a[ 30] =         0.404143489100;     BAS[ATNO][ 22].d[ 30] =        -0.000000497569;
  BAS[ATNO][ 22].a[ 31] =         0.404143489100;     BAS[ATNO][ 22].d[ 31] =         0.000002642740;
  BAS[ATNO][ 22].a[ 32] =         0.404143489100;     BAS[ATNO][ 22].d[ 32] =        -0.000000930711;
  BAS[ATNO][ 22].a[ 33] =         0.081876438300;     BAS[ATNO][ 22].d[ 33] =         0.000013309621;
  BAS[ATNO][ 22].a[ 34] =       110.274664420000;     BAS[ATNO][ 22].d[ 34] =        -0.003201373205;
  BAS[ATNO][ 22].a[ 35] =        41.223249497000;     BAS[ATNO][ 22].d[ 35] =        -0.022927271834;
  BAS[ATNO][ 22].a[ 36] =        17.728967182000;     BAS[ATNO][ 22].d[ 36] =        -0.061935792924;
  BAS[ATNO][ 22].a[ 37] =         7.426239264100;     BAS[ATNO][ 22].d[ 37] =        -0.093540472085;
  BAS[ATNO][ 22].a[ 38] =         3.043459452000;     BAS[ATNO][ 22].d[ 38] =        -0.089712708593;
  BAS[ATNO][ 22].a[ 39] =       110.274664420000;     BAS[ATNO][ 22].d[ 39] =         0.006155696292;
  BAS[ATNO][ 22].a[ 40] =        41.223249497000;     BAS[ATNO][ 22].d[ 40] =         0.044085245039;
  BAS[ATNO][ 22].a[ 41] =        17.728967182000;     BAS[ATNO][ 22].d[ 41] =         0.119091997839;
  BAS[ATNO][ 22].a[ 42] =         7.426239264100;     BAS[ATNO][ 22].d[ 42] =         0.179862421606;

  // Basis function  24 L = p
  InitBFNGauss(BAS[ATNO][ 23]);
  BAS[ATNO][ 23].l  = 1;
  BAS[ATNO][ 23].ng = 43;
  BAS[ATNO][ 23].a[  0] =       489.412448040000;     BAS[ATNO][ 23].d[  0] =         0.006345297859;
  BAS[ATNO][ 23].a[  1] =       133.953739520000;     BAS[ATNO][ 23].d[  1] =         0.018631246488;
  BAS[ATNO][ 23].a[  2] =        45.499231322000;     BAS[ATNO][ 23].d[  2] =         0.037999532167;
  BAS[ATNO][ 23].a[  3] =        15.561271894000;     BAS[ATNO][ 23].d[  3] =        -0.254171913822;
  BAS[ATNO][ 23].a[  4] =         5.848782478900;     BAS[ATNO][ 23].d[  4] =         0.329377981788;
  BAS[ATNO][ 23].a[  5] =       489.412448040000;     BAS[ATNO][ 23].d[  5] =        -0.033218203272;
  BAS[ATNO][ 23].a[  6] =       133.953739520000;     BAS[ATNO][ 23].d[  6] =        -0.097536246017;
  BAS[ATNO][ 23].a[  7] =        45.499231322000;     BAS[ATNO][ 23].d[  7] =        -0.198930958292;
  BAS[ATNO][ 23].a[  8] =        15.561271894000;     BAS[ATNO][ 23].d[  8] =         1.330612760305;
  BAS[ATNO][ 23].a[  9] =         5.848782478900;     BAS[ATNO][ 23].d[  9] =        -1.724323269791;
  BAS[ATNO][ 23].a[ 10] =       489.412448040000;     BAS[ATNO][ 23].d[ 10] =         0.011471948930;
  BAS[ATNO][ 23].a[ 11] =       133.953739520000;     BAS[ATNO][ 23].d[ 11] =         0.033684267146;
  BAS[ATNO][ 23].a[ 12] =        45.499231322000;     BAS[ATNO][ 23].d[ 12] =         0.068701060542;
  BAS[ATNO][ 23].a[ 13] =        15.561271894000;     BAS[ATNO][ 23].d[ 13] =        -0.459528816375;
  BAS[ATNO][ 23].a[ 14] =         5.848782478900;     BAS[ATNO][ 23].d[ 14] =         0.595497243716;
  BAS[ATNO][ 23].a[ 15] =        12.304490544000;     BAS[ATNO][ 23].d[ 15] =         0.180727405399;
  BAS[ATNO][ 23].a[ 16] =        11.051197278000;     BAS[ATNO][ 23].d[ 16] =         0.240547709430;
  BAS[ATNO][ 23].a[ 17] =         2.006954924100;     BAS[ATNO][ 23].d[ 17] =         0.227147824891;
  BAS[ATNO][ 23].a[ 18] =        12.304490544000;     BAS[ATNO][ 23].d[ 18] =        -0.946124173834;
  BAS[ATNO][ 23].a[ 19] =        11.051197278000;     BAS[ATNO][ 23].d[ 19] =        -1.259288829770;
  BAS[ATNO][ 23].a[ 20] =         2.006954924100;     BAS[ATNO][ 23].d[ 20] =        -1.189139232584;
  BAS[ATNO][ 23].a[ 21] =        12.304490544000;     BAS[ATNO][ 23].d[ 21] =         0.326745190300;
  BAS[ATNO][ 23].a[ 22] =        11.051197278000;     BAS[ATNO][ 23].d[ 22] =         0.434897003698;
  BAS[ATNO][ 23].a[ 23] =         2.006954924100;     BAS[ATNO][ 23].d[ 23] =         0.410670750827;
  BAS[ATNO][ 23].a[ 24] =         3.775059996500;     BAS[ATNO][ 23].d[ 24] =        -0.751787242346;
  BAS[ATNO][ 23].a[ 25] =         3.775059996500;     BAS[ATNO][ 23].d[ 25] =         3.935673630342;
  BAS[ATNO][ 23].a[ 26] =         3.775059996500;     BAS[ATNO][ 23].d[ 26] =        -1.359189901377;
  BAS[ATNO][ 23].a[ 27] =         1.135125124500;     BAS[ATNO][ 23].d[ 27] =         0.138841089698;
  BAS[ATNO][ 23].a[ 28] =         1.135125124500;     BAS[ATNO][ 23].d[ 28] =        -0.726845556645;
  BAS[ATNO][ 23].a[ 29] =         1.135125124500;     BAS[ATNO][ 23].d[ 29] =         0.251017019451;
  BAS[ATNO][ 23].a[ 30] =         0.404143489100;     BAS[ATNO][ 23].d[ 30] =        -0.091762981108;
  BAS[ATNO][ 23].a[ 31] =         0.404143489100;     BAS[ATNO][ 23].d[ 31] =         0.480387435231;
  BAS[ATNO][ 23].a[ 32] =         0.404143489100;     BAS[ATNO][ 23].d[ 32] =        -0.165902398832;
  BAS[ATNO][ 23].a[ 33] =         0.081876438300;     BAS[ATNO][ 23].d[ 33] =         0.030336196341;
  BAS[ATNO][ 23].a[ 34] =         0.081876438300;     BAS[ATNO][ 23].d[ 34] =        -0.158812708291;
  BAS[ATNO][ 23].a[ 35] =         0.081876438300;     BAS[ATNO][ 23].d[ 35] =         0.054846165895;
  BAS[ATNO][ 23].a[ 36] =         0.029091071800;     BAS[ATNO][ 23].d[ 36] =        -0.013126884623;
  BAS[ATNO][ 23].a[ 37] =         0.029091071800;     BAS[ATNO][ 23].d[ 37] =         0.068720418209;
  BAS[ATNO][ 23].a[ 38] =         0.029091071800;     BAS[ATNO][ 23].d[ 38] =        -0.023732682485;
  BAS[ATNO][ 23].a[ 39] =       110.274664420000;     BAS[ATNO][ 23].d[ 39] =        -0.000000072143;
  BAS[ATNO][ 23].a[ 40] =        41.223249497000;     BAS[ATNO][ 23].d[ 40] =        -0.000000193143;
  BAS[ATNO][ 23].a[ 41] =        17.728967182000;     BAS[ATNO][ 23].d[ 41] =        -0.000000224393;
  BAS[ATNO][ 23].a[ 42] =         7.426239264100;     BAS[ATNO][ 23].d[ 42] =        -0.000000141956;

-------------------------------------------
RADIAL EXPECTATION VALUES <R**-3> TO <R**3>
-------------------------------------------
   0 :     0.000000     5.519538     2.224048     0.488412     0.258732     0.148597
   1 :    35.770788     6.538660     2.244367     0.516895     0.299734     0.192526
   2 :    35.770824     6.538663     2.244367     0.516895     0.299734     0.192526
   3 :    35.770869     6.538666     2.244367     0.516895     0.299734     0.192526
   4 :    31.442434     7.174499     2.327468     0.536567     0.344840     1.292134
   5 :    31.442427     7.174498     2.327467     0.536567     0.344840     1.292135
   6 :    31.442390     7.174491     2.327466     0.536568     0.344841     1.292140
   7 :    31.442360     7.174485     2.327465     0.536568     0.344841     1.292143
   8 :    31.442355     7.174484     2.327465     0.536568     0.344841     1.292144
   9 :     0.000000     1.309222     0.985369     1.197436     1.611118     2.399511
  10 :     0.000000     0.080083     0.231900     5.106740    29.341036   185.812373
  11 :     0.000000     0.167253     0.302800     4.713634    28.549787   202.847969
  12 :     0.000000     0.796805     0.698440     2.139018     6.918112    33.679854
  13 :     0.000000     3.881374     1.473089     1.025014     1.770422     5.880591
  14 :     0.000000  2916.676086    37.199362     0.047016     0.005963     0.007817
  15 :     0.000000   133.299688     4.525273     0.367652     0.261281     0.600399
  16 :     0.000000   169.520364     7.706922     0.191112     0.069078     0.115984
  17 :     0.000000  2058.324553    22.524227     0.112837     0.032808     0.054961
  18 :     9.451896     1.583134     0.917679     1.400918     2.266677     4.158994
  19 :     9.451713     1.583106     0.917669     1.400938     2.266763     4.159329
  20 :     9.451562     1.583083     0.917661     1.400955     2.266835     4.159610
  21 :    14.868070     4.684635     1.901554     0.686081     0.616152     5.041839
  22 :    14.868069     4.684635     1.901554     0.686081     0.616152     5.041842
  23 :    14.867971     4.684608     1.901546     0.686086     0.616165     5.042034
  24 :    14.867949     4.684602     1.901545     0.686087     0.616167     5.042078
  25 :    14.867912     4.684591     1.901542     0.686089     0.616172     5.042153
  26 :    14.867832     4.684569     1.901536     0.686094     0.616183     5.042314
  27 :    14.867829     4.684568     1.901535     0.686094     0.616183     5.042318
  28 :     1.496090     0.466633     0.475009     2.798326     9.255227   173.382424
  29 :     1.496048     0.466621     0.475003     2.798349     9.255348   173.387294
  30 :     1.495967     0.466603     0.474996     2.798377     9.255508   173.391111
  31 :     1.495907     0.466590     0.474991     2.798391     9.255582   173.392832
  32 :     1.495970     0.466606     0.474999     2.798354     9.255371   173.386418
  33 :     0.089839     0.041090     0.166178     6.718114    48.806240   379.337259
  34 :     0.089864     0.041094     0.166179     6.718122    48.806376   379.338817
  35 :     0.089896     0.041099     0.166181     6.718087    48.805978   379.334962
  36 :     0.991872     0.202286     0.294060     4.685660    28.082285   205.448643
  37 :  1146.011363    50.960818     4.561618     0.466443     0.424898     0.925494
  38 :  1146.011327    50.960817     4.561618     0.466443     0.424897     0.925494
  39 :  1146.011284    50.960816     4.561618     0.466443     0.424897     0.925493
  40 :     0.992087     0.202316     0.294071     4.685616    28.081945   205.445995
  41 :     0.992259     0.202340     0.294079     4.685620    28.082174   205.448964
  42 :     2.769019     0.749902     0.561753     2.815619    10.206814   212.948036
  43 :     2.769071     0.749915     0.561759     2.815593    10.206663   212.944400
  44 :     2.769157     0.749935     0.561767     2.815561    10.206482   212.940042
  45 :     2.769208     0.749945     0.561771     2.815551    10.206434   212.938927
  46 :     2.769180     0.749938     0.561767     2.815569    10.206535   212.941384
  47 :     1.020535     0.467721     0.516928     2.329638     5.842228   107.700667
  48 :     1.020534     0.467721     0.516928     2.329638     5.842228   107.700662
  49 :     1.020506     0.467713     0.516926     2.329638     5.842225   107.700546
  50 :     1.020492     0.467709     0.516925     2.329639     5.842225   107.700511
  51 :     1.020485     0.467707     0.516924     2.329638     5.842224   107.700468
  52 :     1.020450     0.467697     0.516922     2.329639     5.842221   107.700339
  53 :     1.020451     0.467697     0.516922     2.329639     5.842221   107.700334
  54 :    10.074614     1.610966     0.832392     1.998892     6.119278    29.043640
  55 :    10.074710     1.610972     0.832391     1.998907     6.119395    29.044385
  56 :    10.074783     1.610975     0.832390     1.998921     6.119490    29.044983
  57 :    18.917643     3.817866     1.374513     1.277628     2.440250    32.441483
  58 :    18.917638     3.817865     1.374513     1.277629     2.440254    32.441596
  59 :    18.917603     3.817858     1.374511     1.277633     2.440277    32.442156
  60 :    18.917559     3.817850     1.374509     1.277638     2.440304    32.442808
  61 :    18.917544     3.817847     1.374508     1.277638     2.440307    32.442863
  62 :     6.087424     1.993444     1.069997     1.377997     2.420128    35.778568
  63 :     6.087423     1.993444     1.069997     1.377997     2.420129    35.778578
  64 :     6.087370     1.993430     1.069993     1.378001     2.420142    35.778854
  65 :     6.087347     1.993423     1.069992     1.378002     2.420147    35.778964
  66 :     6.087332     1.993419     1.069990     1.378004     2.420151    35.779051
  67 :     6.087269     1.993402     1.069986     1.378008     2.420167    35.779372
  68 :     6.087268     1.993402     1.069986     1.378008     2.420167    35.779379
  69 :   304.228239    21.587117     3.148833     0.645893     0.781242     2.026198
  70 :   304.228076    21.587107     3.148832     0.645894     0.781245     2.026208
  71 :   304.227940    21.587098     3.148831     0.645894     0.781247     2.026216
Making the total density                ... o.k.
o.k.
Initializing the integrals              ... done
Making exponents                        ... done
Making rho(0)                           ... done (         2.330703332)
Integral calculation                    ... Two index integrals                     ... done
Solving the equation system             ... done
atomic density will be written to file 71_Lu_atom71.adf

-------
TIMINGS
-------

Total SCF time: 0 days 0 hours 0 min 5 sec 

Total time                  ....       5.248 sec
Sum of individual times     ....       4.631 sec  ( 88.2%)

Fock matrix formation       ....       4.308 sec  ( 82.1%)
Diagonalization             ....       0.193 sec  (  3.7%)
Density matrix formation    ....       0.004 sec  (  0.1%)
Population analysis         ....       0.000 sec  (  0.0%)
Initial guess               ....       0.001 sec  (  0.0%)
Orbital Transformation      ....       0.000 sec  (  0.0%)
Orbital Orthonormalization  ....       0.000 sec  (  0.0%)
DIIS solution               ....       0.124 sec  (  2.4%)

-------------------------   --------------------
FINAL SINGLE POINT ENERGY     -1232.110390469441
-------------------------   --------------------


                            ***************************************
                            *     ORCA property calculations      *
                            ***************************************

                                    ---------------------
                                    Active property flags
                                    ---------------------
   (+) Dipole Moment


------------------------------------------------------------------------------
                       ORCA ELECTRIC PROPERTIES CALCULATION
------------------------------------------------------------------------------

Dipole Moment Calculation                       ... on
Quadrupole Moment Calculation                   ... off
Polarizability Calculation                      ... off
GBWName                                         ... 71_Lu_atom71.gbw
Electron density file                           ... 71_Lu_atom71.scfp
The origin for moment calculation is the CENTER OF MASS  = ( 0.000000,  0.000000  0.000000)

-------------
DIPOLE MOMENT
-------------
                                X             Y             Z
Electronic contribution:      0.00000      -0.00000       0.00000
Nuclear contribution   :      0.00000       0.00000       0.00000
                        -----------------------------------------
Total Dipole Moment    :      0.00000      -0.00000       0.00000
                        -----------------------------------------
Magnitude (a.u.)       :      0.00000
Magnitude (Debye)      :      0.00000



--------------------
Rotational spectrum 
--------------------
 
Rotational constants in cm-1:     0.000000     0.000000     0.000000 
Rotational constants in MHz :     0.000000     0.000000     0.000000 

 Dipole components along the rotational axes: 
x,y,z [a.u.] :     0.000000    -0.000000     0.000000 
x,y,z [Debye]:     0.000000    -0.000000     0.000000 

 

Timings for individual modules:

Sum of individual times         ...        6.701 sec (=   0.112 min)
GTO integral calculation        ...        1.420 sec (=   0.024 min)  21.2 %
SCF iterations                  ...        5.281 sec (=   0.088 min)  78.8 %
                             ****ORCA TERMINATED NORMALLY****
TOTAL RUN TIME: 0 days 0 hours 0 minutes 6 seconds 995 msec
