
                                 *****************
                                 * O   R   C   A *
                                 *****************

           --- An Ab Initio, DFT and Semiempirical electronic structure package ---

                  #######################################################
                  #                        -***-                        #
                  #          Department of theory and spectroscopy      #
                  #               Directorship: Frank Neese             #
                  #        Max Planck Institute fuer Kohlenforschung    #
                  #                Kaiser Wilhelm Platz 1               #
                  #                 D-45470 Muelheim/Ruhr               #
                  #                      Germany                        #
                  #                                                     #
                  #                  All rights reserved                #
                  #                        -***-                        #
                  #######################################################


                         Program Version 4.2.0 -  RELEASE  -


 With contributions from (in alphabetic order):
   Daniel Aravena         : Magnetic Suceptibility
   Michael Atanasov       : Ab Initio Ligand Field Theory (pilot matlab implementation)
   Alexander A. Auer      : GIAO ZORA, VPT2
   Ute Becker             : Parallelization
   Giovanni Bistoni       : ED, misc. LED, open-shell LED, HFLED
   Martin Brehm           : Molecular dynamics
   Dmytro Bykov           : SCF Hessian
   Vijay G. Chilkuri      : MRCI spin determinant printing, contributions to CSF-ICE
   Dipayan Datta          : RHF DLPNO-CCSD density
   Achintya Kumar Dutta   : EOM-CC, STEOM-CC
   Dmitry Ganyushin       : Spin-Orbit,Spin-Spin,Magnetic field MRCI
   Miquel Garcia          : C-PCM Hessian, Gaussian charge scheme
   Yang Guo               : DLPNO-NEVPT2, CIM, IAO-localization
   Andreas Hansen         : Spin unrestricted coupled pair/coupled cluster methods
   Benjamin Helmich-Paris : CASSCF linear response (MC-RPA)
   Lee Huntington         : MR-EOM, pCC
   Robert Izsak           : Overlap fitted RIJCOSX, COSX-SCS-MP3, EOM
   Christian Kollmar      : KDIIS, OOCD, Brueckner-CCSD(T), CCSD density
   Simone Kossmann        : Meta GGA functionals, TD-DFT gradient, OOMP2, MP2 Hessian
   Martin Krupicka        : AUTO-CI
   Lucas Lang             : DCDCAS
   Dagmar Lenk            : GEPOL surface, SMD
   Dimitrios Liakos       : Extrapolation schemes; Compound Job, initial MDCI parallelization
   Dimitrios Manganas     : Further ROCIS development; embedding schemes
   Dimitrios Pantazis     : SARC Basis sets
   Taras Petrenko         : DFT Hessian,TD-DFT gradient, ASA, ECA, R-Raman, ABS, FL, XAS/XES, NRVS
   Peter Pinski           : DLPNO-MP2, DLPNO-MP2 Gradient
   Christoph Reimann      : Effective Core Potentials
   Marius Retegan         : Local ZFS, SOC
   Christoph Riplinger    : Optimizer, TS searches, QM/MM, DLPNO-CCSD(T), (RO)-DLPNO pert. Triples
   Tobias Risthaus        : Range-separated hybrids, TD-DFT gradient, RPA, STAB
   Michael Roemelt        : Original ROCIS implementation
   Masaaki Saitow         : Open-shell DLPNO-CCSD energy and density
   Barbara Sandhoefer     : DKH picture change effects
   Avijit Sen             : IP-ROCIS
   Kantharuban Sivalingam : CASSCF convergence, NEVPT2, FIC-MRCI
   Bernardo de Souza      : ESD, SOC TD-DFT
   Georgi Stoychev        : AutoAux, RI-MP2 NMR
   Willem Van den Heuvel  : Paramagnetic NMR
   Boris Wezisla          : Elementary symmetry handling
   Frank Wennmohs         : Technical directorship


 We gratefully acknowledge several colleagues who have allowed us to
 interface, adapt or use parts of their codes:
   Stefan Grimme, W. Hujo, H. Kruse,             : VdW corrections, initial TS optimization,
                  C. Bannwarth                     DFT functionals, gCP, sTDA/sTD-DF
   Ed Valeev, F. Pavosevic, A. Kumar             : LibInt (2-el integral package), F12 methods
   Garnet Chan, S. Sharma, J. Yang, R. Olivares  : DMRG
   Ulf Ekstrom                                   : XCFun DFT Library
   Mihaly Kallay                                 : mrcc  (arbitrary order and MRCC methods)
   Andreas Klamt, Michael Diedenhofen            : otool_cosmo (COSMO solvation model)
   Jiri Pittner, Ondrej Demel                    : Mk-CCSD
   Frank Weinhold                                : gennbo (NPA and NBO analysis)
   Christopher J. Cramer and Donald G. Truhlar   : smd solvation model
   Lars Goerigk                                  : TD-DFT with DH, B97 family of functionals
   V. Asgeirsson, H. Jonsson                     : NEB implementation
   FAccTs GmbH                                   : IRC, NEB, NEB-TS, Multilevel, MM, QM/MM, CI optimization
   S Lehtola, MJT Oliveira, MAL Marques          : LibXC Library


 Your calculation uses the libint2 library for the computation of 2-el integrals
 For citations please refer to: http://libint.valeyev.net

 Your ORCA version has been built with support for libXC version: 4.2.3
 For citations please refer to: https://tddft.org/programs/libxc/

 This ORCA versions uses:
   CBLAS   interface :  Fast vector & matrix operations
   LAPACKE interface :  Fast linear algebra routines
   SCALAPACK package :  Parallel linear algebra routines


Setting NCore(W ) from 46 to 60
----- Orbital basis set information -----
Your calculation utilizes the basis: def2-SVP
   F. Weigend and R. Ahlrichs, Phys. Chem. Chem. Phys. 7, 3297 (2005).

cite the ECPs for W  [Def2-ECP] as follows:
Ce-Yb(ecp-28): M. Dolg, H. Stoll, H.Preuss, J. Chem. Phys., 1989, 90, 1730-1734.
Y-Cd(ecp-28), Hf-Hg(ecp-46): D. Andrae,U. Haeussermann, M. Dolg, H. Stoll, H. Preuss, Theor. Chim. Acta, 1990, 77, 123-141.
In-Sb(ecp-28), Tl-Bi(ecp-46): B. Metz, H. Stoll, M. Dolg, J. Chem. Phys., 2000, 113, 2563-2569.
Te-Xe(ecp-28), Po-Rn(ecp-46): K. A. Peterson, D. Figgen, E. Goll, H. Stoll, M. Dolg, J. Chem. Phys., 2003, 119, 11113-11123.
Rb(ecp-28), Cs(ecp-46): T. Leininger, A. Nicklass, W. Kuechle, H. Stoll, M. Dolg, A. Bergner, Chem. Phys. Lett., 1996, 255, 274-280.
Sr(ecp-28), Ba(ecp-46): M. Kaupp, P. V. Schleyer, H. Stoll and H. Preuss, J. Chem. Phys., 1991, 94, 1360-1366.
La(ecp-46): M. Dolg, H. Stoll, A. Savin, H. Preuss, Theor. Chim. Acta, 1989, 75, 173-194.
Lu(ecp-28): X. Cao, M. Dolg, J. Chem. Phys., 2001, 115, 7348-7355.

ECP parameters for W  [Def2-ECP] have been obtained from:
TURBOMOLE (7.0.2)

================================================================================
                                        WARNINGS
                       Please study these warnings very carefully!
================================================================================


WARNING: your system is open-shell and RHF/RKS was chosen
  ===> : WILL SWITCH to UHF/UKS


WARNING: MDCI localization with Augmented Hessian Foster-Boys
  ===> : Switching off randomization!

WARNING: Post HF methods need fully converged wavefunctions
  ===> : Setting SCFConvForced true
         You can overwrite this default with %scf ConvForced false 


INFO   : the flag for use of LIBINT has been found!

================================================================================
                                       INPUT FILE
================================================================================
NAME = 74_W.in
|  1> #
|  2> # 74_W CCSD(T)/Def2-SVP
|  3> #
|  4> ! CCSD(T) Def2-SVP tightscf
|  5> 
|  6> *xyz 0 5
|  7>  W 0.0 0.0 0.0
|  8> *
|  9> 
| 10> %maxcore 5000 
| 11> 
| 12> %pal
| 13> nprocs 24
| 14> end
| 15> 
| 16> %method
| 17> NewNCore W 60 end
| 18> end
| 19> 
| 20> 
| 21>                          ****END OF INPUT****
================================================================================

                       ****************************
                       * Single Point Calculation *
                       ****************************

---------------------------------
CARTESIAN COORDINATES (ANGSTROEM)
---------------------------------
  W      0.000000    0.000000    0.000000

----------------------------
CARTESIAN COORDINATES (A.U.)
----------------------------
  NO LB      ZA    FRAG     MASS         X           Y           Z
   0 W    14.0000*   0   183.850    0.000000    0.000000    0.000000
* core charge reduced due to ECP

--------------------------------
INTERNAL COORDINATES (ANGSTROEM)
--------------------------------
 W      0   0   0     0.000000000000     0.00000000     0.00000000

---------------------------
INTERNAL COORDINATES (A.U.)
---------------------------
 W      0   0   0     0.000000000000     0.00000000     0.00000000

---------------------
BASIS SET INFORMATION
---------------------
There are 1 groups of distinct atoms

 Group   1 Type W   : 7s6p5d1f contracted to 6s3p2d1f pattern {211111/411/41/1}

Atom   0W    basis set group =>   1
-------------------------
ECP PARAMETER INFORMATION
-------------------------

 Group 1, Type W  ECP Def2-ECP (replacing 60 core electrons, lmax=3)

Atom   0W    ECP group =>   1



           ************************************************************
           *        Program running with 24 parallel MPI-processes    *
           *              working on a common directory               *
           ************************************************************
------------------------------------------------------------------------------
                           ORCA GTO INTEGRAL CALCULATION
------------------------------------------------------------------------------

                         BASIS SET STATISTICS AND STARTUP INFO

 # of primitive gaussian shells          ...   19
 # of primitive gaussian functions       ...   57
 # of contracted shells                  ...   12
 # of contracted basis functions         ...   32
 Highest angular momentum                ...    3
 Maximum contraction depth               ...    4
 Integral package used                   ... LIBINT
 Integral threshhold            Thresh   ...  2.500e-11
 Primitive cut-off              TCut     ...  2.500e-12


------------------------------ INTEGRAL EVALUATION ----------------------------


 * One electron integrals 

   ECP integrals                         ... done
 Pre-screening matrix                    ... done
 Shell pair data                         ... done (   0.000 sec)



           ************************************************************
           *        Program running with 24 parallel MPI-processes    *
           *              working on a common directory               *
           ************************************************************
-------------------------------------------------------------------------------
                                 ORCA SCF
-------------------------------------------------------------------------------

------------
SCF SETTINGS
------------
Hamiltonian:
 Ab initio Hamiltonian  Method          .... Hartree-Fock(GTOs)


General Settings:
 Integral files         IntName         .... 74_W
 Hartree-Fock type      HFTyp           .... UHF
 Total Charge           Charge          ....    0
 Multiplicity           Mult            ....    5
 Number of Electrons    NEL             ....   14
 Basis Dimension        Dim             ....   32
 Nuclear Repulsion      ENuc            ....      0.0000000000 Eh

Convergence Acceleration:
 DIIS                   CNVDIIS         .... on
   Start iteration      DIISMaxIt       ....    12
   Startup error        DIISStart       ....  0.200000
   # of expansion vecs  DIISMaxEq       ....     5
   Bias factor          DIISBfac        ....   1.050
   Max. coefficient     DIISMaxC        ....  10.000
 Newton-Raphson         CNVNR           .... off
 SOSCF                  CNVSOSCF        .... off
 Level Shifting         CNVShift        .... on
   Level shift para.    LevelShift      ....    0.2500
   Turn off err/grad.   ShiftErr        ....    0.0010
 Zerner damping         CNVZerner       .... off
 Static damping         CNVDamp         .... on
   Fraction old density DampFac         ....    0.7000
   Max. Damping (<1)    DampMax         ....    0.9800
   Min. Damping (>=0)   DampMin         ....    0.0000
   Turn off err/grad.   DampErr         ....    0.1000
 Fernandez-Rico         CNVRico         .... off

SCF Procedure:
 Maximum # iterations   MaxIter         ....   125
 SCF integral mode      SCFMode         .... Direct
   Integral package                     .... LIBINT
 Reset frequency        DirectResetFreq ....    20
 Integral Threshold     Thresh          ....  2.500e-11 Eh
 Primitive CutOff       TCut            ....  2.500e-12 Eh

Convergence Tolerance:
 Convergence Check Mode ConvCheckMode   .... Total+1el-Energy
 Convergence forced     ConvForced      .... 1
 Energy Change          TolE            ....  1.000e-08 Eh
 1-El. energy change                    ....  1.000e-05 Eh
 DIIS Error             TolErr          ....  5.000e-07


Diagonalization of the overlap matrix:
Smallest eigenvalue                        ... 1.674e-02
Time for diagonalization                   ...    0.001 sec
Threshold for overlap eigenvalues          ... 1.000e-08
Number of eigenvalues below threshold      ... 0
Time for construction of square roots      ...    0.011 sec
Total time needed                          ...    0.012 sec

-------------------
DFT GRID GENERATION
-------------------

General Integration Accuracy     IntAcc      ...  4.340
Radial Grid Type                 RadialGrid  ... Gauss-Chebyshev
Angular Grid (max. acc.)         AngularGrid ... Lebedev-110
Angular grid pruning method      GridPruning ... 3 (G Style)
Weight generation scheme         WeightScheme... Becke
Basis function cutoff            BFCut       ...    1.0000e-11
Integration weight cutoff        WCut        ...    1.0000e-14
Grids for H and He will be reduced by one unit

# of grid points (after initial pruning)     ...   3530 (   0.0 sec)
# of grid points (after weights+screening)   ...   3530 (   0.0 sec)
Grid point division into batches done        ...    0.0 sec
Reduced shell lists constructed in    0.0 sec

Total number of grid points                  ...     3530
Total number of batches                      ...       56
Average number of points per batch           ...       63
Average number of grid points per atom       ...     3530
Average number of shells per batch           ...     3.75 (31.25%)
Average number of basis functions per batch  ...     9.75 (30.47%)
Average number of large shells per batch     ...     3.00 (80.00%)
Average number of large basis fcns per batch ...     7.50 (76.92%)
Maximum spatial batch extension              ...  25.56, 38.92, 38.92 au
Average spatial batch extension              ...   1.31,  1.85,  2.08 au

Time for grid setup =    0.064 sec

------------------------------
INITIAL GUESS: MODEL POTENTIAL
------------------------------
Loading Hartree-Fock densities                     ... done
  calling /sw/apps/orca/orca_4_2_0_linux_x86-64_openmpi314/orca 74_W_atom74.inp > 74_W_atom74.out in order to generate an atomic fitting density for atom 0 (W  with ECP) on-the-fly... 
    atom 0 (W ), assumed electronic state with S=5: 1s2 2s2 2p6 3s2 3p6 4s2 3d10 4p6 5s2 4d10 5p6 6s2 4f14 5d4           ... done
Calculating cut-offs                               ... done
Setting up the integral package                    ... done
Initializing the effective Hamiltonian             ... done
Starting the Coulomb interaction                   ... done (   0.0 sec)
Reading the grid                                   ... done
Mapping shells                                     ... done
Starting the XC term evaluation                    ... done (   0.0 sec)
Transforming the Hamiltonian                       ... done (   0.0 sec)
Diagonalizing the Hamiltonian                      ... done (   0.0 sec)
Back transforming the eigenvectors                 ... done (   0.0 sec)
Now organizing SCF variables                       ... done
                      ------------------
                      INITIAL GUESS DONE (   1.2 sec)
                      ------------------
--------------
SCF ITERATIONS
--------------
ITER       Energy         Delta-E        Max-DP      RMS-DP      [F,P]     Damp
               ***  Starting incremental Fock matrix formation  ***
  0    -65.6611377722   0.000000000000 0.17623298  0.00999592  0.4442703 0.7000
  1    -65.8305606558  -0.169422883579 0.12472672  0.00788051  0.3055128 0.7000
                               ***Turning on DIIS***
  2    -65.9390606513  -0.108499995493 0.08088048  0.00514621  0.1988216 0.7000
  3    -66.5743620511  -0.635301399844 0.04695084  0.00273558  0.1284752 0.7000
  4    -66.4952677067   0.079094344487 0.10554946  0.00591660  0.0893732 0.0000
  5    -66.1661930494   0.329074657236 0.02435620  0.00099443  0.0137209 0.0000
  6    -66.1625840245   0.003609024933 0.00976703  0.00046724  0.0149825 0.0000
  7    -66.1554874583   0.007096566231 0.01013037  0.00039201  0.0155836 0.0000
  8    -66.1549658446   0.000521613706 0.00475629  0.00018659  0.0150930 0.0000
  9    -66.1476817909   0.007284053634 0.00184971  0.00008681  0.0148209 0.0000
 10    -66.1543197263  -0.006637935339 0.01675321  0.00071676  0.0148845 0.0000
 11    -66.1498065223   0.004513203961 0.00428262  0.00019118  0.0157715 0.0000
 12    -66.1373324433   0.012474078949 0.01178663  0.00049131  0.0159742 0.0000
 13    -66.1424053398  -0.005072896430 0.00102422  0.00005780  0.0153256 0.0000
 14    -66.1519519053  -0.009546565518 0.00927176  0.00039763  0.0152594 0.0000
 15    -66.1589788707  -0.007026965379 0.01708173  0.00077534  0.0157726 0.0000
 16    -66.1458579988   0.013120871858 0.01662061  0.00069458  0.0167036 0.0000
 17    -66.1492514606  -0.003393461739 0.00509434  0.00020896  0.0158455 0.0000
 18    -66.1511570240  -0.001905563491 0.00206020  0.00009494  0.0155632 0.0000
 19    -66.1537425972  -0.002585573167 0.01007566  0.00045876  0.0156593 0.0000
               *** Restarting incremental Fock matrix formation ***
                                   *** Resetting DIIS ***
 20    -66.1619432187  -0.008200621471 0.02596493  0.00119798  0.0162047 0.0000
 21    -66.1515239532   0.010419265483 0.00643571  0.00037142  0.0175942 0.0000
 22    -66.1334049117   0.018119041530 0.00872675  0.00038977  0.0179000 0.0000
 23    -66.1324846910   0.000920220639 0.00435945  0.00019948  0.0173994 0.0000
 24    -66.1337855329  -0.001300841858 0.00422649  0.00020230  0.0171682 0.0000
 25    -66.1610264105  -0.027240877604 0.02368451  0.00114874  0.0169419 0.0000
 26    -66.1588892046   0.002137205924 0.00582781  0.00033579  0.0182714 0.0000
 27    -66.1437093007   0.015179903880 0.01476039  0.00071879  0.0185442 0.0000
 28    -66.1489832111  -0.005273910363 0.00254584  0.00013897  0.0177283 0.0000
 29    -66.1522374999  -0.003254288897 0.00429480  0.00020683  0.0175976 0.0000
 30    -66.1587929524  -0.006555452468 0.01659781  0.00086150  0.0178191 0.0000
 31    -66.1468450194   0.011947933002 0.00427530  0.00022046  0.0186884 0.0000
 32    -66.1248741592   0.021970860187 0.00978212  0.00050446  0.0187618 0.0000
 33    -66.1343522791  -0.009478119851 0.00349041  0.00018031  0.0181414 0.0000
 34    -66.1512934110  -0.016941131963 0.01440474  0.00078138  0.0183736 0.0000
 35    -66.1564795406  -0.005186129525 0.00982242  0.00059601  0.0191966 0.0000
 36    -66.1420700980   0.014409442616 0.00947158  0.00049859  0.0196889 0.0000
 37    -66.1500610431  -0.007990945181 0.00147762  0.00010450  0.0191450 0.0000
 38    -66.1577543421  -0.007693298924 0.01175343  0.00065778  0.0192770 0.0000
 39    -66.1572492556   0.000505086424 0.01373493  0.00075247  0.0198682 0.0000
               *** Restarting incremental Fock matrix formation ***
                                   *** Resetting DIIS ***
 40    -66.1724679029  -0.015218647221 0.02903173  0.00150431  0.0203897 0.0000
 41    -66.1625915795   0.009876323392 0.01657906  0.00089464  0.0214236 0.0000
 42    -66.1362965361   0.026295043371 0.00382448  0.00018957  0.0217214 0.0000
 43    -66.1306110179   0.005685518189 0.00153016  0.00006862  0.0213814 0.0000
 44    -66.1292632296   0.001347788278 0.00063353  0.00002777  0.0213045 0.0000
 45    -66.1650238511  -0.035760621450 0.03114092  0.00147291  0.0212812 0.0000
 46    -66.1610544870   0.003969364067 0.01118434  0.00062164  0.0221974 0.0000
 47    -66.1549998741   0.006054612941 0.00616924  0.00035102  0.0222404 0.0000
 48    -66.1551899713  -0.000190097226 0.00812762  0.00044555  0.0222079 0.0000
 49    -66.1603240651  -0.005134093821 0.01383701  0.00069072  0.0222770 0.0000
 50    -66.1748121406  -0.014488075529 0.02606681  0.00123730  0.0224123 0.0000
 51    -66.1852554191  -0.010443278485 0.03007436  0.00145255  0.0225982 0.0000
 52    -66.2192885566  -0.034033137476 0.05374764  0.00252082  0.0225395 0.0000
 53    -66.2876192915  -0.068330734874 0.10029152  0.00456747  0.0221492 0.0000
 54    -66.2506512258   0.036968065697 0.04312756  0.00273587  0.0198315 0.0000
 55    -66.3339081476  -0.083256921831 0.06404919  0.00423796  0.0159489 0.0000
 56    -66.2414880291   0.092420118531 0.02554681  0.00131940  0.0105096 0.0000
 57    -66.2305622158   0.010925813325 0.01933884  0.00119599  0.0103519 0.0000
 58    -66.2072756504   0.023286565325 0.01208571  0.00052172  0.0122745 0.0000
 59    -66.1863210108   0.020954639657 0.00520959  0.00020035  0.0128252 0.0000
               *** Restarting incremental Fock matrix formation ***
                                   *** Resetting DIIS ***
 60    -66.2357838132  -0.049462802430 0.02091176  0.00146472  0.0127910 0.0000
 61    -66.2312649350   0.004518878230 0.01199150  0.00063929  0.0152443 0.0000
 62    -66.2036742188   0.027590716150 0.00955247  0.00052601  0.0161391 0.0000
 63    -66.2004944961   0.003179722754 0.00305774  0.00017875  0.0154275 0.0000
 64    -66.2015940129  -0.001099516872 0.00134275  0.00007833  0.0151906 0.0000
 65    -66.2297028096  -0.028108796699 0.02256344  0.00136474  0.0150912 0.0000
 66    -66.2194578215   0.010244988093 0.00760679  0.00029355  0.0170469 0.0000
 67    -66.1951916037   0.024266217852 0.00942506  0.00053945  0.0171438 0.0000
 68    -66.2032749258  -0.008083322133 0.00146531  0.00009872  0.0162545 0.0000
 69    -66.2173210771  -0.014046151278 0.01008117  0.00058171  0.0163864 0.0000
 70    -66.2407847526  -0.023463675474 0.02663251  0.00142610  0.0171916 0.0000
 71    -66.2091996422   0.031585110345 0.01894006  0.00111187  0.0189747 0.0000
 72    -66.2102532145  -0.001053572220 0.00222964  0.00013210  0.0179480 0.0000
 73    -66.2190919149  -0.008838700447 0.00848566  0.00045999  0.0178334 0.0000
 74    -66.2343310594  -0.015239144466 0.02367638  0.00121025  0.0183414 0.0000
 75    -66.2257160296   0.008615029718 0.00687684  0.00032483  0.0195957 0.0000
 76    -66.1870212058   0.038694823852 0.02170372  0.00111775  0.0198921 0.0000
 77    -66.2009759847  -0.013954778877 0.00231529  0.00017560  0.0186728 0.0000
 78    -66.2256918439  -0.024715859223 0.01910253  0.00097774  0.0189114 0.0000
 79    -66.2496825900  -0.023990746142 0.03220390  0.00154611  0.0199545 0.0000
               *** Restarting incremental Fock matrix formation ***
                                   *** Resetting DIIS ***
 80    -66.2622621155  -0.012579525473 0.04038229  0.00185170  0.0212742 0.0000
 81    -66.2578101841   0.004451931374 0.02926845  0.00129349  0.0221808 0.0000
 82    -66.2390215394   0.018788644787 0.01073895  0.00048454  0.0223093 0.0000
 83    -66.2165320038   0.022489535564 0.00366798  0.00020833  0.0221176 0.0000
 84    -66.2106399368   0.005892066977 0.00123828  0.00005341  0.0219189 0.0000
 85    -66.2472812273  -0.036641290470 0.03064971  0.00141380  0.0218943 0.0000
 86    -66.2948254979  -0.047544270625 0.05604641  0.00255015  0.0221035 0.0000
 87    -66.3197315277  -0.024906029795 0.06800003  0.00320803  0.0214644 0.0000
 88    -66.3354964167  -0.015764888991 0.05804244  0.00298765  0.0188150 0.0000
 89    -66.3415842031  -0.006087786455 0.04517678  0.00264506  0.0147952 0.0000
 90    -66.3552478347  -0.013663631603 0.04982724  0.00253514  0.0103548 0.0000
 91    -66.3430893100   0.012158524724 0.04510976  0.00193099  0.0062912 0.0000
 92    -66.3509483664  -0.007859056354 0.03522514  0.00162597  0.0043473 0.0000
 93    -66.3292315570   0.021716809398 0.02279901  0.00098872  0.0025330 0.0000
 94    -66.3256549061   0.003576650894 0.01118370  0.00053976  0.0015250 0.0000
 95    -66.3193853227   0.006269583422 0.00633500  0.00027297  0.0010565 0.0000
 96    -66.3172634214   0.002121901217 0.00594678  0.00025569  0.0008274 0.0000
 97    -66.3151502812   0.002113140223 0.00221918  0.00010214  0.0006942 0.0000
 98    -66.3164469144  -0.001296633225 0.00425366  0.00018354  0.0006729 0.0000
 99    -66.3190454958  -0.002598581342 0.00914288  0.00038461  0.0005980 0.0000
               *** Restarting incremental Fock matrix formation ***
                                   *** Resetting DIIS ***
100    -66.3152456169   0.003799878914 0.00085826  0.00003186  0.0004217 0.0000
101    -66.3154569952  -0.000211378328 0.00134097  0.00004771  0.0003940 0.0000
102    -66.3158287570  -0.000371761781 0.00356640  0.00012359  0.0003559 0.0000
103    -66.3160491781  -0.000220421138 0.00514947  0.00017478  0.0002621 0.0000
104    -66.3155276638   0.000521514353 0.00249375  0.00008232  0.0001360 0.0000
105    -66.3153486113   0.000179052506 0.00210679  0.00007003  0.0000819 0.0000
106    -66.3151893845   0.000159226747 0.00145533  0.00004970  0.0000462 0.0000
107    -66.3152218053  -0.000032420739 0.00027476  0.00001117  0.0000105 0.0000
108    -66.3152501690  -0.000028363768 0.00006764  0.00000400  0.0000039 0.0000
109    -66.3152250444   0.000025124608 0.00009469  0.00000530  0.0000035 0.0000
110    -66.3151653851   0.000059659345 0.00014749  0.00000854  0.0000033 0.0000
111    -66.3151696671  -0.000004282011 0.00012031  0.00000734  0.0000024 0.0000
112    -66.3152125530  -0.000042885910 0.00006971  0.00000383  0.0000014 0.0000
113    -66.3152302342  -0.000017681184 0.00004201  0.00000222  0.0000011 0.0000
                            ***DIIS convergence achieved***

               *****************************************************
               *                     SUCCESS                       *
               *           SCF CONVERGED AFTER 114 CYCLES          *
               *****************************************************


----------------
TOTAL SCF ENERGY
----------------

Total Energy       :          -66.31524590 Eh           -1804.52958 eV

Components:
Nuclear Repulsion  :            0.00000000 Eh               0.00000 eV
Electronic Energy  :          -66.31524590 Eh           -1804.52958 eV
One Electron Energy:         -112.54511048 Eh           -3062.50815 eV
Two Electron Energy:           46.22986458 Eh            1257.97857 eV

Virial components:
Potential Energy   :          -89.21392979 Eh           -2427.63445 eV
Kinetic Energy     :           22.89868389 Eh             623.10487 eV
Virial Ratio       :            3.89602871


---------------
SCF CONVERGENCE
---------------

  Last Energy change         ...   -1.5663e-05  Tolerance :   1.0000e-08
  Last MAX-Density change    ...    1.4436e-05  Tolerance :   1.0000e-07
  Last RMS-Density change    ...    9.2876e-07  Tolerance :   5.0000e-09
  Last DIIS Error            ...    8.5233e-07  Tolerance :   5.0000e-07

             **** THE GBW FILE WAS UPDATED (74_W.gbw) ****
             **** DENSITY FILE WAS UPDATED (74_W.scfp) ****
             **** ENERGY FILE WAS UPDATED (74_W.en.tmp) ****
----------------------
UHF SPIN CONTAMINATION
----------------------

Expectation value of <S**2>     :     6.246171
Ideal value S*(S+1) for S=2.0   :     6.000000
Deviation                       :     0.246171

             **** THE GBW FILE WAS UPDATED (74_W.gbw) ****
             **** DENSITY FILE WAS UPDATED (74_W.scfp) ****
----------------
ORBITAL ENERGIES
----------------
                 SPIN UP ORBITALS
  NO   OCC          E(Eh)            E(eV) 
   0   1.0000      -3.475211       -94.5653 
   1   1.0000      -2.004730       -54.5515 
   2   1.0000      -2.004727       -54.5514 
   3   1.0000      -1.974763       -53.7360 
   4   1.0000      -0.379143       -10.3170 
   5   1.0000      -0.379140       -10.3169 
   6   1.0000      -0.360040        -9.7972 
   7   1.0000      -0.360039        -9.7972 
   8   1.0000      -0.304442        -8.2843 
   9   0.0000       0.036544         0.9944 
  10   0.0000       0.036545         0.9944 
  11   0.0000       0.047519         1.2931 
  12   0.0000       0.058403         1.5892 
  13   0.0000       0.186373         5.0715 
  14   0.0000       0.369239        10.0475 
  15   0.0000       0.369240        10.0475 
  16   0.0000       0.373747        10.1702 
  17   0.0000       0.373747        10.1702 
  18   0.0000       0.417164        11.3516 
  19   0.0000       0.777523        21.1575 
  20   0.0000       0.777523        21.1575 
  21   0.0000       0.789729        21.4896 
  22   0.0000       1.135069        30.8868 
  23   0.0000       1.135070        30.8868 
  24   0.0000       1.145179        31.1619 
  25   0.0000       1.145179        31.1619 
  26   0.0000       1.171265        31.8717 
  27   0.0000       1.171265        31.8718 
  28   0.0000       1.193927        32.4884 
  29   0.0000       1.608117        43.7591 
  30   0.0000      68.192800      1855.6204 
  31   0.0000     575.853294     15669.7648 

                 SPIN DOWN ORBITALS
  NO   OCC          E(Eh)            E(eV) 
   0   1.0000      -3.320546       -90.3567 
   1   1.0000      -1.795774       -48.8655 
   2   1.0000      -1.749375       -47.6029 
   3   1.0000      -1.749370       -47.6028 
   4   1.0000      -0.228110        -6.2072 
   5   0.0000       0.040342         1.0978 
   6   0.0000       0.060733         1.6526 
   7   0.0000       0.060733         1.6526 
   8   0.0000       0.102491         2.7889 
   9   0.0000       0.138823         3.7776 
  10   0.0000       0.138824         3.7776 
  11   0.0000       0.158901         4.3239 
  12   0.0000       0.158901         4.3239 
  13   0.0000       0.231230         6.2921 
  14   0.0000       0.440434        11.9848 
  15   0.0000       0.465145        12.6572 
  16   0.0000       0.465146        12.6573 
  17   0.0000       0.475685        12.9441 
  18   0.0000       0.475685        12.9441 
  19   0.0000       0.838391        22.8138 
  20   0.0000       0.885215        24.0879 
  21   0.0000       0.885217        24.0880 
  22   0.0000       1.272797        34.6346 
  23   0.0000       1.282504        34.8987 
  24   0.0000       1.282506        34.8988 
  25   0.0000       1.308909        35.6172 
  26   0.0000       1.308909        35.6172 
  27   0.0000       1.318062        35.8663 
  28   0.0000       1.318062        35.8663 
  29   0.0000       1.679878        45.7118 
  30   0.0000      68.201101      1855.8463 
  31   0.0000     575.854097     15669.7866 

                    ********************************
                    * MULLIKEN POPULATION ANALYSIS *
                    ********************************

--------------------------------------------
MULLIKEN ATOMIC CHARGES AND SPIN POPULATIONS
--------------------------------------------
   0 W :    0.000000    4.000000
Sum of atomic charges         :    0.0000000
Sum of atomic spin populations:    4.0000000

-----------------------------------------------------
MULLIKEN REDUCED ORBITAL CHARGES AND SPIN POPULATIONS
-----------------------------------------------------
CHARGE
  0 W s       :     3.877806  s :     3.877806
      pz      :     1.999634  p :     5.999176
      px      :     1.999636
      py      :     1.999906
      dz2     :     0.947078  d :     4.122194
      dxz     :     0.353310
      dyz     :     0.988320
      dx2y2   :     0.845095
      dxy     :     0.988391
      f0      :     0.000058  f :     0.000824
      f+1     :     0.000298
      f-1     :     0.000017
      f+2     :     0.000293
      f-2     :     0.000074
      f+3     :     0.000056
      f-3     :     0.000027

SPIN
  0 W s       :     0.045486  s :     0.045486
      pz      :    -0.000171  p :    -0.000404
      px      :    -0.000171
      py      :    -0.000062
      dz2     :     0.936967  d :     3.954514
      dxz     :     0.229787
      dyz     :     0.986089
      dx2y2   :     0.815498
      dxy     :     0.986174
      f0      :     0.000034  f :     0.000404
      f+1     :     0.000139
      f-1     :     0.000011
      f+2     :     0.000132
      f-2     :     0.000044
      f+3     :     0.000027
      f-3     :     0.000016


                     *******************************
                     * LOEWDIN POPULATION ANALYSIS *
                     *******************************

-------------------------------------------
LOEWDIN ATOMIC CHARGES AND SPIN POPULATIONS
-------------------------------------------
   0 W :    0.000000    4.000000

----------------------------------------------------
LOEWDIN REDUCED ORBITAL CHARGES AND SPIN POPULATIONS
----------------------------------------------------
CHARGE
  0 W s       :     3.877806  s :     3.877806
      pz      :     1.999634  p :     5.999176
      px      :     1.999636
      py      :     1.999906
      dz2     :     0.947078  d :     4.122194
      dxz     :     0.353310
      dyz     :     0.988320
      dx2y2   :     0.845095
      dxy     :     0.988391
      f0      :     0.000058  f :     0.000824
      f+1     :     0.000298
      f-1     :     0.000017
      f+2     :     0.000293
      f-2     :     0.000074
      f+3     :     0.000056
      f-3     :     0.000027

SPIN
  0 W s       :     0.045486  s :     0.045486
      pz      :    -0.000171  p :    -0.000404
      px      :    -0.000171
      py      :    -0.000062
      dz2     :     0.936967  d :     3.954514
      dxz     :     0.229787
      dyz     :     0.986089
      dx2y2   :     0.815498
      dxy     :     0.986174
      f0      :     0.000034  f :     0.000404
      f+1     :     0.000139
      f-1     :     0.000011
      f+2     :     0.000132
      f-2     :     0.000044
      f+3     :     0.000027
      f-3     :     0.000016


                      *****************************
                      * MAYER POPULATION ANALYSIS *
                      *****************************

  NA   - Mulliken gross atomic population
  ZA   - Total nuclear charge
  QA   - Mulliken gross atomic charge
  VA   - Mayer's total valence
  BVA  - Mayer's bonded valence
  FA   - Mayer's free valence

  ATOM       NA         ZA         QA         VA         BVA        FA
  0 W     14.0000    14.0000     0.0000     4.4923     0.0000     4.4923

  Mayer bond orders larger than 0.100000


-------
TIMINGS
-------

Total SCF time: 0 days 0 hours 0 min 28 sec 

Total time                  ....      28.372 sec
Sum of individual times     ....      26.656 sec  ( 94.0%)

Fock matrix formation       ....      23.049 sec  ( 81.2%)
Diagonalization             ....       0.587 sec  (  2.1%)
Density matrix formation    ....       0.026 sec  (  0.1%)
Population analysis         ....       0.080 sec  (  0.3%)
Initial guess               ....       1.133 sec  (  4.0%)
Orbital Transformation      ....       0.000 sec  (  0.0%)
Orbital Orthonormalization  ....       0.000 sec  (  0.0%)
DIIS solution               ....       1.718 sec  (  6.1%)


           ************************************************************
           *        Program running with 24 parallel MPI-processes    *
           *              working on a common directory               *
           ************************************************************


------------------------------------------------------------------------------- 
                              ORCA-MATRIX DRIVEN CI                            
------------------------------------------------------------------------------- 

--------------------------------
AUTOMATIC CHOICE OF INCORE LEVEL
--------------------------------

Memory available                           ...   2500.00 MB
Memory needed for S+T                      ...      0.54 MB
Memory needed for J+K                      ...      1.11 MB
Memory needed for DIIS                     ...      7.63 MB
Memory needed for 3-ext                    ...      0.84 MB
Memory needed for 4-ext                    ...      1.11 MB
Memory needed for triples                  ...      0.46 MB
 -> Final InCoreLevel    ... 5
 -> check shows that triples correction can be computed


Wavefunction type
-----------------
Correlation treatment                      ...      CCSD     
Single excitations                         ... ON
Orbital optimization                       ... OFF
Calculation of Z vector                    ... OFF
Calculation of Brueckner orbitals          ... OFF
Perturbative triple excitations            ... ON
Calculation of F12 correction              ... OFF
Frozen core treatment                      ... chemical core (0 el)
Reference Wavefunction                     ... UHF
  Alpha-MOs occ    :     0 ...    8 (  9 MO's/  9 electrons)
  Beta-MOs occ     :     0 ...    4 (  5 MO's/  5 electrons)
  Alpha-MOs virt   :     9 ...   31 ( 23 MO's              )
  Beta-MOs virt    :     5 ...   31 ( 27 MO's              )
Number of AO's                             ...     32
Number of electrons                        ...     14
Number of correlated electrons             ...     14

Algorithmic settings
--------------------
Integral transformation                    ... AO direct full transformation
K(C) Formation                             ... FULL-MO TRAFO
Maximum number of iterations               ...        50
Convergence tolerance (max. residuum)      ... 1.000e-05
Level shift for amplitude update           ... 2.000e-01
Maximum number of DIIS vectors             ...         7
DIIS turned on at iteration                ...         0
Damping before turning on DIIS             ...     0.500
Damping after turning on DIIS              ...     0.000
Pair specific amplitude update             ... OFF
Natural orbital iterations                 ... OFF
Perturbative natural orbital generation    ... OFF
Printlevel                                 ... 2

Memory handling:
----------------
Maximum memory for working arrays          ...   2500 MB
Data storage in matrix containers          ... UNCOMPRESSED
Data type for integral storage             ... DOUBLE
In-Core Storage of quantities:
   Amplitudes+Sigma Vector      ... YES
   J+K operators                ... YES
   DIIS vectors                 ... YES
   3-external integrals         ... YES
   4-external integrals         ... YES


Initializing the integral package          ... done
Warning: reference  - re-canonicalizations have been set to INT 1 VIRT 1

--------------------------
UNRESTRICTED FOCK OPERATOR
--------------------------

<ss|ss>:          231 b            0 skpd (  0.0%)    0.000 s ( 0.000 ms/b)
<ss|sp>:          378 b            0 skpd (  0.0%)    0.000 s ( 0.000 ms/b)
<ss|sd>:          252 b            0 skpd (  0.0%)    0.000 s ( 0.000 ms/b)
<ss|sf>:          126 b            0 skpd (  0.0%)    0.000 s ( 0.000 ms/b)
<ss|pp>:          126 b            0 skpd (  0.0%)    0.000 s ( 0.000 ms/b)
<ss|pd>:          126 b            0 skpd (  0.0%)    0.000 s ( 0.001 ms/b)
<ss|pf>:           63 b            0 skpd (  0.0%)    0.000 s ( 0.001 ms/b)
<ss|dd>:           63 b            0 skpd (  0.0%)    0.000 s ( 0.002 ms/b)
<ss|df>:           42 b            0 skpd (  0.0%)    0.000 s ( 0.002 ms/b)
<ss|ff>:           21 b            0 skpd (  0.0%)    0.000 s ( 0.003 ms/b)
<sp|sp>:          171 b            0 skpd (  0.0%)    0.000 s ( 0.000 ms/b)
<sp|sd>:          216 b            0 skpd (  0.0%)    0.000 s ( 0.000 ms/b)
<sp|sf>:          108 b            0 skpd (  0.0%)    0.000 s ( 0.000 ms/b)
<sp|pp>:          108 b            0 skpd (  0.0%)    0.000 s ( 0.001 ms/b)
<sp|pd>:          108 b            0 skpd (  0.0%)    0.000 s ( 0.002 ms/b)
<sp|pf>:           54 b            0 skpd (  0.0%)    0.000 s ( 0.002 ms/b)
<sp|dd>:           54 b            0 skpd (  0.0%)    0.000 s ( 0.006 ms/b)
<sp|df>:           36 b            0 skpd (  0.0%)    0.000 s ( 0.005 ms/b)
<sp|ff>:           18 b            0 skpd (  0.0%)    0.000 s ( 0.009 ms/b)
<sd|sd>:           78 b            0 skpd (  0.0%)    0.000 s ( 0.001 ms/b)
<sd|sf>:           72 b            0 skpd (  0.0%)    0.000 s ( 0.001 ms/b)
<sd|pp>:           72 b            0 skpd (  0.0%)    0.000 s ( 0.002 ms/b)
<sd|pd>:           72 b            0 skpd (  0.0%)    0.000 s ( 0.004 ms/b)
<sd|pf>:           36 b            0 skpd (  0.0%)    0.000 s ( 0.005 ms/b)
<sd|dd>:           36 b            0 skpd (  0.0%)    0.001 s ( 0.015 ms/b)
<sd|df>:           24 b            0 skpd (  0.0%)    0.000 s ( 0.014 ms/b)
<sd|ff>:           12 b            0 skpd (  0.0%)    0.000 s ( 0.020 ms/b)
<sf|sf>:           21 b            0 skpd (  0.0%)    0.000 s ( 0.001 ms/b)
<sf|pp>:           36 b            0 skpd (  0.0%)    0.000 s ( 0.002 ms/b)
<sf|pd>:           36 b            0 skpd (  0.0%)    0.000 s ( 0.004 ms/b)
<sf|pf>:           18 b            0 skpd (  0.0%)    0.000 s ( 0.006 ms/b)
<sf|dd>:           18 b            0 skpd (  0.0%)    0.000 s ( 0.015 ms/b)
<sf|df>:           12 b            0 skpd (  0.0%)    0.000 s ( 0.017 ms/b)
<sf|ff>:            6 b            0 skpd (  0.0%)    0.000 s ( 0.026 ms/b)
<pp|pp>:           21 b            0 skpd (  0.0%)    0.000 s ( 0.007 ms/b)
<pp|pd>:           36 b            0 skpd (  0.0%)    0.000 s ( 0.007 ms/b)
<pp|pf>:           18 b            0 skpd (  0.0%)    0.000 s ( 0.007 ms/b)
<pp|dd>:           18 b            0 skpd (  0.0%)    0.000 s ( 0.025 ms/b)
<pp|df>:           12 b            0 skpd (  0.0%)    0.000 s ( 0.022 ms/b)
<pp|ff>:            6 b            0 skpd (  0.0%)    0.000 s ( 0.028 ms/b)
<pd|pd>:           21 b            0 skpd (  0.0%)    0.001 s ( 0.029 ms/b)
<pd|pf>:           18 b            0 skpd (  0.0%)    0.000 s ( 0.017 ms/b)
<pd|dd>:           18 b            0 skpd (  0.0%)    0.001 s ( 0.063 ms/b)
<pd|df>:           12 b            0 skpd (  0.0%)    0.001 s ( 0.055 ms/b)
<pd|ff>:            6 b            0 skpd (  0.0%)    0.000 s ( 0.070 ms/b)
<pf|pf>:            6 b            0 skpd (  0.0%)    0.000 s ( 0.023 ms/b)
<pf|dd>:            9 b            0 skpd (  0.0%)    0.000 s ( 0.052 ms/b)
<pf|df>:            6 b            0 skpd (  0.0%)    0.000 s ( 0.058 ms/b)
<pf|ff>:            3 b            0 skpd (  0.0%)    0.000 s ( 0.083 ms/b)
<dd|dd>:            6 b            0 skpd (  0.0%)    0.002 s ( 0.251 ms/b)
<dd|df>:            6 b            0 skpd (  0.0%)    0.001 s ( 0.140 ms/b)
<dd|ff>:            3 b            0 skpd (  0.0%)    0.000 s ( 0.165 ms/b)
<df|df>:            3 b            0 skpd (  0.0%)    0.000 s ( 0.158 ms/b)
<df|ff>:            2 b            0 skpd (  0.0%)    0.000 s ( 0.186 ms/b)
<ff|ff>:            1 b            0 skpd (  0.0%)    0.000 s ( 0.256 ms/b)
Recanonicalizing the internal orbitals
Recanonicalizing the virtual orbitals
Time needed for Fock operator              ...            0.152 sec
Reference energy                           ...    -66.315258289
Warning: for UHF the TrafoType has to be JK
Warning: for UHF the K(C)-option cannot be MO but must be AOX

-------------------------------
PARTIAL EXCHANGE TRANSFORMATION
-------------------------------

Transformation type                        ... two-operators
Generation of integrals (i,mue|j,nue)      ... ON
Generation of integrals (mue,kappa|nue,tau)... ON
Generation of integrals (i,mue|a,nue)      ... ON
Dimension of the basis                     ...   32
Number of internal alpha-MOs               ...    9 (   0-   8)
Number of internal beta-MOs                ...    5 (   0-   4)
Number of external alpha-MOs               ...   23 (   9-  31)
Number of external beta-MOs                ...   27 (   5-  31)
Pair cutoff                                ... 0.000e+00 Eh
Number of AO pairs in the trafo            ...  528
Total Number of distinct AO pairs          ...  528
Memory devoted for trafo                   ... 2500.0 MB 
Max. Number of MO pairs treated together   ... 320000      
Number Format for Storage                  ... Double (8 Byte)
Integral package used                      ... LIBINT

Starting integral evaluation:
    ... done with AO integral generation
Closing buffer AOK[aa] ( 0.00 GB; CompressionRatio= 0.00)
Closing buffer AOK[bb] ( 0.00 GB; CompressionRatio= 0.00)
Closing buffer AOK[ab] ( 0.00 GB; CompressionRatio= 0.00)
Closing buffer AOK[ba] ( 0.00 GB; CompressionRatio= 0.00)
Collecting buffer AOK 
Closing buffer IAAO1[aa] ( 0.00 GB; CompressionRatio= 0.00)
Closing buffer IAAO1[bb] ( 0.00 GB; CompressionRatio= 0.00)
Closing buffer IAAO1[ab] ( 0.00 GB; CompressionRatio= 0.00)
Closing buffer IAAO1[ba] ( 0.00 GB; CompressionRatio= 0.00)
Closing buffer IAAO2[aa] ( 0.00 GB; CompressionRatio= 0.00)
Closing buffer IAAO2[bb] ( 0.00 GB; CompressionRatio= 0.00)
Closing buffer IAAO2[ab] ( 0.00 GB; CompressionRatio= 0.00)
Closing buffer IAAO2[ba] ( 0.00 GB; CompressionRatio= 0.00)
Collecting buffer IAAO 
Closing buffer PRQS    ( 0.00 GB; CompressionRatio= 0.00)
Collecting buffer PRQS 
Number of alpha/alpha MO pairs in trafo    ...   45
Number of beta /beta  MO pairs in trafo    ...   15
Number of alpha/ beta MO pairs in trafo    ...   45
------------------------
SORTING OF (i,mue|j,nue)
------------------------

SORTING OF ALPHA/ALPHA PAIRS
IBATCH = 1 of  1
Closing buffer KAO[aa] ( 0.00 GB; CompressionRatio= 1.00)
Collecting buffer KAO 
SORTING OF BETA /BETA  PAIRS
IBATCH = 1 of  1
Closing buffer KAO[bb] ( 0.00 GB; CompressionRatio= 1.00)
Collecting buffer KAO 
SORTING OF ALPHA/BETA  PAIRS
IBATCH = 1 of  1
Closing buffer KAO[ab] ( 0.00 GB; CompressionRatio= 0.998537298879)
Collecting buffer KAO[ab] 
------------------------
SORTING OF (i,mue|a,nue)
------------------------

Number of alpha/alpha (i,a) pairs in trafo  ...  207
Number of beta /beta  (i,a) pairs in trafo  ...  135
Number of alpha/ beta (i,a) pairs in trafo  ...  243
Number of beta /alpha (i,a) pairs in trafo  ...  115
Setting up the alpha/alpha list             ... done
Setting up the beta /beta  list             ... done
Setting up the alpha/beta  list             ... done
Setting up the beta /alpha list             ... done
    ... Now sorting (i,mue|a,nue)integrals
    ... Integrals (i,b|a,c) will be made on the fly
SORTING OF ALPHA/ALPHA PAIRS
IBATCH = 1 of  1
Closing buffer IPAQ[aa]  0.00 GB; CompressionRatio= 1.00)
SORTING OF BETA /BETA  PAIRS
IBATCH = 1 of  1
Closing buffer IPAQ[bb]( 0.00 GB; CompressionRatio= 1.00)
SORTING OF ALPHA/BETA  PAIRS (NMatSort_ab=11)
IBATCH = 1 of  1
Closing buffer IPAQ[ab]( 0.00 GB; CompressionRatio= 1.00)
SORTING OF BETA/ALPHA  PAIRS
IBATCH = 1 of  1
Closing buffer IPAQ[ba]( 0.00 GB; CompressionRatio= 1.00)
N(AO-Batches) Done                         ...         0 
N(AO-Batches) Skipped                      ...         0 
N(IJ)-pairs Skipped                        ...         0 
TOTAL TIME for half transformation         ...     1.880 sec
AO-integral generation                     ...     0.000 sec
Half transformation                        ...     0.000 sec
K-integral sorting                         ...     0.735 sec
<ss|**>: 
------------------------------
PARTIAL COULOMB TRANSFORMATION
------------------------------

Transformation type                        ... two-operators
Dimension of the basis                     ...   32
Number of internal alpha-MOs               ...    9 (0-8)
Number of internal beta-MOs                ...    5 (0-4)
Pair cutoff                                ... 0.000e+00 Eh
Number of AO pairs included in the trafo   ...  528
Total Number of distinct AO pairs          ...  528
Memory devoted for trafo                   ... 2500.0 MB 
Max. Number of MO pairs treated together   ... 620606      
Max. Number of MOs treated per batch       ... 19393      
Number Format for Storage                  ... Double (8 Byte)
AO-integral source                         ... DIRECT
Integral package used                      ... LIBINT

Starting integral evaluation:
        1638 b        0 skpd     0.001 s (  0.001 ms/b)
<sp|**>: <sd|**>:         1404 b        0 skpd     0.012 s (  0.008 ms/b)
<sf|**>:          936 b        0 skpd     0.010 s (  0.011 ms/b)
<pp|**>:          468 b        0 skpd     0.010 s (  0.022 ms/b)
         468 b        0 skpd     0.009 s (  0.019 ms/b)
<pd|**>:          468 b        0 skpd     0.017 s (  0.037 ms/b)
<pf|**>:          234 b        0 skpd     0.021 s (  0.089 ms/b)
<dd|**>:          234 b        0 skpd     0.021 s (  0.091 ms/b)
<df|**>:          156 b        0 skpd     0.026 s (  0.166 ms/b)
<ff|**>:           78 b        0 skpd     0.017 s (  0.223 ms/b)
Closing buffer AOJ[aa] ( 0.00 GB; CompressionRatio= 0.97)
Closing buffer AOJ[bb] ( 0.00 GB; CompressionRatio= 0.00)
Collecting buffer AOJ 
    ... done with AO integral generation
Number of Alpha-MO pairs included          ...   45
Number of Beta-MO pairs included           ...   15
    ... Now sorting integrals
SORTING ALPHA/ALPHA PAIRS
IBATCH = 1 of  1
Closing buffer JAO[aa] ( 0.00 GB; CompressionRatio= 1.00)
SORTING BETA/BETA PAIRS
IBATCH = 1 of  1
Closing buffer JAO[bb] ( 0.00 GB; CompressionRatio= 1.00)
Collecting buffer JAO 
TOTAL TIME for half transformation         ...     0.285 sec
AO-integral generation                     ...     0.113 sec
Half transformation                        ...     0.032 sec
J-integral sorting                         ...     0.087 sec

-------------------------- SECOND HALF TRANSFORMATION -------------------------
Formation of (ij|kl),(ij|ka), (ij|ab)      ... ok (     0.314 sec)
Formation of (ik|jl),(ik|ja), (ia|jb)      ... ok (     0.213 sec)


-----------------------
SPIN UNRESTRICTED GUESS
-----------------------

Entering MDCI_UHF_Guess, Tailored=0
Spin-components of the MP2 energy:
EMP2(aa)=     -0.050463323
EMP2(bb)=     -0.019846111
EMP2(ab)=     -0.118908882

Initial guess performed in     0.004 sec
E(0)                                       ...    -66.315258289
E(MP2)                                     ...     -0.189218316
Initial E(tot)                             ...    -66.504476605
<T|T>                                      ...      0.070736373
Number of pairs included                   ... 91

------------------------------------------------
                  UHF COUPLED CLUSTER ITERATIONS
------------------------------------------------

Number of amplitudes to be optimized       ...        41259

Iter       E(tot)           E(Corr)          Delta-E          Residual     Time      <S|S>**1/2
  0    -66.504476605     -0.189218316     -0.000000000      0.020115386    0.09      0.000003044
                           *** Turning on DIIS ***
  1    -66.503021279     -0.187762990      0.001455325      0.009303810    0.05      0.030779533
  2    -66.506758213     -0.191499924     -0.003736934      0.006104517    0.05      0.045861604
  3    -66.508707079     -0.193448790     -0.001948866      0.004652562    0.05      0.058925602
  4    -66.509637424     -0.194379135     -0.000930345      0.002963844    0.05      0.067930032
  5    -66.510008450     -0.194750161     -0.000371026      0.001341091    0.05      0.072536138
  6    -66.510158505     -0.194900216     -0.000150055      0.000459149    0.05      0.074988697
  7    -66.510184794     -0.194926505     -0.000026290      0.000301165    0.05      0.075935392
  8    -66.510197735     -0.194939445     -0.000012940      0.000191725    0.06      0.076854539
  9    -66.510201336     -0.194943047     -0.000003602      0.000139053    0.05      0.077433315
 10    -66.510202145     -0.194943855     -0.000000808      0.000099914    0.05      0.077949026
 11    -66.510202045     -0.194943756      0.000000099      0.000072199    0.05      0.078391517
 12    -66.510202881     -0.194944592     -0.000000836      0.000063471    0.05      0.078844039
 13    -66.510203496     -0.194945207     -0.000000615      0.000053155    0.05      0.079355796
 14    -66.510204074     -0.194945785     -0.000000578      0.000024303    0.06      0.079996276
 15    -66.510204172     -0.194945883     -0.000000098      0.000013672    0.05      0.080382923
 16    -66.510204191     -0.194945902     -0.000000019      0.000009739    0.05      0.080477484
               --- The Coupled-Cluster iterations have converged ---

----------------------
COUPLED CLUSTER ENERGY
----------------------

E(0)                                       ...    -66.315258289
E(CORR)                                    ...     -0.194945902
E(TOT)                                     ...    -66.510204191
Singles norm <S|S>**1/2                    ...      0.080477484 ( 0.053537498, 0.026939986)  
T1 diagnostic                              ...      0.021508512                              

------------------
LARGEST AMPLITUDES
------------------
   5a-> 12a   4b-> 10b       0.071774
   4a-> 12a   4b->  9b       0.071772
   4b-> 13b  -1b-> -1b       0.071181
   8a-> 11a   4b->  5b       0.062068
   8a-> 12a  -1a-> -1a       0.058787
   8a-> 12a   4b->  8b       0.057902
   8a->  9a   4b->  6b       0.053601
   8a-> 10a   4b->  7b       0.053600
   7a-> 24a   6a-> 25a       0.031728
   7a-> 25a   6a-> 24a       0.031728
   5a-> 13a   4b-> 10b       0.030833
   4a-> 13a   4b->  9b       0.030832
   4a->  9a   4b->  5b       0.029772
   5a-> 10a   4b->  5b       0.029772
   4a-> 14a  -1a-> -1a       0.029052
   5a-> 15a  -1a-> -1a       0.029051

----------------------
UHF TRIPLES CORRECTION (Algorithm 1)
----------------------

Multiplier for the singles contribution    ...      1.000000000

SPIN-CASE Alpha-Alpha-Alpha:
10% done
20% done
30% done
40% done
50% done
60% done
70% done
80% done
90% done


SPIN-CASE Beta-Beta-Beta:
10% done
20% done
30% done
40% done
50% done
60% done
70% done
80% done
90% done


SPIN-CASE Alpha-Alpha-Beta:
10% done
20% done
30% done
40% done
50% done
60% done
70% done
80% done
90% done


SPIN-CASE Beta-Beta-Alpha:
10% done
20% done
30% done
40% done
50% done
60% done
70% done
80% done
90% done


Triples Correction (T)                     ...     -0.005444686
    alpha-alpha-alpha ... -0.000352176 (  6.5%)
    alpha-alpha-beta  ... -0.003429571 ( 63.0%)
    alpha-beta -beta  ... -0.001602218 ( 29.4%)
    beta -beta -beta  ... -0.000060721 (  1.1%)
Scaling of triples based on CCSD energies (Peterson et al. Molecular Physics 113, 1551 (2015))
E(T*) = f*E(T) where f = E(F12-CCSD)/E(CCSD) 
f = CCSD (with F12)/ CCSD (without F12)    ...      1.000000000
Scaled triples correction (T)              ...     -0.005444686

Final correlation energy                   ...     -0.200390588
E(CCSD)                                    ...    -66.510204191
E(CCSD(T))                                 ...    -66.515648877



        !!!!!!!!!!!!!!!!!!!!!!!!!!!!!!!!!!!!!!!!!!!!!!!!!!!!!!!!!!!!!!!!!!!!!!!!!! 
        !  Warning: Densities are linearized densities                           !
        !!!!!!!!!!!!!!!!!!!!!!!!!!!!!!!!!!!!!!!!!!!!!!!!!!!!!!!!!!!!!!!!!!!!!!!!!! 

NORM  =      1.110165077 sqrt=     1.053643714
W(HF) =      0.900766941
------------------------------------------------------------------------------
                           ORCA POPULATION ANALYSIS
------------------------------------------------------------------------------
Input electron density              ... 74_W.mdcip
Input spin density                  ... 74_W.mdcir
BaseName (.gbw .S,...)              ... 74_W

                    ********************************
                    * MULLIKEN POPULATION ANALYSIS *
                    ********************************

------------------------------------------
MULLIKEN ATOMIC CHARGES AND SPIN DENSITIES
------------------------------------------
   0 W :    0.000000    4.000000
Sum of atomic charges       :    0.0000000
Sum of atomic spin densities:    4.0000000

---------------------------------------------------
MULLIKEN REDUCED ORBITAL CHARGES AND SPIN DENSITIES
---------------------------------------------------
CHARGE
  0 W s       :     3.850616  s :     3.850616
      pz      :     2.007522  p :     6.022598
      px      :     2.007522
      py      :     2.007554
      dz2     :     0.942428  d :     4.092829
      dxz     :     0.343014
      dyz     :     0.983980
      dx2y2   :     0.839357
      dxy     :     0.984051
      f0      :     0.004970  f :     0.033957
      f+1     :     0.003932
      f-1     :     0.005525
      f+2     :     0.004290
      f-2     :     0.004579
      f+3     :     0.005330
      f-3     :     0.005332

SPIN
  0 W s       :     0.069368  s :     0.069368
      pz      :     0.006012  p :     0.021640
      px      :     0.006034
      py      :     0.009594
      dz2     :     0.913857  d :     3.880455
      dxz     :     0.236389
      dyz     :     0.964360
      dx2y2   :     0.801375
      dxy     :     0.964474
      f0      :     0.004195  f :     0.028538
      f+1     :     0.002980
      f-1     :     0.004876
      f+2     :     0.003437
      f-2     :     0.003741
      f+3     :     0.004656
      f-3     :     0.004652


                     *******************************
                     * LOEWDIN POPULATION ANALYSIS *
                     *******************************

-----------------------------------------
LOEWDIN ATOMIC CHARGES AND SPIN DENSITIES
-----------------------------------------
   0 W :    0.000000    4.000000

--------------------------------------------------
LOEWDIN REDUCED ORBITAL CHARGES AND SPIN DENSITIES
--------------------------------------------------
CHARGE
  0 W s       :     3.850616  s :     3.850616
      pz      :     2.007522  p :     6.022598
      px      :     2.007522
      py      :     2.007554
      dz2     :     0.942428  d :     4.092829
      dxz     :     0.343014
      dyz     :     0.983980
      dx2y2   :     0.839357
      dxy     :     0.984051
      f0      :     0.004970  f :     0.033957
      f+1     :     0.003932
      f-1     :     0.005525
      f+2     :     0.004290
      f-2     :     0.004579
      f+3     :     0.005330
      f-3     :     0.005332

SPIN
  0 W s       :     0.069368  s :     0.069368
      pz      :     0.006012  p :     0.021640
      px      :     0.006034
      py      :     0.009594
      dz2     :     0.913857  d :     3.880455
      dxz     :     0.236389
      dyz     :     0.964360
      dx2y2   :     0.801375
      dxy     :     0.964474
      f0      :     0.004195  f :     0.028538
      f+1     :     0.002980
      f-1     :     0.004876
      f+2     :     0.003437
      f-2     :     0.003741
      f+3     :     0.004656
      f-3     :     0.004652


                      *****************************
                      * MAYER POPULATION ANALYSIS *
                      *****************************

  NA   - Mulliken gross atomic population
  ZA   - Total nuclear charge
  QA   - Mulliken gross atomic charge
  VA   - Mayer's total valence
  BVA  - Mayer's bonded valence
  FA   - Mayer's free valence

  ATOM       NA         ZA         QA         VA         BVA        FA
  0 W     14.0000    14.0000     0.0000     4.8332     0.0000     4.8332





------------------------------------------------------------------------------- 
                                     TIMINGS                                   
------------------------------------------------------------------------------- 


Total execution time                   ...        4.434 sec

Fock Matrix Formation                  ...        0.152 sec (  3.4%)
Initial Guess                          ...        0.004 sec (  0.1%)
DIIS Solver                            ...        0.085 sec (  1.9%)
State Vector Update                    ...        0.006 sec (  0.1%)
Sigma-vector construction              ...        0.814 sec ( 18.4%)
  <D|H|D>(0-ext Fock)                  ...        0.001 sec (  0.2% of sigma)
  <D|H|D>(0-ext)                       ...        0.002 sec (  0.3% of sigma)
  <D|H|D>(2-ext)                       ...        0.009 sec (  1.2% of sigma)
  <D|H|D>(4-ext)                       ...        0.257 sec ( 31.6% of sigma)
  <S|H|0>                              ...        0.016 sec (  2.0% of sigma)
  <S|H|S>                              ...        0.001 sec (  0.1% of sigma)
  <D|H|S>(1-ext)                       ...        0.009 sec (  1.1% of sigma)
  Fock-dressing                        ...        0.255 sec ( 31.3% of sigma)
  (ik|jl)-dressing                     ...        0.005 sec (  0.6% of sigma)
  (ij|ab),(ia|jb)-dressing             ...        0.192 sec ( 23.6% of sigma)
  Pair energies                        ...        0.002 sec (  0.2% of sigma)
Total Time for computing (T)           ...        0.025 sec (  0.6% of ALL)
  I/O of integral and amplitudes       ...        0.003 sec ( 13.2% of (T))
  External N**7 contributions          ...        0.002 sec (  7.4% of (T))
  N**6 triples energy contributions    ...        0.005 sec ( 22.2% of (T))


-------------------------   --------------------
FINAL SINGLE POINT ENERGY       -66.515648876751
-------------------------   --------------------


                            ***************************************
                            *     ORCA property calculations      *
                            ***************************************

                                    ---------------------
                                    Active property flags
                                    ---------------------
   (+) Dipole Moment


------------------------------------------------------------------------------
                       ORCA ELECTRIC PROPERTIES CALCULATION
------------------------------------------------------------------------------

Dipole Moment Calculation                       ... on
Quadrupole Moment Calculation                   ... off
Polarizability Calculation                      ... off
GBWName                                         ... 74_W.gbw
Electron density file                           ... 74_W.scfp
The origin for moment calculation is the CENTER OF MASS  = ( 0.000000,  0.000000  0.000000)

-------------
DIPOLE MOMENT
-------------
                                X             Y             Z
Electronic contribution:     -0.00000       0.00000       0.00000
Nuclear contribution   :      0.00000       0.00000       0.00000
                        -----------------------------------------
Total Dipole Moment    :     -0.00000       0.00000       0.00000
                        -----------------------------------------
Magnitude (a.u.)       :      0.00000
Magnitude (Debye)      :      0.00000



--------------------
Rotational spectrum 
--------------------
 
Rotational constants in cm-1:     0.000000     0.000000     0.000000 
Rotational constants in MHz :     0.000000     0.000000     0.000000 

 Dipole components along the rotational axes: 
x,y,z [a.u.] :    -0.000000     0.000000     0.000000 
x,y,z [Debye]:    -0.000000     0.000000     0.000000 

 

                           *** MDCI DENSITY ***

------------------------------------------------------------------------------
                       ORCA ELECTRIC PROPERTIES CALCULATION
------------------------------------------------------------------------------

Dipole Moment Calculation                       ... on
Quadrupole Moment Calculation                   ... off
Polarizability Calculation                      ... off
GBWName                                         ... 74_W.gbw
Electron density file                           ... 74_W.mdcip
The origin for moment calculation is the CENTER OF MASS  = ( 0.000000,  0.000000  0.000000)

-------------
DIPOLE MOMENT
-------------
                                X             Y             Z
Electronic contribution:      0.00000       0.00000       0.00000
Nuclear contribution   :      0.00000       0.00000       0.00000
                        -----------------------------------------
Total Dipole Moment    :      0.00000       0.00000       0.00000
                        -----------------------------------------
Magnitude (a.u.)       :      0.00000
Magnitude (Debye)      :      0.00000



--------------------
Rotational spectrum 
--------------------
 
Rotational constants in cm-1:     0.000000     0.000000     0.000000 
Rotational constants in MHz :     0.000000     0.000000     0.000000 

 Dipole components along the rotational axes: 
x,y,z [a.u.] :     0.000000     0.000000     0.000000 
x,y,z [Debye]:     0.000000     0.000000     0.000000 

 

Timings for individual modules:

Sum of individual times         ...       34.538 sec (=   0.576 min)
GTO integral calculation        ...        0.894 sec (=   0.015 min)   2.6 %
SCF iterations                  ...       28.752 sec (=   0.479 min)  83.2 %
MDCI module                     ...        4.892 sec (=   0.082 min)  14.2 %
                             ****ORCA TERMINATED NORMALLY****
TOTAL RUN TIME: 0 days 0 hours 0 minutes 35 seconds 368 msec
