
                                 *****************
                                 * O   R   C   A *
                                 *****************

           --- An Ab Initio, DFT and Semiempirical electronic structure package ---

                  #######################################################
                  #                        -***-                        #
                  #          Department of theory and spectroscopy      #
                  #               Directorship: Frank Neese             #
                  #        Max Planck Institute fuer Kohlenforschung    #
                  #                Kaiser Wilhelm Platz 1               #
                  #                 D-45470 Muelheim/Ruhr               #
                  #                      Germany                        #
                  #                                                     #
                  #                  All rights reserved                #
                  #                        -***-                        #
                  #######################################################


                         Program Version 4.2.0 -  RELEASE  -


 With contributions from (in alphabetic order):
   Daniel Aravena         : Magnetic Suceptibility
   Michael Atanasov       : Ab Initio Ligand Field Theory (pilot matlab implementation)
   Alexander A. Auer      : GIAO ZORA, VPT2
   Ute Becker             : Parallelization
   Giovanni Bistoni       : ED, misc. LED, open-shell LED, HFLED
   Martin Brehm           : Molecular dynamics
   Dmytro Bykov           : SCF Hessian
   Vijay G. Chilkuri      : MRCI spin determinant printing, contributions to CSF-ICE
   Dipayan Datta          : RHF DLPNO-CCSD density
   Achintya Kumar Dutta   : EOM-CC, STEOM-CC
   Dmitry Ganyushin       : Spin-Orbit,Spin-Spin,Magnetic field MRCI
   Miquel Garcia          : C-PCM Hessian, Gaussian charge scheme
   Yang Guo               : DLPNO-NEVPT2, CIM, IAO-localization
   Andreas Hansen         : Spin unrestricted coupled pair/coupled cluster methods
   Benjamin Helmich-Paris : CASSCF linear response (MC-RPA)
   Lee Huntington         : MR-EOM, pCC
   Robert Izsak           : Overlap fitted RIJCOSX, COSX-SCS-MP3, EOM
   Christian Kollmar      : KDIIS, OOCD, Brueckner-CCSD(T), CCSD density
   Simone Kossmann        : Meta GGA functionals, TD-DFT gradient, OOMP2, MP2 Hessian
   Martin Krupicka        : AUTO-CI
   Lucas Lang             : DCDCAS
   Dagmar Lenk            : GEPOL surface, SMD
   Dimitrios Liakos       : Extrapolation schemes; Compound Job, initial MDCI parallelization
   Dimitrios Manganas     : Further ROCIS development; embedding schemes
   Dimitrios Pantazis     : SARC Basis sets
   Taras Petrenko         : DFT Hessian,TD-DFT gradient, ASA, ECA, R-Raman, ABS, FL, XAS/XES, NRVS
   Peter Pinski           : DLPNO-MP2, DLPNO-MP2 Gradient
   Christoph Reimann      : Effective Core Potentials
   Marius Retegan         : Local ZFS, SOC
   Christoph Riplinger    : Optimizer, TS searches, QM/MM, DLPNO-CCSD(T), (RO)-DLPNO pert. Triples
   Tobias Risthaus        : Range-separated hybrids, TD-DFT gradient, RPA, STAB
   Michael Roemelt        : Original ROCIS implementation
   Masaaki Saitow         : Open-shell DLPNO-CCSD energy and density
   Barbara Sandhoefer     : DKH picture change effects
   Avijit Sen             : IP-ROCIS
   Kantharuban Sivalingam : CASSCF convergence, NEVPT2, FIC-MRCI
   Bernardo de Souza      : ESD, SOC TD-DFT
   Georgi Stoychev        : AutoAux, RI-MP2 NMR
   Willem Van den Heuvel  : Paramagnetic NMR
   Boris Wezisla          : Elementary symmetry handling
   Frank Wennmohs         : Technical directorship


 We gratefully acknowledge several colleagues who have allowed us to
 interface, adapt or use parts of their codes:
   Stefan Grimme, W. Hujo, H. Kruse,             : VdW corrections, initial TS optimization,
                  C. Bannwarth                     DFT functionals, gCP, sTDA/sTD-DF
   Ed Valeev, F. Pavosevic, A. Kumar             : LibInt (2-el integral package), F12 methods
   Garnet Chan, S. Sharma, J. Yang, R. Olivares  : DMRG
   Ulf Ekstrom                                   : XCFun DFT Library
   Mihaly Kallay                                 : mrcc  (arbitrary order and MRCC methods)
   Andreas Klamt, Michael Diedenhofen            : otool_cosmo (COSMO solvation model)
   Jiri Pittner, Ondrej Demel                    : Mk-CCSD
   Frank Weinhold                                : gennbo (NPA and NBO analysis)
   Christopher J. Cramer and Donald G. Truhlar   : smd solvation model
   Lars Goerigk                                  : TD-DFT with DH, B97 family of functionals
   V. Asgeirsson, H. Jonsson                     : NEB implementation
   FAccTs GmbH                                   : IRC, NEB, NEB-TS, Multilevel, MM, QM/MM, CI optimization
   S Lehtola, MJT Oliveira, MAL Marques          : LibXC Library


 Your calculation uses the libint2 library for the computation of 2-el integrals
 For citations please refer to: http://libint.valeyev.net

 Your ORCA version has been built with support for libXC version: 4.2.3
 For citations please refer to: https://tddft.org/programs/libxc/

 This ORCA versions uses:
   CBLAS   interface :  Fast vector & matrix operations
   LAPACKE interface :  Fast linear algebra routines
   SCALAPACK package :  Parallel linear algebra routines


----- Orbital basis set information -----
Your calculation utilizes the basis: def2-SVP
   F. Weigend and R. Ahlrichs, Phys. Chem. Chem. Phys. 7, 3297 (2005).

----- AuxJ basis set information -----
Your calculation utilizes the auxiliary basis: def2/J
   F. Weigend, Phys. Chem. Chem. Phys. 8, 1057 (2006).

================================================================================
                                        WARNINGS
                       Please study these warnings very carefully!
================================================================================


INFO   : the flag for use of LIBINT has been found!

================================================================================
                                       INPUT FILE
================================================================================
NAME = 75_Re_atom75.inp
|  1> # input to generate an atomic fitting density for Re
|  2> # this file is use internally by ORCA
|  3> #
|  4> # atomic ground state (S=6): 1s2 2s2 2p6 3s2 3p6 4s2 3d10 4p6 5s2 4d10 5p6 6s2 4f14 5d5 
|  5> #
|  6> ! RHF AllowRHF def2-SVP def2/J  NoMulliken NoLoewdin NoMayer NoPrintMOs 
|  7> 
|  8> %output print[p_atomdensfit] 2 end
|  9> 
| 10> %scf
| 11>   guess hcore
| 12>   maxiter 1000
| 13>   maxdisk 500000
| 14>   SCFMode Conventional
| 15>   lshift 0.500000
| 16>   hftyp rohf
| 17>   rohf_case sahf
| 18>   rohf_numop   2
| 19>   rohf_norb[1] 5
| 20>   rohf_nel[1]  5
| 21> end
| 22> 
| 23> %basis
| 24>   NewECP 75
| 25>     N_core 60
| 26>     lmax f
| 27>     s 3
| 28>       1      14.0993051000   1038.9515723000  2
| 29>       2       7.0496525000     29.5617383000  2
| 30>       3       2.5086506000    -16.4498523000  2
| 31>     p 3
| 32>       1      10.1077169000    339.5435096000  2
| 33>       2       5.0538583000     24.9136965000  2
| 34>       3       2.5086506000    -16.4498523000  2
| 35>     d 3
| 36>       1       6.8486179000    111.6996527000  2
| 37>       2       3.4243090000     12.6243293000  2
| 38>       3       2.5086506000    -16.4498523000  2
| 39>     f 1
| 40>       1       2.5086506000     16.4498523000  2
| 41>   end
| 42>   NewGTO 75
| 43>     s 2 
| 44>      1      14.7818620000     -1.3989965692
| 45>      2      12.3240750000      2.3782440179
| 46>     s 1 
| 47>      1       5.5098597284      1.0000000000
| 48>     s 1 
| 49>      1       0.9887410469      1.0000000000
| 50>     s 1 
| 51>      1       0.4283331203      1.0000000000
| 52>     s 1 
| 53>      1       0.1229680453      1.0000000000
| 54>     s 1 
| 55>      1       0.0439498516      1.0000000000
| 56>     p 4 
| 57>      1       7.4040050000      0.5957878713
| 58>      2       6.3502060000     -0.8317066137
| 59>      3       1.3311713455      0.5820310906
| 60>      4       0.6265960055      0.5626939292
| 61>     p 1 
| 62>      1       0.2592271870      1.0000000000
| 63>     p 1 
| 64>      1       0.0483000000      1.0000000000
| 65>     d 4 
| 66>      1       4.0616274916     -0.0845467499
| 67>      2       1.8487943286      0.1992437577
| 68>      3       0.7870204843      0.4980214909
| 69>      4       0.3206984317      0.4770739482
| 70>     d 1 
| 71>      1       0.1189274298      1.0000000000
| 72>   end
| 73>   NewAuxGTO 75
| 74>     S 1
| 75>      1 1310.72 1.0
| 76>     S 1
| 77>      1  655.36 1.0
| 78>     S 1
| 79>      1  327.68 1.0
| 80>     S 1
| 81>      1  163.84 1.0
| 82>     S 1
| 83>      1   81.82 1.0
| 84>     S 1
| 85>      1   40.96 1.0
| 86>     S 1
| 87>      1   20.48 1.0
| 88>     S 1
| 89>      1   10.24 1.0
| 90>     S 1
| 91>      1    5.12 1.0
| 92>     S 1
| 93>      1    2.56 1.0
| 94>     S 1
| 95>      1    1.28 1.0
| 96>     S 1
| 97>      1    0.64 1.0
| 98>     S 1
| 99>      1    0.32 1.0
|100>     S 1
|101>      1    0.16 1.0
|102>     S 1
|103>      1    0.08 1.0
|104>     S 1
|105>      1    0.04 1.0
|106>     S 1
|107>      1    0.02 1.0
|108>     S 1
|109>      1    0.01 1.0
|110>   end
|111> end
|112> 
|113> * xyz 0 6
|114> 75  0.0 0.0 0.0
|115> *
|116> 
|117> 
|118>                          ****END OF INPUT****
================================================================================

                       ****************************
                       * Single Point Calculation *
                       ****************************

---------------------------------
CARTESIAN COORDINATES (ANGSTROEM)
---------------------------------
  Re     0.000000    0.000000    0.000000

----------------------------
CARTESIAN COORDINATES (A.U.)
----------------------------
  NO LB      ZA    FRAG     MASS         X           Y           Z
   0 Re   15.0000*   0   186.207    0.000000    0.000000    0.000000
* core charge reduced due to ECP

--------------------------------
INTERNAL COORDINATES (ANGSTROEM)
--------------------------------
 Re     0   0   0     0.000000000000     0.00000000     0.00000000

---------------------------
INTERNAL COORDINATES (A.U.)
---------------------------
 Re     0   0   0     0.000000000000     0.00000000     0.00000000

---------------------
BASIS SET INFORMATION
---------------------
There are 1 groups of distinct atoms

 Group   1 Type Re  : 7s6p5d contracted to 6s3p2d pattern {211111/411/41}

Atom   0Re   basis set group =>   1
---------------------------------
AUXILIARY/J BASIS SET INFORMATION
---------------------------------
There are 1 groups of distinct atoms

 Group   1 Type Re  : 18s contracted to 18s pattern {111111111111111111}

Atom   0Re   basis set group =>   1
-------------------------
ECP PARAMETER INFORMATION
-------------------------

 Group 1, Type Re ECP (replacing 60 core electrons, lmax=3)

Atom   0Re   ECP group =>   1

------------------------------------------------------------------------------
                           ORCA GTO INTEGRAL CALCULATION
------------------------------------------------------------------------------

                         BASIS SET STATISTICS AND STARTUP INFO

 # of primitive gaussian shells          ...   18
 # of primitive gaussian functions       ...   50
 # of contracted shells                  ...   11
 # of contracted basis functions         ...   25
 Highest angular momentum                ...    2
 Maximum contraction depth               ...    4
 Integral package used                   ... LIBINT
 Integral threshhold            Thresh   ...  1.000e-10
 Primitive cut-off              TCut     ...  1.000e-11
 Storage cut-off                TCutStore... -1.000e+00
 Buffer length                           ... 1048576 integrals/buffer
 Generate file with integrals 4 distinct ...false


------------------------------ INTEGRAL EVALUATION ----------------------------


 * One electron integrals 

   ECP integrals                         ... done
 Pre-screening matrix                    ... done
 Shell pair data                         ... done (   0.000 sec)
 Statistics run                          ... done
 Maximum amount of storage needed        ...     0 MB
 Maximum amount of storage dedicated     ... 500000 MB
 Beginning two electron integral evaluation:
 Starting repulsion integrals
  <ss|ss>  ...          231 b.         0 skpd (  0.0%)     0.000 s. (  0.000 ms/b)
  <ss|sp>  ...          378 b.         0 skpd (  0.0%)     0.000 s. (  0.000 ms/b)
  <ss|sd>  ...          252 b.         0 skpd (  0.0%)     0.000 s. (  0.000 ms/b)
  <ss|pp>  ...          126 b.         0 skpd (  0.0%)     0.000 s. (  0.001 ms/b)
  <ss|pd>  ...          126 b.         0 skpd (  0.0%)     0.000 s. (  0.001 ms/b)
  <ss|dd>  ...           63 b.         0 skpd (  0.0%)     0.000 s. (  0.002 ms/b)
  <sp|sp>  ...          171 b.         0 skpd (  0.0%)     0.000 s. (  0.001 ms/b)
  <sp|sd>  ...          216 b.         0 skpd (  0.0%)     0.000 s. (  0.001 ms/b)
  <sp|pp>  ...          108 b.         0 skpd (  0.0%)     0.000 s. (  0.002 ms/b)
  <sp|pd>  ...          108 b.         0 skpd (  0.0%)     0.000 s. (  0.003 ms/b)
  <sp|dd>  ...           54 b.         0 skpd (  0.0%)     0.000 s. (  0.007 ms/b)
  <sd|sd>  ...           78 b.         0 skpd (  0.0%)     0.000 s. (  0.002 ms/b)
  <sd|pp>  ...           72 b.         0 skpd (  0.0%)     0.000 s. (  0.004 ms/b)
  <sd|pd>  ...           72 b.         0 skpd (  0.0%)     0.001 s. (  0.008 ms/b)
  <sd|dd>  ...           36 b.         0 skpd (  0.0%)     0.001 s. (  0.020 ms/b)
  <pp|pp>  ...           21 b.         0 skpd (  0.0%)     0.000 s. (  0.008 ms/b)
  <pp|pd>  ...           36 b.         0 skpd (  0.0%)     0.000 s. (  0.013 ms/b)
  <pp|dd>  ...           18 b.         0 skpd (  0.0%)     0.001 s. (  0.033 ms/b)
  <pd|pd>  ...           21 b.         0 skpd (  0.0%)     0.001 s. (  0.037 ms/b)
  <pd|dd>  ...           18 b.         0 skpd (  0.0%)     0.001 s. (  0.082 ms/b)
  <dd|dd>  ...            6 b.         0 skpd (  0.0%)     0.002 s. (  0.276 ms/b)


                                      INTEGRAL STATISTICS

Integral type statistics:
 Number of integrals retained            ...      52975 
 One   Center Integrals retained         ...      52975 (100.0%)
 Two   Center Integrals retained         ...          0 (  0.0%)
 Three Center Integrals retained         ...          0 (  0.0%)
 Four  Center Integrals retained         ...          0 (  0.0%)

Storage statistics:
 Number of char integrals                ...          0 (  0.0%)
 Number of short int integrals           ...          0 (  0.0%)
 Number of double/float integrals        ...      52975 (100.0%)
 Amount of memory used                   ...          0 MB
 Amount of memory estimated              ...          0 MB ( 92.8%)

Prescreening statistics:
 Total number of shell quadruples        ...       2211 
 Number of skipped shell quadruples      ...          0 (  0.0%)
 # of negligible batches done            ...          0 (  0.0%)

Timings:
 Total evaluation time               ...     0.167 sec (   0.003 min)
 One electron matrix time            ...     0.014 sec (   0.000 min) =  8.2%
 Schwartz matrix evaluation time     ...     0.072 sec (   0.001 min) = 43.3%
 Statistics run                      ...     0.000 sec (   0.000 min) =  0.3%
 Repulsion integral time             ...     0.009 sec (   0.000 min) =  5.3%

-------------------------------------------------------------------------------
                                 ORCA SCF
-------------------------------------------------------------------------------

------------
SCF SETTINGS
------------
Hamiltonian:
 Ab initio Hamiltonian  Method          .... Hartree-Fock(GTOs)


General Settings:
 Integral files         IntName         .... 75_Re_atom75
 Hartree-Fock type      HFTyp           .... ROHF
 Total Charge           Charge          ....    0
 Multiplicity           Mult            ....    6
 Number of Electrons    NEL             ....   15
 Basis Dimension        Dim             ....   25
 Nuclear Repulsion      ENuc            ....      0.0000000000 Eh

Convergence Acceleration:
 DIIS                   CNVDIIS         .... on
   Start iteration      DIISMaxIt       ....    12
   Startup error        DIISStart       ....  0.200000
   # of expansion vecs  DIISMaxEq       ....     5
   Bias factor          DIISBfac        ....   1.050
   Max. coefficient     DIISMaxC        ....  10.000
 Newton-Raphson         CNVNR           .... off
 SOSCF                  CNVSOSCF        .... off
 Level Shifting         CNVShift        .... on
   Level shift para.    LevelShift      ....    0.5000
   Turn off err/grad.   ShiftErr        ....    0.0010
 Zerner damping         CNVZerner       .... off
 Static damping         CNVDamp         .... on
   Fraction old density DampFac         ....    0.7000
   Max. Damping (<1)    DampMax         ....    0.9800
   Min. Damping (>=0)   DampMin         ....    0.0000
   Turn off err/grad.   DampErr         ....    0.1000
 Fernandez-Rico         CNVRico         .... off

SCF Procedure:
 Maximum # iterations   MaxIter         ....  1000
 SCF integral mode      SCFMode         .... Conventional
 Integral Threshold     Thresh          ....  1.000e-10 Eh
 Primitive CutOff       TCut            ....  1.000e-11 Eh
 Integral Buffer length BufferLength    .... 1048576
 Integral index format  IndFormat       ....     0
 Integral value format  ValFormat       ....     0
 Integral Storage       Thresh          ....  1.000e-10 Eh

Convergence Tolerance:
 Convergence Check Mode ConvCheckMode   .... Total+1el-Energy
 Convergence forced     ConvForced      .... 0
 Energy Change          TolE            ....  1.000e-06 Eh
 1-El. energy change                    ....  1.000e-03 Eh
 DIIS Error             TolErr          ....  1.000e-06


Diagonalization of the overlap matrix:
Smallest eigenvalue                        ... 1.606e-02
Time for diagonalization                   ...    0.000 sec
Threshold for overlap eigenvalues          ... 1.000e-08
Number of eigenvalues below threshold      ... 0
Time for construction of square roots      ...    0.002 sec
Total time needed                          ...    0.002 sec

--------------------
INITIAL GUESS: HCORE
--------------------
AVERAGE-CONFIGURATION (SAHF) CASE FOUND

-------------------
FINAL ROHF SETTINGS
-------------------
Number of operators             ... 2
  operator   0:   5 orbitals  10 electrons n(mue)= 2.000
  operator   1:   5 orbitals   5 electrons n(mue)= 1.000
Vector coupling coefficients a and b (Zerner convention):
   1.000    1.000           1.000    1.000 
   1.000    1.000           1.000    2.000 

                      -----------------
                      INTIAL GUESS DONE 
                      -----------------

 InCore treatment chosen:
   Memory dedicated               ...    1024 MB
   Memory needed                  ...      0 MB
   Number of tiny    integrals    ...       0
   Number of small   integrals    ...       0
   Number of regular integrals    ...   52975

--------------
SCF ITERATIONS
--------------
ITER       Energy         Delta-E        Max-DP      RMS-DP      [F,P]     Damp
  0    -74.6702880865   0.000000000000 2.07152320  0.10905623  0.5735950 0.7000
  1    -76.0848294914  -1.414541404855 1.44586397  0.07554042  0.2780056 0.7000
                            ****Activating DIIS****
  2    -76.1832713156  -0.098441824256 3.33132629  0.17345731  0.0821596 0.0000
  3    -76.3485104823  -0.165239166724 0.00243116  0.00011155  0.1303581 0.7000
  4    -76.3466020729   0.001908409407 0.00170060  0.00007803  0.1314028 0.7000
  5    -76.3462944796   0.000307593362 0.04291718  0.00201441  0.1314268 0.7000
  6    -76.3065930402   0.039701439348 0.00559999  0.00025786  0.1553390 0.7000
  7    -76.3281685428  -0.021575502577 0.26889807  0.01149843  0.1352232 0.7000
  8    -76.5002833813  -0.172114838457 1.07148815  0.04329535  0.0902071 0.0000
  9    -76.6791246212  -0.178841239926 0.31384758  0.01525724  0.0724869 0.0000
 10    -76.7209146462  -0.041790025056 0.33148049  0.01340072  0.0463930 0.0000
 11    -76.7396453014  -0.018730655193 0.22443218  0.00835087  0.0226803 0.0000
 12    -76.7441697085  -0.004524407109 0.11012385  0.00411951  0.0085576 0.0000
 13    -76.7449118407  -0.000742132163 0.01712605  0.00073865  0.0028980 0.0000
 14    -76.7449562469  -0.000044406238 0.00157327  0.00009690  0.0029371 0.0000
 15    -76.7449597230  -0.000003476027 0.00091924  0.00005571  0.0029431 0.0000
 16    -76.7449612408  -0.000001517848 0.00071513  0.00004404  0.0029459 0.0000
                 **** Energy Check signals convergence ****

               *****************************************************
               *                     SUCCESS                       *
               *           SCF CONVERGED AFTER  17 CYCLES          *
               *****************************************************


----------------
TOTAL SCF ENERGY
----------------

Total Energy       :          -76.74496211 Eh           -2088.33659 eV

Components:
Nuclear Repulsion  :            0.00000000 Eh               0.00000 eV
Electronic Energy  :          -76.74496211 Eh           -2088.33659 eV
One Electron Energy:         -126.00506507 Eh           -3428.77214 eV
Two Electron Energy:           49.26010296 Eh            1340.43555 eV

Virial components:
Potential Energy   :         -101.79943879 Eh           -2770.10356 eV
Kinetic Energy     :           25.05447668 Eh             681.76697 eV
Virial Ratio       :            4.06312373


---------------
SCF CONVERGENCE
---------------

  Last Energy change         ...   -8.7045e-07  Tolerance :   1.0000e-06
  Last MAX-Density change    ...    1.3411e-03  Tolerance :   1.0000e-05
  Last RMS-Density change    ...    5.2890e-05  Tolerance :   1.0000e-06
  Last DIIS Error            ...    2.9476e-03  Tolerance :   1.0000e-06

             **** THE GBW FILE WAS UPDATED (75_Re_atom75.gbw) ****
             **** DENSITY FILE WAS UPDATED (75_Re_atom75.scfp) ****
             **** ENERGY FILE WAS UPDATED (75_Re_atom75.en.tmp) ****
             **** THE GBW FILE WAS UPDATED (75_Re_atom75.gbw) ****
             **** DENSITY FILE WAS UPDATED (75_Re_atom75.scfp) ****
----------------
ORBITAL ENERGIES
----------------

  NO   OCC          E(Eh)            E(eV) 
   0   2.0000      -4.197072      -114.2081 
   1   2.0000      -2.556635       -69.5696 
   2   2.0000      -2.546392       -69.2908 
   3   2.0000      -2.543222       -69.2046 
   4   2.0000      -0.760541       -20.6954 
   5   1.0000      -0.854431       -23.2502 
   6   1.0000      -0.634327       -17.2609 
   7   1.0000      -0.272759        -7.4222 
   8   1.0000      -0.260065        -7.0767 
   9   1.0000      -0.256216        -6.9720 
  10   0.0000      -0.335517        -9.1299 
  11   0.0000      -0.330201        -8.9852 
  12   0.0000      -0.312649        -8.5076 
  13   0.0000       0.062841         1.7100 
  14   0.0000       0.210567         5.7298 
  15   0.0000       0.227645         6.1945 
  16   0.0000       0.238812         6.4984 
  17   0.0000       0.241149         6.5620 
  18   0.0000       0.248718         6.7680 
  19   0.0000       0.538857        14.6630 
  20   0.0000       0.564289        15.3551 
  21   0.0000       0.572066        15.5667 
  22   0.0000       1.344220        36.5781 
  23   0.0000      64.571307      1757.0746 
  24   0.0000     505.268563     13749.0566 
CleanUpVectors: The p-vectors have cracked symmetry
CleanUpVectors: The p-vectors have cracked symmetry
CleanUpVectors: The p-vectors have cracked symmetry
CleanUpVectors: The d-vectors have cracked symmetry at i=4
CleanUpVectors: The d-vectors have cracked symmetry at i=5
CleanUpVectors: The p-vectors have cracked symmetry
CleanUpVectors: The p-vectors have cracked symmetry
CleanUpVectors: The p-vectors have cracked symmetry
CleanUpVectors: The d-vectors have cracked symmetry at i=10
CleanUpVectors: The d-vectors have cracked symmetry at i=11
CleanUpVectors: The d-vectors have cracked symmetry at i=12
CleanUpVectors: The d-vectors have cracked symmetry at i=14
CleanUpVectors: The d-vectors have cracked symmetry at i=15
CleanUpVectors: The d-vectors have cracked symmetry at i=16
CleanUpVectors: The d-vectors have cracked symmetry at i=17
CleanUpVectors: The d-vectors have cracked symmetry at i=18
CleanUpVectors: The p-vectors have cracked symmetry
CleanUpVectors: The p-vectors have cracked symmetry
CleanUpVectors: The p-vectors have cracked symmetry
--------------------------
ATOM BASIS FOR ELEMENT Re
--------------------------
 NewGTO Re
 S 7
    1         14.781862000000        -0.664426169918
    2         12.324075000000         1.129500671218
    3          5.509859728400        -1.003968581335
    4          0.988741046900         1.048515292956
    5          0.428333120300         0.262266935642
    6          0.122968045300        -0.003596762102
    7          0.043949851600         0.001408861857
 P 18
    1          7.404005000000        -0.074067732455
    2          6.350206000000         0.103396906704
    3          1.331171345500        -0.072357503695
    4          0.626596005500        -0.069953527773
    5          7.404005000000        -0.506127074914
    6          6.350206000000         0.706542136650
    7          1.331171345500        -0.494440567835
    8          0.626596005500        -0.478013477912
    9          7.404005000000         0.246444256852
   10          6.350206000000        -0.344030699862
   11          1.331171345500         0.240753842932
   12          0.626596005500         0.232755136345
   13          0.259227187000        -0.008841423124
   14          0.259227187000        -0.060416101260
   15          0.259227187000         0.029417910866
   16          0.048300000000         0.000551195203
   17          0.048300000000         0.003766482472
   18          0.048300000000        -0.001833982056
 D 18
    1         14.781862000000        -0.000037001489
    2         12.324075000000         0.000075445576
    3          5.509859728400        -0.000155830908
    4          0.988741046900         0.001718759284
    5          0.428333120300        -0.002825722125
    6          0.122968045300        -0.000763602383
    7          0.043949851600         0.013596986704
    8          4.061627491600        -0.031002336071
    9          1.848794328600         0.073060430397
   10          0.787020484300         0.182618842829
   11          0.320698431700         0.174937616059
   12          4.061627491600         0.038338670372
   13          1.848794328600        -0.090349312767
   14          0.787020484300        -0.225833421158
   15          0.320698431700        -0.216334523381
   16          4.061627491600         0.064730820523
   17          1.848794328600        -0.152545330662
   18          0.787020484300        -0.381296025950
 S 7
    1         14.781862000000        -3.855894735296
    2         12.324075000000         6.554882827993
    3          5.509859728400        -3.880843356040
    4          0.988741046900         1.649027858907
    5          0.428333120300        -1.198149281217
    6          0.122968045300         0.465076892545
    7          0.043949851600        -0.161359657522
 S 7
    1         14.781862000000        -3.352999968101
    2         12.324075000000         5.699979750998
    3          5.509859728400        -1.763953597496
    4          0.988741046900         0.568009896240
    5          0.428333120300        -0.404933991604
    6          0.122968045300         0.156583622137
    7          0.043949851600        -0.054398720005
 P 18
    1          7.404005000000        -0.030016508156
    2          6.350206000000         0.041902377601
    3          1.331171345500        -0.029323425030
    4          0.626596005500        -0.028349195626
    5          7.404005000000        -0.205111820878
    6          6.350206000000         0.286331538773
    7          1.331171345500        -0.200375775592
    8          0.626596005500        -0.193718573295
    9          7.404005000000         0.099873396965
   10          6.350206000000        -0.139421040256
   11          1.331171345500         0.097567313733
   12          0.626596005500         0.094325777459
   13          0.259227187000         0.043057602612
   14          0.259227187000         0.294225538442
   15          0.259227187000        -0.143264800012
   16          0.048300000000         0.113616514165
   17          0.048300000000         0.776375785659
   18          0.048300000000        -0.378034219108
 D 18
    1          4.061627491600         0.009634346401
    2          1.848794328600        -0.022704401793
    3          0.787020484300        -0.056750987641
    4          0.320698431700        -0.054363954634
    5          4.061627491600         0.041021795368
    6          1.848794328600        -0.096672393278
    7          0.787020484300        -0.241638332788
    8          0.320698431700        -0.231474656347
    9          4.061627491600        -0.010649490626
   10          1.848794328600         0.025096701322
   11          0.787020484300         0.062730681018
   12          0.320698431700         0.060092132997
   13          4.061627491600         0.046730238358
   14          1.848794328600        -0.110124969908
   15          0.787020484300        -0.275263839290
   16          0.320698431700        -0.263685822813
   17          4.061627491600         0.043674407105
   18          1.848794328600        -0.102923565922
 D 18
    1          4.061627491600         0.006857400863
    2          1.848794328600        -0.016160222806
    3          0.787020484300        -0.040393427368
    4          0.320698431700        -0.038694418269
    5          4.061627491600         0.029197922020
    6          1.848794328600        -0.068808129315
    7          0.787020484300        -0.171989966175
    8          0.320698431700        -0.164755806152
    9          4.061627491600        -0.007579946077
   10          1.848794328600         0.017862980438
   11          0.787020484300         0.044649570216
   12          0.320698431700         0.042771541264
   13          4.061627491600         0.033260998045
   14          1.848794328600        -0.078383216897
   15          0.787020484300        -0.195923460745
   16          0.320698431700        -0.187682621475
   17          4.061627491600         0.031085961047
   18          1.848794328600        -0.073257501892
 P 18
    1          7.404005000000        -0.485429091575
    2          6.350206000000         0.677648212381
    3          1.331171345500        -0.474220502276
    4          0.626596005500        -0.458465195490
    5          7.404005000000         0.200859168389
    6          6.350206000000        -0.280394930510
    7          1.331171345500         0.196221317127
    8          0.626596005500         0.189702140848
    9          7.404005000000         0.266614576966
   10          6.350206000000        -0.372188018006
   11          1.331171345500         0.260458429042
   12          0.626596005500         0.251805065396
   13          0.259227187000         1.270736714278
   14          0.259227187000        -0.525801036860
   15          0.259227187000        -0.697932895643
   16          0.048300000000        -0.608293965588
   17          0.048300000000         0.251697770457
   18          0.048300000000         0.334096248290
 end
  // -----------------------------------------------
  // The basis set
  // -----------------------------------------------
  BAS[ATNO] = new BFNGauss[NSH];
  // Basis function   1 L = s
  InitBFNGauss(BAS[ATNO][  0]);
  BAS[ATNO][  0].l  = 0;
  BAS[ATNO][  0].ng = 7;
  BAS[ATNO][  0].a[  0] =        14.781862000000;     BAS[ATNO][  0].d[  0] =        -0.664426169918;
  BAS[ATNO][  0].a[  1] =        12.324075000000;     BAS[ATNO][  0].d[  1] =         1.129500671218;
  BAS[ATNO][  0].a[  2] =         5.509859728400;     BAS[ATNO][  0].d[  2] =        -1.003968581335;
  BAS[ATNO][  0].a[  3] =         0.988741046900;     BAS[ATNO][  0].d[  3] =         1.048515292956;
  BAS[ATNO][  0].a[  4] =         0.428333120300;     BAS[ATNO][  0].d[  4] =         0.262266935642;
  BAS[ATNO][  0].a[  5] =         0.122968045300;     BAS[ATNO][  0].d[  5] =        -0.003596762102;
  BAS[ATNO][  0].a[  6] =         0.043949851600;     BAS[ATNO][  0].d[  6] =         0.001408861857;

  // Basis function   2 L = p
  InitBFNGauss(BAS[ATNO][  1]);
  BAS[ATNO][  1].l  = 1;
  BAS[ATNO][  1].ng = 18;
  BAS[ATNO][  1].a[  0] =         7.404005000000;     BAS[ATNO][  1].d[  0] =        -0.074067732455;
  BAS[ATNO][  1].a[  1] =         6.350206000000;     BAS[ATNO][  1].d[  1] =         0.103396906704;
  BAS[ATNO][  1].a[  2] =         1.331171345500;     BAS[ATNO][  1].d[  2] =        -0.072357503695;
  BAS[ATNO][  1].a[  3] =         0.626596005500;     BAS[ATNO][  1].d[  3] =        -0.069953527773;
  BAS[ATNO][  1].a[  4] =         7.404005000000;     BAS[ATNO][  1].d[  4] =        -0.506127074914;
  BAS[ATNO][  1].a[  5] =         6.350206000000;     BAS[ATNO][  1].d[  5] =         0.706542136650;
  BAS[ATNO][  1].a[  6] =         1.331171345500;     BAS[ATNO][  1].d[  6] =        -0.494440567835;
  BAS[ATNO][  1].a[  7] =         0.626596005500;     BAS[ATNO][  1].d[  7] =        -0.478013477912;
  BAS[ATNO][  1].a[  8] =         7.404005000000;     BAS[ATNO][  1].d[  8] =         0.246444256852;
  BAS[ATNO][  1].a[  9] =         6.350206000000;     BAS[ATNO][  1].d[  9] =        -0.344030699862;
  BAS[ATNO][  1].a[ 10] =         1.331171345500;     BAS[ATNO][  1].d[ 10] =         0.240753842932;
  BAS[ATNO][  1].a[ 11] =         0.626596005500;     BAS[ATNO][  1].d[ 11] =         0.232755136345;
  BAS[ATNO][  1].a[ 12] =         0.259227187000;     BAS[ATNO][  1].d[ 12] =        -0.008841423124;
  BAS[ATNO][  1].a[ 13] =         0.259227187000;     BAS[ATNO][  1].d[ 13] =        -0.060416101260;
  BAS[ATNO][  1].a[ 14] =         0.259227187000;     BAS[ATNO][  1].d[ 14] =         0.029417910866;
  BAS[ATNO][  1].a[ 15] =         0.048300000000;     BAS[ATNO][  1].d[ 15] =         0.000551195203;
  BAS[ATNO][  1].a[ 16] =         0.048300000000;     BAS[ATNO][  1].d[ 16] =         0.003766482472;
  BAS[ATNO][  1].a[ 17] =         0.048300000000;     BAS[ATNO][  1].d[ 17] =        -0.001833982056;

  // Basis function   3 L = d
  InitBFNGauss(BAS[ATNO][  2]);
  BAS[ATNO][  2].l  = 2;
  BAS[ATNO][  2].ng = 18;
  BAS[ATNO][  2].a[  0] =        14.781862000000;     BAS[ATNO][  2].d[  0] =         0.000037001489;
  BAS[ATNO][  2].a[  1] =        12.324075000000;     BAS[ATNO][  2].d[  1] =        -0.000075445576;
  BAS[ATNO][  2].a[  2] =         5.509859728400;     BAS[ATNO][  2].d[  2] =         0.000155830908;
  BAS[ATNO][  2].a[  3] =         0.988741046900;     BAS[ATNO][  2].d[  3] =        -0.001718759284;
  BAS[ATNO][  2].a[  4] =         0.428333120300;     BAS[ATNO][  2].d[  4] =         0.002825722125;
  BAS[ATNO][  2].a[  5] =         0.122968045300;     BAS[ATNO][  2].d[  5] =         0.000763602383;
  BAS[ATNO][  2].a[  6] =         0.043949851600;     BAS[ATNO][  2].d[  6] =        -0.013596986704;
  BAS[ATNO][  2].a[  7] =         4.061627491600;     BAS[ATNO][  2].d[  7] =         0.031002336071;
  BAS[ATNO][  2].a[  8] =         1.848794328600;     BAS[ATNO][  2].d[  8] =        -0.073060430397;
  BAS[ATNO][  2].a[  9] =         0.787020484300;     BAS[ATNO][  2].d[  9] =        -0.182618842829;
  BAS[ATNO][  2].a[ 10] =         0.320698431700;     BAS[ATNO][  2].d[ 10] =        -0.174937616059;
  BAS[ATNO][  2].a[ 11] =         4.061627491600;     BAS[ATNO][  2].d[ 11] =        -0.038338670372;
  BAS[ATNO][  2].a[ 12] =         1.848794328600;     BAS[ATNO][  2].d[ 12] =         0.090349312767;
  BAS[ATNO][  2].a[ 13] =         0.787020484300;     BAS[ATNO][  2].d[ 13] =         0.225833421158;
  BAS[ATNO][  2].a[ 14] =         0.320698431700;     BAS[ATNO][  2].d[ 14] =         0.216334523381;
  BAS[ATNO][  2].a[ 15] =         4.061627491600;     BAS[ATNO][  2].d[ 15] =        -0.064730820523;
  BAS[ATNO][  2].a[ 16] =         1.848794328600;     BAS[ATNO][  2].d[ 16] =         0.152545330662;
  BAS[ATNO][  2].a[ 17] =         0.787020484300;     BAS[ATNO][  2].d[ 17] =         0.381296025950;

  // Basis function   4 L = s
  InitBFNGauss(BAS[ATNO][  3]);
  BAS[ATNO][  3].l  = 0;
  BAS[ATNO][  3].ng = 7;
  BAS[ATNO][  3].a[  0] =        14.781862000000;     BAS[ATNO][  3].d[  0] =        -3.855894735296;
  BAS[ATNO][  3].a[  1] =        12.324075000000;     BAS[ATNO][  3].d[  1] =         6.554882827993;
  BAS[ATNO][  3].a[  2] =         5.509859728400;     BAS[ATNO][  3].d[  2] =        -3.880843356040;
  BAS[ATNO][  3].a[  3] =         0.988741046900;     BAS[ATNO][  3].d[  3] =         1.649027858907;
  BAS[ATNO][  3].a[  4] =         0.428333120300;     BAS[ATNO][  3].d[  4] =        -1.198149281217;
  BAS[ATNO][  3].a[  5] =         0.122968045300;     BAS[ATNO][  3].d[  5] =         0.465076892545;
  BAS[ATNO][  3].a[  6] =         0.043949851600;     BAS[ATNO][  3].d[  6] =        -0.161359657522;

  // Basis function   5 L = s
  InitBFNGauss(BAS[ATNO][  4]);
  BAS[ATNO][  4].l  = 0;
  BAS[ATNO][  4].ng = 7;
  BAS[ATNO][  4].a[  0] =        14.781862000000;     BAS[ATNO][  4].d[  0] =        -3.352999968101;
  BAS[ATNO][  4].a[  1] =        12.324075000000;     BAS[ATNO][  4].d[  1] =         5.699979750998;
  BAS[ATNO][  4].a[  2] =         5.509859728400;     BAS[ATNO][  4].d[  2] =        -1.763953597496;
  BAS[ATNO][  4].a[  3] =         0.988741046900;     BAS[ATNO][  4].d[  3] =         0.568009896240;
  BAS[ATNO][  4].a[  4] =         0.428333120300;     BAS[ATNO][  4].d[  4] =        -0.404933991604;
  BAS[ATNO][  4].a[  5] =         0.122968045300;     BAS[ATNO][  4].d[  5] =         0.156583622137;
  BAS[ATNO][  4].a[  6] =         0.043949851600;     BAS[ATNO][  4].d[  6] =        -0.054398720005;

  // Basis function   6 L = p
  InitBFNGauss(BAS[ATNO][  5]);
  BAS[ATNO][  5].l  = 1;
  BAS[ATNO][  5].ng = 18;
  BAS[ATNO][  5].a[  0] =         7.404005000000;     BAS[ATNO][  5].d[  0] =        -0.030016508156;
  BAS[ATNO][  5].a[  1] =         6.350206000000;     BAS[ATNO][  5].d[  1] =         0.041902377601;
  BAS[ATNO][  5].a[  2] =         1.331171345500;     BAS[ATNO][  5].d[  2] =        -0.029323425030;
  BAS[ATNO][  5].a[  3] =         0.626596005500;     BAS[ATNO][  5].d[  3] =        -0.028349195626;
  BAS[ATNO][  5].a[  4] =         7.404005000000;     BAS[ATNO][  5].d[  4] =        -0.205111820878;
  BAS[ATNO][  5].a[  5] =         6.350206000000;     BAS[ATNO][  5].d[  5] =         0.286331538773;
  BAS[ATNO][  5].a[  6] =         1.331171345500;     BAS[ATNO][  5].d[  6] =        -0.200375775592;
  BAS[ATNO][  5].a[  7] =         0.626596005500;     BAS[ATNO][  5].d[  7] =        -0.193718573295;
  BAS[ATNO][  5].a[  8] =         7.404005000000;     BAS[ATNO][  5].d[  8] =         0.099873396965;
  BAS[ATNO][  5].a[  9] =         6.350206000000;     BAS[ATNO][  5].d[  9] =        -0.139421040256;
  BAS[ATNO][  5].a[ 10] =         1.331171345500;     BAS[ATNO][  5].d[ 10] =         0.097567313733;
  BAS[ATNO][  5].a[ 11] =         0.626596005500;     BAS[ATNO][  5].d[ 11] =         0.094325777459;
  BAS[ATNO][  5].a[ 12] =         0.259227187000;     BAS[ATNO][  5].d[ 12] =         0.043057602612;
  BAS[ATNO][  5].a[ 13] =         0.259227187000;     BAS[ATNO][  5].d[ 13] =         0.294225538442;
  BAS[ATNO][  5].a[ 14] =         0.259227187000;     BAS[ATNO][  5].d[ 14] =        -0.143264800012;
  BAS[ATNO][  5].a[ 15] =         0.048300000000;     BAS[ATNO][  5].d[ 15] =         0.113616514165;
  BAS[ATNO][  5].a[ 16] =         0.048300000000;     BAS[ATNO][  5].d[ 16] =         0.776375785659;
  BAS[ATNO][  5].a[ 17] =         0.048300000000;     BAS[ATNO][  5].d[ 17] =        -0.378034219108;

  // Basis function   7 L = d
  InitBFNGauss(BAS[ATNO][  6]);
  BAS[ATNO][  6].l  = 2;
  BAS[ATNO][  6].ng = 18;
  BAS[ATNO][  6].a[  0] =         4.061627491600;     BAS[ATNO][  6].d[  0] =        -0.009634346401;
  BAS[ATNO][  6].a[  1] =         1.848794328600;     BAS[ATNO][  6].d[  1] =         0.022704401793;
  BAS[ATNO][  6].a[  2] =         0.787020484300;     BAS[ATNO][  6].d[  2] =         0.056750987641;
  BAS[ATNO][  6].a[  3] =         0.320698431700;     BAS[ATNO][  6].d[  3] =         0.054363954634;
  BAS[ATNO][  6].a[  4] =         4.061627491600;     BAS[ATNO][  6].d[  4] =        -0.041021795368;
  BAS[ATNO][  6].a[  5] =         1.848794328600;     BAS[ATNO][  6].d[  5] =         0.096672393278;
  BAS[ATNO][  6].a[  6] =         0.787020484300;     BAS[ATNO][  6].d[  6] =         0.241638332788;
  BAS[ATNO][  6].a[  7] =         0.320698431700;     BAS[ATNO][  6].d[  7] =         0.231474656347;
  BAS[ATNO][  6].a[  8] =         4.061627491600;     BAS[ATNO][  6].d[  8] =         0.010649490626;
  BAS[ATNO][  6].a[  9] =         1.848794328600;     BAS[ATNO][  6].d[  9] =        -0.025096701322;
  BAS[ATNO][  6].a[ 10] =         0.787020484300;     BAS[ATNO][  6].d[ 10] =        -0.062730681018;
  BAS[ATNO][  6].a[ 11] =         0.320698431700;     BAS[ATNO][  6].d[ 11] =        -0.060092132997;
  BAS[ATNO][  6].a[ 12] =         4.061627491600;     BAS[ATNO][  6].d[ 12] =        -0.046730238358;
  BAS[ATNO][  6].a[ 13] =         1.848794328600;     BAS[ATNO][  6].d[ 13] =         0.110124969908;
  BAS[ATNO][  6].a[ 14] =         0.787020484300;     BAS[ATNO][  6].d[ 14] =         0.275263839290;
  BAS[ATNO][  6].a[ 15] =         0.320698431700;     BAS[ATNO][  6].d[ 15] =         0.263685822813;
  BAS[ATNO][  6].a[ 16] =         4.061627491600;     BAS[ATNO][  6].d[ 16] =        -0.043674407105;
  BAS[ATNO][  6].a[ 17] =         1.848794328600;     BAS[ATNO][  6].d[ 17] =         0.102923565922;

  // Basis function   8 L = d
  InitBFNGauss(BAS[ATNO][  7]);
  BAS[ATNO][  7].l  = 2;
  BAS[ATNO][  7].ng = 18;
  BAS[ATNO][  7].a[  0] =         4.061627491600;     BAS[ATNO][  7].d[  0] =        -0.006857400863;
  BAS[ATNO][  7].a[  1] =         1.848794328600;     BAS[ATNO][  7].d[  1] =         0.016160222806;
  BAS[ATNO][  7].a[  2] =         0.787020484300;     BAS[ATNO][  7].d[  2] =         0.040393427368;
  BAS[ATNO][  7].a[  3] =         0.320698431700;     BAS[ATNO][  7].d[  3] =         0.038694418269;
  BAS[ATNO][  7].a[  4] =         4.061627491600;     BAS[ATNO][  7].d[  4] =        -0.029197922020;
  BAS[ATNO][  7].a[  5] =         1.848794328600;     BAS[ATNO][  7].d[  5] =         0.068808129315;
  BAS[ATNO][  7].a[  6] =         0.787020484300;     BAS[ATNO][  7].d[  6] =         0.171989966175;
  BAS[ATNO][  7].a[  7] =         0.320698431700;     BAS[ATNO][  7].d[  7] =         0.164755806152;
  BAS[ATNO][  7].a[  8] =         4.061627491600;     BAS[ATNO][  7].d[  8] =         0.007579946077;
  BAS[ATNO][  7].a[  9] =         1.848794328600;     BAS[ATNO][  7].d[  9] =        -0.017862980438;
  BAS[ATNO][  7].a[ 10] =         0.787020484300;     BAS[ATNO][  7].d[ 10] =        -0.044649570216;
  BAS[ATNO][  7].a[ 11] =         0.320698431700;     BAS[ATNO][  7].d[ 11] =        -0.042771541264;
  BAS[ATNO][  7].a[ 12] =         4.061627491600;     BAS[ATNO][  7].d[ 12] =        -0.033260998045;
  BAS[ATNO][  7].a[ 13] =         1.848794328600;     BAS[ATNO][  7].d[ 13] =         0.078383216897;
  BAS[ATNO][  7].a[ 14] =         0.787020484300;     BAS[ATNO][  7].d[ 14] =         0.195923460745;
  BAS[ATNO][  7].a[ 15] =         0.320698431700;     BAS[ATNO][  7].d[ 15] =         0.187682621475;
  BAS[ATNO][  7].a[ 16] =         4.061627491600;     BAS[ATNO][  7].d[ 16] =        -0.031085961047;
  BAS[ATNO][  7].a[ 17] =         1.848794328600;     BAS[ATNO][  7].d[ 17] =         0.073257501892;

  // Basis function   9 L = p
  InitBFNGauss(BAS[ATNO][  8]);
  BAS[ATNO][  8].l  = 1;
  BAS[ATNO][  8].ng = 18;
  BAS[ATNO][  8].a[  0] =         7.404005000000;     BAS[ATNO][  8].d[  0] =        -0.485429091575;
  BAS[ATNO][  8].a[  1] =         6.350206000000;     BAS[ATNO][  8].d[  1] =         0.677648212381;
  BAS[ATNO][  8].a[  2] =         1.331171345500;     BAS[ATNO][  8].d[  2] =        -0.474220502276;
  BAS[ATNO][  8].a[  3] =         0.626596005500;     BAS[ATNO][  8].d[  3] =        -0.458465195490;
  BAS[ATNO][  8].a[  4] =         7.404005000000;     BAS[ATNO][  8].d[  4] =         0.200859168389;
  BAS[ATNO][  8].a[  5] =         6.350206000000;     BAS[ATNO][  8].d[  5] =        -0.280394930510;
  BAS[ATNO][  8].a[  6] =         1.331171345500;     BAS[ATNO][  8].d[  6] =         0.196221317127;
  BAS[ATNO][  8].a[  7] =         0.626596005500;     BAS[ATNO][  8].d[  7] =         0.189702140848;
  BAS[ATNO][  8].a[  8] =         7.404005000000;     BAS[ATNO][  8].d[  8] =         0.266614576966;
  BAS[ATNO][  8].a[  9] =         6.350206000000;     BAS[ATNO][  8].d[  9] =        -0.372188018006;
  BAS[ATNO][  8].a[ 10] =         1.331171345500;     BAS[ATNO][  8].d[ 10] =         0.260458429042;
  BAS[ATNO][  8].a[ 11] =         0.626596005500;     BAS[ATNO][  8].d[ 11] =         0.251805065396;
  BAS[ATNO][  8].a[ 12] =         0.259227187000;     BAS[ATNO][  8].d[ 12] =         1.270736714278;
  BAS[ATNO][  8].a[ 13] =         0.259227187000;     BAS[ATNO][  8].d[ 13] =        -0.525801036860;
  BAS[ATNO][  8].a[ 14] =         0.259227187000;     BAS[ATNO][  8].d[ 14] =        -0.697932895643;
  BAS[ATNO][  8].a[ 15] =         0.048300000000;     BAS[ATNO][  8].d[ 15] =        -0.608293965588;
  BAS[ATNO][  8].a[ 16] =         0.048300000000;     BAS[ATNO][  8].d[ 16] =         0.251697770457;
  BAS[ATNO][  8].a[ 17] =         0.048300000000;     BAS[ATNO][  8].d[ 17] =         0.334096248290;

-------------------------------------------
RADIAL EXPECTATION VALUES <R**-3> TO <R**3>
-------------------------------------------
   0 :     0.000000     1.112665     1.013637     1.071093     1.247991     1.583513
   1 :     0.942439     0.878089     0.895151     1.225850     1.650167     2.439472
   2 :     0.939714     0.876014     0.893868     1.228418     1.658475     2.461262
   3 :     0.938900     0.875393     0.893483     1.229190     1.660986     2.467924
   4 :     0.434788     0.502918     0.663827     1.717049     3.348505    36.868526
   5 :     0.432180     0.501034     0.662253     1.723295     3.378136    37.278654
   6 :     0.000000     0.221276     0.411113     2.859939     9.245881    33.215676
   7 :     0.000000     0.086997     0.237169     5.224586    30.375631   188.604680
   8 :     0.000000     0.520088     0.603744     2.464718     8.827185    42.512832
   9 :     0.000000     5.308586     2.050631     0.594452     0.577148     1.416609
  10 :     0.000000    47.651827     5.554009     0.243075     0.103412     0.169129
  11 :     0.066729     0.107575     0.279628     4.352447    21.751696   121.115465
  12 :     0.063415     0.103818     0.274991     4.406642    22.207526   124.307555
  13 :     0.062436     0.102712     0.273631     4.422530    22.341300   125.245285
  14 :     0.398356     0.468511     0.635574     1.834382     3.934272    49.266080
  15 :     0.397146     0.467356     0.634611     1.838576     3.955841    49.737124
  16 :     0.393078     0.463466     0.631359     1.852807     4.029252    51.345588
  17 :     0.100450     0.144757     0.319739     3.775482    15.678286   345.445254
  18 :     0.099057     0.143411     0.318659     3.779660    15.697957   345.885882
  19 :     0.135495     0.177810     0.346907     3.662334    15.112170   333.493674
  20 :     0.136704     0.178965     0.347870     3.658139    15.090601   333.022630
  21 :     0.140772     0.182855     0.351122     3.643908    15.017190   331.414166
  22 :     0.255797     0.272175     0.430289     3.335257    14.950749    82.069519
  23 :     0.261836     0.278008     0.436209     3.278495    14.486611    78.855640
  24 :     0.263630     0.279735     0.437954     3.261834    14.350326    77.911247
Making the total density                ... o.k.
o.k.
Initializing the integrals              ... done
Making exponents                        ... done
Making rho(0)                           ... done (         0.000173638)
Integral calculation                    ... Two index integrals                     ... done
Solving the equation system             ... done
atomic density will be written to file 75_Re_atom75.adf

-------
TIMINGS
-------

Total SCF time: 0 days 0 hours 0 min 0 sec 

Total time                  ....       0.725 sec
Sum of individual times     ....       0.190 sec  ( 26.2%)

Fock matrix formation       ....       0.134 sec  ( 18.5%)
Diagonalization             ....       0.023 sec  (  3.1%)
Density matrix formation    ....       0.000 sec  (  0.0%)
Population analysis         ....       0.000 sec  (  0.0%)
Initial guess               ....       0.000 sec  (  0.0%)
Orbital Transformation      ....       0.000 sec  (  0.0%)
Orbital Orthonormalization  ....       0.000 sec  (  0.0%)
DIIS solution               ....       0.033 sec  (  4.5%)

-------------------------   --------------------
FINAL SINGLE POINT ENERGY       -76.744962111266
-------------------------   --------------------


                            ***************************************
                            *     ORCA property calculations      *
                            ***************************************

                                    ---------------------
                                    Active property flags
                                    ---------------------
   (+) Dipole Moment


------------------------------------------------------------------------------
                       ORCA ELECTRIC PROPERTIES CALCULATION
------------------------------------------------------------------------------

Dipole Moment Calculation                       ... on
Quadrupole Moment Calculation                   ... off
Polarizability Calculation                      ... off
GBWName                                         ... 75_Re_atom75.gbw
Electron density file                           ... 75_Re_atom75.scfp
The origin for moment calculation is the CENTER OF MASS  = ( 0.000000,  0.000000  0.000000)

-------------
DIPOLE MOMENT
-------------
                                X             Y             Z
Electronic contribution:      0.00000      -0.00000      -0.00000
Nuclear contribution   :      0.00000       0.00000       0.00000
                        -----------------------------------------
Total Dipole Moment    :      0.00000      -0.00000      -0.00000
                        -----------------------------------------
Magnitude (a.u.)       :      0.00000
Magnitude (Debye)      :      0.00000



--------------------
Rotational spectrum 
--------------------
 
Rotational constants in cm-1:     0.000000     0.000000     0.000000 
Rotational constants in MHz :     0.000000     0.000000     0.000000 

 Dipole components along the rotational axes: 
x,y,z [a.u.] :     0.000000    -0.000000    -0.000000 
x,y,z [Debye]:     0.000000    -0.000000    -0.000000 

 

Timings for individual modules:

Sum of individual times         ...        1.140 sec (=   0.019 min)
GTO integral calculation        ...        0.215 sec (=   0.004 min)  18.9 %
SCF iterations                  ...        0.925 sec (=   0.015 min)  81.1 %
                             ****ORCA TERMINATED NORMALLY****
TOTAL RUN TIME: 0 days 0 hours 0 minutes 1 seconds 347 msec
