
                                 *****************
                                 * O   R   C   A *
                                 *****************

           --- An Ab Initio, DFT and Semiempirical electronic structure package ---

                  #######################################################
                  #                        -***-                        #
                  #          Department of theory and spectroscopy      #
                  #               Directorship: Frank Neese             #
                  #        Max Planck Institute fuer Kohlenforschung    #
                  #                Kaiser Wilhelm Platz 1               #
                  #                 D-45470 Muelheim/Ruhr               #
                  #                      Germany                        #
                  #                                                     #
                  #                  All rights reserved                #
                  #                        -***-                        #
                  #######################################################


                         Program Version 4.2.0 -  RELEASE  -


 With contributions from (in alphabetic order):
   Daniel Aravena         : Magnetic Suceptibility
   Michael Atanasov       : Ab Initio Ligand Field Theory (pilot matlab implementation)
   Alexander A. Auer      : GIAO ZORA, VPT2
   Ute Becker             : Parallelization
   Giovanni Bistoni       : ED, misc. LED, open-shell LED, HFLED
   Martin Brehm           : Molecular dynamics
   Dmytro Bykov           : SCF Hessian
   Vijay G. Chilkuri      : MRCI spin determinant printing, contributions to CSF-ICE
   Dipayan Datta          : RHF DLPNO-CCSD density
   Achintya Kumar Dutta   : EOM-CC, STEOM-CC
   Dmitry Ganyushin       : Spin-Orbit,Spin-Spin,Magnetic field MRCI
   Miquel Garcia          : C-PCM Hessian, Gaussian charge scheme
   Yang Guo               : DLPNO-NEVPT2, CIM, IAO-localization
   Andreas Hansen         : Spin unrestricted coupled pair/coupled cluster methods
   Benjamin Helmich-Paris : CASSCF linear response (MC-RPA)
   Lee Huntington         : MR-EOM, pCC
   Robert Izsak           : Overlap fitted RIJCOSX, COSX-SCS-MP3, EOM
   Christian Kollmar      : KDIIS, OOCD, Brueckner-CCSD(T), CCSD density
   Simone Kossmann        : Meta GGA functionals, TD-DFT gradient, OOMP2, MP2 Hessian
   Martin Krupicka        : AUTO-CI
   Lucas Lang             : DCDCAS
   Dagmar Lenk            : GEPOL surface, SMD
   Dimitrios Liakos       : Extrapolation schemes; Compound Job, initial MDCI parallelization
   Dimitrios Manganas     : Further ROCIS development; embedding schemes
   Dimitrios Pantazis     : SARC Basis sets
   Taras Petrenko         : DFT Hessian,TD-DFT gradient, ASA, ECA, R-Raman, ABS, FL, XAS/XES, NRVS
   Peter Pinski           : DLPNO-MP2, DLPNO-MP2 Gradient
   Christoph Reimann      : Effective Core Potentials
   Marius Retegan         : Local ZFS, SOC
   Christoph Riplinger    : Optimizer, TS searches, QM/MM, DLPNO-CCSD(T), (RO)-DLPNO pert. Triples
   Tobias Risthaus        : Range-separated hybrids, TD-DFT gradient, RPA, STAB
   Michael Roemelt        : Original ROCIS implementation
   Masaaki Saitow         : Open-shell DLPNO-CCSD energy and density
   Barbara Sandhoefer     : DKH picture change effects
   Avijit Sen             : IP-ROCIS
   Kantharuban Sivalingam : CASSCF convergence, NEVPT2, FIC-MRCI
   Bernardo de Souza      : ESD, SOC TD-DFT
   Georgi Stoychev        : AutoAux, RI-MP2 NMR
   Willem Van den Heuvel  : Paramagnetic NMR
   Boris Wezisla          : Elementary symmetry handling
   Frank Wennmohs         : Technical directorship


 We gratefully acknowledge several colleagues who have allowed us to
 interface, adapt or use parts of their codes:
   Stefan Grimme, W. Hujo, H. Kruse,             : VdW corrections, initial TS optimization,
                  C. Bannwarth                     DFT functionals, gCP, sTDA/sTD-DF
   Ed Valeev, F. Pavosevic, A. Kumar             : LibInt (2-el integral package), F12 methods
   Garnet Chan, S. Sharma, J. Yang, R. Olivares  : DMRG
   Ulf Ekstrom                                   : XCFun DFT Library
   Mihaly Kallay                                 : mrcc  (arbitrary order and MRCC methods)
   Andreas Klamt, Michael Diedenhofen            : otool_cosmo (COSMO solvation model)
   Jiri Pittner, Ondrej Demel                    : Mk-CCSD
   Frank Weinhold                                : gennbo (NPA and NBO analysis)
   Christopher J. Cramer and Donald G. Truhlar   : smd solvation model
   Lars Goerigk                                  : TD-DFT with DH, B97 family of functionals
   V. Asgeirsson, H. Jonsson                     : NEB implementation
   FAccTs GmbH                                   : IRC, NEB, NEB-TS, Multilevel, MM, QM/MM, CI optimization
   S Lehtola, MJT Oliveira, MAL Marques          : LibXC Library


 Your calculation uses the libint2 library for the computation of 2-el integrals
 For citations please refer to: http://libint.valeyev.net

 Your ORCA version has been built with support for libXC version: 4.2.3
 For citations please refer to: https://tddft.org/programs/libxc/

 This ORCA versions uses:
   CBLAS   interface :  Fast vector & matrix operations
   LAPACKE interface :  Fast linear algebra routines
   SCALAPACK package :  Parallel linear algebra routines


Setting NCore(Re) from 46 to 60
----- Orbital basis set information -----
Your calculation utilizes the basis: def2-SVP
   F. Weigend and R. Ahlrichs, Phys. Chem. Chem. Phys. 7, 3297 (2005).

cite the ECPs for Re [Def2-ECP] as follows:
Ce-Yb(ecp-28): M. Dolg, H. Stoll, H.Preuss, J. Chem. Phys., 1989, 90, 1730-1734.
Y-Cd(ecp-28), Hf-Hg(ecp-46): D. Andrae,U. Haeussermann, M. Dolg, H. Stoll, H. Preuss, Theor. Chim. Acta, 1990, 77, 123-141.
In-Sb(ecp-28), Tl-Bi(ecp-46): B. Metz, H. Stoll, M. Dolg, J. Chem. Phys., 2000, 113, 2563-2569.
Te-Xe(ecp-28), Po-Rn(ecp-46): K. A. Peterson, D. Figgen, E. Goll, H. Stoll, M. Dolg, J. Chem. Phys., 2003, 119, 11113-11123.
Rb(ecp-28), Cs(ecp-46): T. Leininger, A. Nicklass, W. Kuechle, H. Stoll, M. Dolg, A. Bergner, Chem. Phys. Lett., 1996, 255, 274-280.
Sr(ecp-28), Ba(ecp-46): M. Kaupp, P. V. Schleyer, H. Stoll and H. Preuss, J. Chem. Phys., 1991, 94, 1360-1366.
La(ecp-46): M. Dolg, H. Stoll, A. Savin, H. Preuss, Theor. Chim. Acta, 1989, 75, 173-194.
Lu(ecp-28): X. Cao, M. Dolg, J. Chem. Phys., 2001, 115, 7348-7355.

ECP parameters for Re [Def2-ECP] have been obtained from:
TURBOMOLE (7.0.2)

================================================================================
                                        WARNINGS
                       Please study these warnings very carefully!
================================================================================


WARNING: your system is open-shell and RHF/RKS was chosen
  ===> : WILL SWITCH to UHF/UKS


WARNING: MDCI localization with Augmented Hessian Foster-Boys
  ===> : Switching off randomization!

WARNING: Post HF methods need fully converged wavefunctions
  ===> : Setting SCFConvForced true
         You can overwrite this default with %scf ConvForced false 


INFO   : the flag for use of LIBINT has been found!

================================================================================
                                       INPUT FILE
================================================================================
NAME = 75_Re.in
|  1> #
|  2> # 75_Re CCSD(T)/Def2-SVP
|  3> #
|  4> ! CCSD(T) Def2-SVP tightscf
|  5> 
|  6> *xyz 0 6
|  7>  Re 0.0 0.0 0.0
|  8> *
|  9> 
| 10> %maxcore 5000 
| 11> 
| 12> %pal
| 13> nprocs 24
| 14> end
| 15> 
| 16> %method
| 17> NewNCore Re 60 end
| 18> end
| 19> 
| 20> 
| 21>                          ****END OF INPUT****
================================================================================

                       ****************************
                       * Single Point Calculation *
                       ****************************

---------------------------------
CARTESIAN COORDINATES (ANGSTROEM)
---------------------------------
  Re     0.000000    0.000000    0.000000

----------------------------
CARTESIAN COORDINATES (A.U.)
----------------------------
  NO LB      ZA    FRAG     MASS         X           Y           Z
   0 Re   15.0000*   0   186.207    0.000000    0.000000    0.000000
* core charge reduced due to ECP

--------------------------------
INTERNAL COORDINATES (ANGSTROEM)
--------------------------------
 Re     0   0   0     0.000000000000     0.00000000     0.00000000

---------------------------
INTERNAL COORDINATES (A.U.)
---------------------------
 Re     0   0   0     0.000000000000     0.00000000     0.00000000

---------------------
BASIS SET INFORMATION
---------------------
There are 1 groups of distinct atoms

 Group   1 Type Re  : 7s6p5d1f contracted to 6s3p2d1f pattern {211111/411/41/1}

Atom   0Re   basis set group =>   1
-------------------------
ECP PARAMETER INFORMATION
-------------------------

 Group 1, Type Re ECP Def2-ECP (replacing 60 core electrons, lmax=3)

Atom   0Re   ECP group =>   1



           ************************************************************
           *        Program running with 24 parallel MPI-processes    *
           *              working on a common directory               *
           ************************************************************
------------------------------------------------------------------------------
                           ORCA GTO INTEGRAL CALCULATION
------------------------------------------------------------------------------

                         BASIS SET STATISTICS AND STARTUP INFO

 # of primitive gaussian shells          ...   19
 # of primitive gaussian functions       ...   57
 # of contracted shells                  ...   12
 # of contracted basis functions         ...   32
 Highest angular momentum                ...    3
 Maximum contraction depth               ...    4
 Integral package used                   ... LIBINT
 Integral threshhold            Thresh   ...  2.500e-11
 Primitive cut-off              TCut     ...  2.500e-12


------------------------------ INTEGRAL EVALUATION ----------------------------


 * One electron integrals 

   ECP integrals                         ... done
 Pre-screening matrix                    ... done
 Shell pair data                         ... done (   0.000 sec)



           ************************************************************
           *        Program running with 24 parallel MPI-processes    *
           *              working on a common directory               *
           ************************************************************
-------------------------------------------------------------------------------
                                 ORCA SCF
-------------------------------------------------------------------------------

------------
SCF SETTINGS
------------
Hamiltonian:
 Ab initio Hamiltonian  Method          .... Hartree-Fock(GTOs)


General Settings:
 Integral files         IntName         .... 75_Re
 Hartree-Fock type      HFTyp           .... UHF
 Total Charge           Charge          ....    0
 Multiplicity           Mult            ....    6
 Number of Electrons    NEL             ....   15
 Basis Dimension        Dim             ....   32
 Nuclear Repulsion      ENuc            ....      0.0000000000 Eh

Convergence Acceleration:
 DIIS                   CNVDIIS         .... on
   Start iteration      DIISMaxIt       ....    12
   Startup error        DIISStart       ....  0.200000
   # of expansion vecs  DIISMaxEq       ....     5
   Bias factor          DIISBfac        ....   1.050
   Max. coefficient     DIISMaxC        ....  10.000
 Newton-Raphson         CNVNR           .... off
 SOSCF                  CNVSOSCF        .... off
 Level Shifting         CNVShift        .... on
   Level shift para.    LevelShift      ....    0.2500
   Turn off err/grad.   ShiftErr        ....    0.0010
 Zerner damping         CNVZerner       .... off
 Static damping         CNVDamp         .... on
   Fraction old density DampFac         ....    0.7000
   Max. Damping (<1)    DampMax         ....    0.9800
   Min. Damping (>=0)   DampMin         ....    0.0000
   Turn off err/grad.   DampErr         ....    0.1000
 Fernandez-Rico         CNVRico         .... off

SCF Procedure:
 Maximum # iterations   MaxIter         ....   125
 SCF integral mode      SCFMode         .... Direct
   Integral package                     .... LIBINT
 Reset frequency        DirectResetFreq ....    20
 Integral Threshold     Thresh          ....  2.500e-11 Eh
 Primitive CutOff       TCut            ....  2.500e-12 Eh

Convergence Tolerance:
 Convergence Check Mode ConvCheckMode   .... Total+1el-Energy
 Convergence forced     ConvForced      .... 1
 Energy Change          TolE            ....  1.000e-08 Eh
 1-El. energy change                    ....  1.000e-05 Eh
 DIIS Error             TolErr          ....  5.000e-07


Diagonalization of the overlap matrix:
Smallest eigenvalue                        ... 1.606e-02
Time for diagonalization                   ...    0.001 sec
Threshold for overlap eigenvalues          ... 1.000e-08
Number of eigenvalues below threshold      ... 0
Time for construction of square roots      ...    0.015 sec
Total time needed                          ...    0.016 sec

-------------------
DFT GRID GENERATION
-------------------

General Integration Accuracy     IntAcc      ...  4.340
Radial Grid Type                 RadialGrid  ... Gauss-Chebyshev
Angular Grid (max. acc.)         AngularGrid ... Lebedev-110
Angular grid pruning method      GridPruning ... 3 (G Style)
Weight generation scheme         WeightScheme... Becke
Basis function cutoff            BFCut       ...    1.0000e-11
Integration weight cutoff        WCut        ...    1.0000e-14
Grids for H and He will be reduced by one unit

# of grid points (after initial pruning)     ...   3530 (   0.0 sec)
# of grid points (after weights+screening)   ...   3530 (   0.0 sec)
Grid point division into batches done        ...    0.0 sec
Reduced shell lists constructed in    0.0 sec

Total number of grid points                  ...     3530
Total number of batches                      ...       56
Average number of points per batch           ...       63
Average number of grid points per atom       ...     3530
Average number of shells per batch           ...     3.00 (25.00%)
Average number of basis functions per batch  ...     7.50 (23.44%)
Average number of large shells per batch     ...     3.00 (100.00%)
Average number of large basis fcns per batch ...     7.50 (100.00%)
Maximum spatial batch extension              ...  25.56, 38.92, 38.92 au
Average spatial batch extension              ...   1.31,  1.85,  2.08 au

Time for grid setup =    0.260 sec

------------------------------
INITIAL GUESS: MODEL POTENTIAL
------------------------------
Loading Hartree-Fock densities                     ... done
  calling /sw/apps/orca/orca_4_2_0_linux_x86-64_openmpi314/orca 75_Re_atom75.inp > 75_Re_atom75.out in order to generate an atomic fitting density for atom 0 (Re with ECP) on-the-fly... 
    atom 0 (Re), assumed electronic state with S=6: 1s2 2s2 2p6 3s2 3p6 4s2 3d10 4p6 5s2 4d10 5p6 6s2 4f14 5d5           ... done
Calculating cut-offs                               ... done
Setting up the integral package                    ... done
Initializing the effective Hamiltonian             ... done
Starting the Coulomb interaction                   ... done (   0.0 sec)
Reading the grid                                   ... done
Mapping shells                                     ... done
Starting the XC term evaluation                    ... done (   0.0 sec)
Transforming the Hamiltonian                       ... done (   0.0 sec)
Diagonalizing the Hamiltonian                      ... done (   0.0 sec)
Back transforming the eigenvectors                 ... done (   0.0 sec)
Now organizing SCF variables                       ... done
                      ------------------
                      INITIAL GUESS DONE (   1.8 sec)
                      ------------------
--------------
SCF ITERATIONS
--------------
ITER       Energy         Delta-E        Max-DP      RMS-DP      [F,P]     Damp
               ***  Starting incremental Fock matrix formation  ***
  0    -76.9300030521   0.000000000000 0.39680538  0.01513748  0.3606364 0.7000
  1    -77.1073781142  -0.177375062079 0.29193038  0.01182112  0.2476754 0.7000
                               ***Turning on DIIS***
  2    -77.2227247856  -0.115346671422 0.19615009  0.00814754  0.1671864 0.7000
  3    -77.8715563240  -0.648831538367 0.12308003  0.00514540  0.1130165 0.7000
  4    -77.8048258204   0.066730503601 0.28725853  0.01214389  0.0789500 0.0000
  5    -77.4530030100   0.351822810367 0.03590837  0.00114722  0.0041927 0.0000
  6    -77.4585510060  -0.005547995961 0.03128771  0.00097108  0.0021546 0.0000
  7    -77.4606061930  -0.002055187002 0.02000707  0.00060999  0.0011599 0.0000
  8    -77.4609674489  -0.000361255867 0.01408630  0.00042626  0.0005235 0.0000
  9    -77.4605454591   0.000421989794 0.00194650  0.00005968  0.0000694 0.0000
 10    -77.4604256951   0.000119764016 0.00004940  0.00000270  0.0000179 0.0000
 11    -77.4604012242   0.000024470854 0.00001472  0.00000061  0.0000210 0.0000
 12    -77.4603970316   0.000004192625 0.00001526  0.00000059  0.0000219 0.0000
 13    -77.4603958954   0.000001136169 0.00000632  0.00000024  0.0000209 0.0000
 14    -77.4604008260  -0.000004930618 0.00001339  0.00000062  0.0000205 0.0000
 15    -77.4604245576  -0.000023731605 0.00001464  0.00000084  0.0000197 0.0000
 16    -77.4604180803   0.000006477320 0.00008504  0.00000324  0.0000187 0.0000
 17    -77.4604217902  -0.000003709889 0.00013207  0.00000503  0.0000131 0.0000
 18    -77.4604225367  -0.000000746512 0.00005104  0.00000191  0.0000045 0.0000
 19    -77.4604217490   0.000000787737 0.00001405  0.00000063  0.0000012 0.0000
               *** Restarting incremental Fock matrix formation ***
                                   *** Resetting DIIS ***
                            ***DIIS convergence achieved***

               *****************************************************
               *                     SUCCESS                       *
               *           SCF CONVERGED AFTER  20 CYCLES          *
               *****************************************************


----------------
TOTAL SCF ENERGY
----------------

Total Energy       :          -77.46042177 Eh           -2107.80524 eV

Components:
Nuclear Repulsion  :            0.00000000 Eh               0.00000 eV
Electronic Energy  :          -77.46042177 Eh           -2107.80524 eV
One Electron Energy:         -133.63838672 Eh           -3636.48538 eV
Two Electron Energy:           56.17796494 Eh            1528.68014 eV

Virial components:
Potential Energy   :         -104.53514963 Eh           -2844.54604 eV
Kinetic Energy     :           27.07472786 Eh             736.74080 eV
Virial Ratio       :            3.86098616


---------------
SCF CONVERGENCE
---------------

  Last Energy change         ...   -2.4968e-08  Tolerance :   1.0000e-08
  Last MAX-Density change    ...    1.1508e-06  Tolerance :   1.0000e-07
  Last RMS-Density change    ...    7.8973e-08  Tolerance :   5.0000e-09
  Last DIIS Error            ...    3.5739e-07  Tolerance :   5.0000e-07

             **** THE GBW FILE WAS UPDATED (75_Re.gbw) ****
             **** DENSITY FILE WAS UPDATED (75_Re.scfp) ****
             **** ENERGY FILE WAS UPDATED (75_Re.en.tmp) ****
----------------------
UHF SPIN CONTAMINATION
----------------------

Expectation value of <S**2>     :     8.754878
Ideal value S*(S+1) for S=2.5   :     8.750000
Deviation                       :     0.004878

             **** THE GBW FILE WAS UPDATED (75_Re.gbw) ****
             **** DENSITY FILE WAS UPDATED (75_Re.scfp) ****
----------------
ORBITAL ENERGIES
----------------
                 SPIN UP ORBITALS
  NO   OCC          E(Eh)            E(eV) 
   0   1.0000      -3.664055       -99.7040 
   1   1.0000      -2.136349       -58.1330 
   2   1.0000      -2.090645       -56.8893 
   3   1.0000      -2.090328       -56.8807 
   4   1.0000      -0.366737        -9.9794 
   5   1.0000      -0.357931        -9.7398 
   6   1.0000      -0.357814        -9.7366 
   7   1.0000      -0.339678        -9.2431 
   8   1.0000      -0.309734        -8.4283 
   9   1.0000      -0.286401        -7.7934 
  10   0.0000       0.040639         1.1058 
  11   0.0000       0.050768         1.3815 
  12   0.0000       0.050825         1.3830 
  13   0.0000       0.207056         5.6343 
  14   0.0000       0.445146        12.1130 
  15   0.0000       0.448247        12.1974 
  16   0.0000       0.448304        12.1990 
  17   0.0000       0.457898        12.4600 
  18   0.0000       0.470725        12.8091 
  19   0.0000       0.879634        23.9361 
  20   0.0000       0.909503        24.7488 
  21   0.0000       0.909690        24.7539 
  22   0.0000       1.299525        35.3619 
  23   0.0000       1.301342        35.4113 
  24   0.0000       1.301400        35.4129 
  25   0.0000       1.304826        35.5061 
  26   0.0000       1.321535        35.9608 
  27   0.0000       1.338728        36.4286 
  28   0.0000       1.338804        36.4307 
  29   0.0000       1.750423        47.6314 
  30   0.0000      65.216782      1774.6389 
  31   0.0000     505.922396     13766.8483 

                 SPIN DOWN ORBITALS
  NO   OCC          E(Eh)            E(eV) 
   0   1.0000      -3.492676       -95.0405 
   1   1.0000      -1.869865       -50.8816 
   2   1.0000      -1.869673       -50.8764 
   3   1.0000      -1.843701       -50.1697 
   4   1.0000      -0.206868        -5.6292 
   5   0.0000       0.023597         0.6421 
   6   0.0000       0.100818         2.7434 
   7   0.0000       0.103080         2.8050 
   8   0.0000       0.103106         2.8057 
   9   0.0000       0.183893         5.0040 
  10   0.0000       0.191181         5.2023 
  11   0.0000       0.191340         5.2066 
  12   0.0000       0.212858         5.7922 
  13   0.0000       0.290743         7.9115 
  14   0.0000       0.510044        13.8790 
  15   0.0000       0.561593        15.2817 
  16   0.0000       0.567090        15.4313 
  17   0.0000       0.567205        15.4344 
  18   0.0000       0.584308        15.8998 
  19   0.0000       1.014689        27.6111 
  20   0.0000       1.019865        27.7519 
  21   0.0000       1.019916        27.7533 
  22   0.0000       1.457557        39.6621 
  23   0.0000       1.457715        39.6664 
  24   0.0000       1.462704        39.8022 
  25   0.0000       1.484175        40.3865 
  26   0.0000       1.491500        40.5858 
  27   0.0000       1.491659        40.5901 
  28   0.0000       1.499103        40.7927 
  29   0.0000       1.839697        50.0607 
  30   0.0000      65.227501      1774.9305 
  31   0.0000     505.923391     13766.8754 

                    ********************************
                    * MULLIKEN POPULATION ANALYSIS *
                    ********************************

--------------------------------------------
MULLIKEN ATOMIC CHARGES AND SPIN POPULATIONS
--------------------------------------------
   0 Re:   -0.000000    5.000000
Sum of atomic charges         :   -0.0000000
Sum of atomic spin populations:    5.0000000

-----------------------------------------------------
MULLIKEN REDUCED ORBITAL CHARGES AND SPIN POPULATIONS
-----------------------------------------------------
CHARGE
  0 Res       :     3.000505  s :     3.000505
      pz      :     1.999683  p :     5.999324
      px      :     1.999719
      py      :     1.999922
      dz2     :     1.000104  d :     5.999495
      dxz     :     1.866609
      dyz     :     1.133132
      dx2y2   :     0.999817
      dxy     :     0.999833
      f0      :     0.000132  f :     0.000676
      f+1     :     0.000254
      f-1     :     0.000052
      f+2     :     0.000100
      f-2     :     0.000086
      f+3     :     0.000026
      f-3     :     0.000027

SPIN
  0 Res       :     1.000506  s :     1.000506
      pz      :     0.000224  p :     0.000418
      px      :     0.000190
      py      :     0.000003
      dz2     :     0.999643  d :     3.999494
      dxz     :     0.133391
      dyz     :     0.866868
      dx2y2   :     0.999775
      dxy     :     0.999817
      f0      :    -0.000130  f :    -0.000418
      f+1     :    -0.000211
      f-1     :    -0.000023
      f+2     :    -0.000051
      f-2     :    -0.000044
      f+3     :     0.000019
      f-3     :     0.000020


                     *******************************
                     * LOEWDIN POPULATION ANALYSIS *
                     *******************************

-------------------------------------------
LOEWDIN ATOMIC CHARGES AND SPIN POPULATIONS
-------------------------------------------
   0 Re:   -0.000000    5.000000

----------------------------------------------------
LOEWDIN REDUCED ORBITAL CHARGES AND SPIN POPULATIONS
----------------------------------------------------
CHARGE
  0 Res       :     3.000505  s :     3.000505
      pz      :     1.999683  p :     5.999324
      px      :     1.999719
      py      :     1.999922
      dz2     :     1.000104  d :     5.999495
      dxz     :     1.866609
      dyz     :     1.133132
      dx2y2   :     0.999817
      dxy     :     0.999833
      f0      :     0.000132  f :     0.000676
      f+1     :     0.000254
      f-1     :     0.000052
      f+2     :     0.000100
      f-2     :     0.000086
      f+3     :     0.000026
      f-3     :     0.000027

SPIN
  0 Res       :     1.000506  s :     1.000506
      pz      :     0.000224  p :     0.000418
      px      :     0.000190
      py      :     0.000003
      dz2     :     0.999643  d :     3.999494
      dxz     :     0.133391
      dyz     :     0.866868
      dx2y2   :     0.999775
      dxy     :     0.999817
      f0      :    -0.000130  f :    -0.000418
      f+1     :    -0.000211
      f-1     :    -0.000023
      f+2     :    -0.000051
      f-2     :    -0.000044
      f+3     :     0.000019
      f-3     :     0.000020


                      *****************************
                      * MAYER POPULATION ANALYSIS *
                      *****************************

  NA   - Mulliken gross atomic population
  ZA   - Total nuclear charge
  QA   - Mulliken gross atomic charge
  VA   - Mayer's total valence
  BVA  - Mayer's bonded valence
  FA   - Mayer's free valence

  ATOM       NA         ZA         QA         VA         BVA        FA
  0 Re    15.0000    15.0000    -0.0000     5.0098     0.0000     5.0098

  Mayer bond orders larger than 0.100000


-------
TIMINGS
-------

Total SCF time: 0 days 0 hours 0 min 6 sec 

Total time                  ....       6.003 sec
Sum of individual times     ....       5.495 sec  ( 91.5%)

Fock matrix formation       ....       2.990 sec  ( 49.8%)
Diagonalization             ....       0.114 sec  (  1.9%)
Density matrix formation    ....       0.007 sec  (  0.1%)
Population analysis         ....       0.260 sec  (  4.3%)
Initial guess               ....       1.498 sec  ( 25.0%)
Orbital Transformation      ....       0.000 sec  (  0.0%)
Orbital Orthonormalization  ....       0.000 sec  (  0.0%)
DIIS solution               ....       0.365 sec  (  6.1%)


           ************************************************************
           *        Program running with 24 parallel MPI-processes    *
           *              working on a common directory               *
           ************************************************************


------------------------------------------------------------------------------- 
                              ORCA-MATRIX DRIVEN CI                            
------------------------------------------------------------------------------- 

--------------------------------
AUTOMATIC CHOICE OF INCORE LEVEL
--------------------------------

Memory available                           ...   2500.00 MB
Memory needed for S+T                      ...      0.61 MB
Memory needed for J+K                      ...      1.24 MB
Memory needed for DIIS                     ...      8.53 MB
Memory needed for 3-ext                    ...      0.81 MB
Memory needed for 4-ext                    ...      0.93 MB
Memory needed for triples                  ...      0.41 MB
 -> Final InCoreLevel    ... 5
 -> check shows that triples correction can be computed


Wavefunction type
-----------------
Correlation treatment                      ...      CCSD     
Single excitations                         ... ON
Orbital optimization                       ... OFF
Calculation of Z vector                    ... OFF
Calculation of Brueckner orbitals          ... OFF
Perturbative triple excitations            ... ON
Calculation of F12 correction              ... OFF
Frozen core treatment                      ... chemical core (0 el)
Reference Wavefunction                     ... UHF
  Alpha-MOs occ    :     0 ...    9 ( 10 MO's/ 10 electrons)
  Beta-MOs occ     :     0 ...    4 (  5 MO's/  5 electrons)
  Alpha-MOs virt   :    10 ...   31 ( 22 MO's              )
  Beta-MOs virt    :     5 ...   31 ( 27 MO's              )
Number of AO's                             ...     32
Number of electrons                        ...     15
Number of correlated electrons             ...     15

Algorithmic settings
--------------------
Integral transformation                    ... AO direct full transformation
K(C) Formation                             ... FULL-MO TRAFO
Maximum number of iterations               ...        50
Convergence tolerance (max. residuum)      ... 1.000e-05
Level shift for amplitude update           ... 2.000e-01
Maximum number of DIIS vectors             ...         7
DIIS turned on at iteration                ...         0
Damping before turning on DIIS             ...     0.500
Damping after turning on DIIS              ...     0.000
Pair specific amplitude update             ... OFF
Natural orbital iterations                 ... OFF
Perturbative natural orbital generation    ... OFF
Printlevel                                 ... 2

Memory handling:
----------------
Maximum memory for working arrays          ...   2500 MB
Data storage in matrix containers          ... UNCOMPRESSED
Data type for integral storage             ... DOUBLE
In-Core Storage of quantities:
   Amplitudes+Sigma Vector      ... YES
   J+K operators                ... YES
   DIIS vectors                 ... YES
   3-external integrals         ... YES
   4-external integrals         ... YES


Initializing the integral package          ... done
Warning: reference  - re-canonicalizations have been set to INT 1 VIRT 1

--------------------------
UNRESTRICTED FOCK OPERATOR
--------------------------

<ss|ss>:          231 b            0 skpd (  0.0%)    0.000 s ( 0.000 ms/b)
<ss|sp>:          378 b            0 skpd (  0.0%)    0.000 s ( 0.000 ms/b)
<ss|sd>:          252 b            0 skpd (  0.0%)    0.000 s ( 0.000 ms/b)
<ss|sf>:          126 b            0 skpd (  0.0%)    0.000 s ( 0.000 ms/b)
<ss|pp>:          126 b            0 skpd (  0.0%)    0.000 s ( 0.000 ms/b)
<ss|pd>:          126 b            0 skpd (  0.0%)    0.000 s ( 0.001 ms/b)
<ss|pf>:           63 b            0 skpd (  0.0%)    0.000 s ( 0.001 ms/b)
<ss|dd>:           63 b            0 skpd (  0.0%)    0.000 s ( 0.002 ms/b)
<ss|df>:           42 b            0 skpd (  0.0%)    0.000 s ( 0.002 ms/b)
<ss|ff>:           21 b            0 skpd (  0.0%)    0.000 s ( 0.003 ms/b)
<sp|sp>:          171 b            0 skpd (  0.0%)    0.000 s ( 0.000 ms/b)
<sp|sd>:          216 b            0 skpd (  0.0%)    0.000 s ( 0.000 ms/b)
<sp|sf>:          108 b            0 skpd (  0.0%)    0.000 s ( 0.000 ms/b)
<sp|pp>:          108 b            0 skpd (  0.0%)    0.000 s ( 0.001 ms/b)
<sp|pd>:          108 b            0 skpd (  0.0%)    0.000 s ( 0.002 ms/b)
<sp|pf>:           54 b            0 skpd (  0.0%)    0.000 s ( 0.002 ms/b)
<sp|dd>:           54 b            0 skpd (  0.0%)    0.000 s ( 0.006 ms/b)
<sp|df>:           36 b            0 skpd (  0.0%)    0.000 s ( 0.005 ms/b)
<sp|ff>:           18 b            0 skpd (  0.0%)    0.000 s ( 0.009 ms/b)
<sd|sd>:           78 b            0 skpd (  0.0%)    0.000 s ( 0.001 ms/b)
<sd|sf>:           72 b            0 skpd (  0.0%)    0.000 s ( 0.001 ms/b)
<sd|pp>:           72 b            0 skpd (  0.0%)    0.000 s ( 0.002 ms/b)
<sd|pd>:           72 b            0 skpd (  0.0%)    0.000 s ( 0.005 ms/b)
<sd|pf>:           36 b            0 skpd (  0.0%)    0.000 s ( 0.004 ms/b)
<sd|dd>:           36 b            0 skpd (  0.0%)    0.001 s ( 0.015 ms/b)
<sd|df>:           24 b            0 skpd (  0.0%)    0.000 s ( 0.015 ms/b)
<sd|ff>:           12 b            0 skpd (  0.0%)    0.000 s ( 0.020 ms/b)
<sf|sf>:           21 b            0 skpd (  0.0%)    0.000 s ( 0.002 ms/b)
<sf|pp>:           36 b            0 skpd (  0.0%)    0.000 s ( 0.002 ms/b)
<sf|pd>:           36 b            0 skpd (  0.0%)    0.000 s ( 0.004 ms/b)
<sf|pf>:           18 b            0 skpd (  0.0%)    0.000 s ( 0.007 ms/b)
<sf|dd>:           18 b            0 skpd (  0.0%)    0.000 s ( 0.016 ms/b)
<sf|df>:           12 b            0 skpd (  0.0%)    0.000 s ( 0.017 ms/b)
<sf|ff>:            6 b            0 skpd (  0.0%)    0.000 s ( 0.026 ms/b)
<pp|pp>:           21 b            0 skpd (  0.0%)    0.000 s ( 0.007 ms/b)
<pp|pd>:           36 b            0 skpd (  0.0%)    0.000 s ( 0.007 ms/b)
<pp|pf>:           18 b            0 skpd (  0.0%)    0.000 s ( 0.008 ms/b)
<pp|dd>:           18 b            0 skpd (  0.0%)    0.000 s ( 0.025 ms/b)
<pp|df>:           12 b            0 skpd (  0.0%)    0.000 s ( 0.022 ms/b)
<pp|ff>:            6 b            0 skpd (  0.0%)    0.000 s ( 0.029 ms/b)
<pd|pd>:           21 b            0 skpd (  0.0%)    0.001 s ( 0.030 ms/b)
<pd|pf>:           18 b            0 skpd (  0.0%)    0.000 s ( 0.017 ms/b)
<pd|dd>:           18 b            0 skpd (  0.0%)    0.001 s ( 0.063 ms/b)
<pd|df>:           12 b            0 skpd (  0.0%)    0.001 s ( 0.054 ms/b)
<pd|ff>:            6 b            0 skpd (  0.0%)    0.000 s ( 0.070 ms/b)
<pf|pf>:            6 b            0 skpd (  0.0%)    0.000 s ( 0.022 ms/b)
<pf|dd>:            9 b            0 skpd (  0.0%)    0.000 s ( 0.052 ms/b)
<pf|df>:            6 b            0 skpd (  0.0%)    0.000 s ( 0.058 ms/b)
<pf|ff>:            3 b            0 skpd (  0.0%)    0.000 s ( 0.083 ms/b)
<dd|dd>:            6 b            0 skpd (  0.0%)    0.002 s ( 0.251 ms/b)
<dd|df>:            6 b            0 skpd (  0.0%)    0.001 s ( 0.140 ms/b)
<dd|ff>:            3 b            0 skpd (  0.0%)    0.000 s ( 0.165 ms/b)
<df|df>:            3 b            0 skpd (  0.0%)    0.000 s ( 0.162 ms/b)
<df|ff>:            2 b            0 skpd (  0.0%)    0.000 s ( 0.189 ms/b)
<ff|ff>:            1 b            0 skpd (  0.0%)    0.000 s ( 0.261 ms/b)
Recanonicalizing the internal orbitals
Recanonicalizing the virtual orbitals
Time needed for Fock operator              ...            0.156 sec
Reference energy                           ...    -77.460421774
Warning: for UHF the TrafoType has to be JK
Warning: for UHF the K(C)-option cannot be MO but must be AOX

-------------------------------
PARTIAL EXCHANGE TRANSFORMATION
-------------------------------

Transformation type                        ... two-operators
Generation of integrals (i,mue|j,nue)      ... ON
Generation of integrals (mue,kappa|nue,tau)... ON
Generation of integrals (i,mue|a,nue)      ... ON
Dimension of the basis                     ...   32
Number of internal alpha-MOs               ...   10 (   0-   9)
Number of internal beta-MOs                ...    5 (   0-   4)
Number of external alpha-MOs               ...   22 (  10-  31)
Number of external beta-MOs                ...   27 (   5-  31)
Pair cutoff                                ... 0.000e+00 Eh
Number of AO pairs in the trafo            ...  528
Total Number of distinct AO pairs          ...  528
Memory devoted for trafo                   ... 2500.0 MB 
Max. Number of MO pairs treated together   ... 320000      
Number Format for Storage                  ... Double (8 Byte)
Integral package used                      ... LIBINT

Starting integral evaluation:
    ... done with AO integral generation
Closing buffer AOK[aa] ( 0.00 GB; CompressionRatio= 0.00)
Closing buffer AOK[bb] ( 0.00 GB; CompressionRatio= 0.00)
Closing buffer AOK[ab] ( 0.00 GB; CompressionRatio= 0.00)
Closing buffer AOK[ba] ( 0.00 GB; CompressionRatio= 0.00)
Collecting buffer AOK 
Closing buffer IAAO1[aa] ( 0.00 GB; CompressionRatio= 0.00)
Closing buffer IAAO1[bb] ( 0.00 GB; CompressionRatio= 0.00)
Closing buffer IAAO1[ab] ( 0.00 GB; CompressionRatio= 0.00)
Closing buffer IAAO1[ba] ( 0.00 GB; CompressionRatio= 0.00)
Closing buffer IAAO2[aa] ( 0.00 GB; CompressionRatio= 0.00)
Closing buffer IAAO2[bb] ( 0.00 GB; CompressionRatio= 0.00)
Closing buffer IAAO2[ab] ( 0.00 GB; CompressionRatio= 0.00)
Closing buffer IAAO2[ba] ( 0.00 GB; CompressionRatio= 0.00)
Collecting buffer IAAO 
Closing buffer PRQS    ( 0.00 GB; CompressionRatio= 0.00)
Collecting buffer PRQS 
Number of alpha/alpha MO pairs in trafo    ...   55
Number of beta /beta  MO pairs in trafo    ...   15
Number of alpha/ beta MO pairs in trafo    ...   50
------------------------
SORTING OF (i,mue|j,nue)
------------------------

SORTING OF ALPHA/ALPHA PAIRS
IBATCH = 1 of  1
Closing buffer KAO[aa] ( 0.00 GB; CompressionRatio= 1.00)
Collecting buffer KAO 
SORTING OF BETA /BETA  PAIRS
IBATCH = 1 of  1
Closing buffer KAO[bb] ( 0.00 GB; CompressionRatio= 1.00)
Collecting buffer KAO 
SORTING OF ALPHA/BETA  PAIRS
IBATCH = 1 of  1
Closing buffer KAO[ab] ( 0.00 GB; CompressionRatio= 0.998537298879)
Collecting buffer KAO[ab] 
------------------------
SORTING OF (i,mue|a,nue)
------------------------

Number of alpha/alpha (i,a) pairs in trafo  ...  220
Number of beta /beta  (i,a) pairs in trafo  ...  135
Number of alpha/ beta (i,a) pairs in trafo  ...  270
Number of beta /alpha (i,a) pairs in trafo  ...  110
Setting up the alpha/alpha list             ... done
Setting up the beta /beta  list             ... done
Setting up the alpha/beta  list             ... done
Setting up the beta /alpha list             ... done
    ... Now sorting (i,mue|a,nue)integrals
    ... Integrals (i,b|a,c) will be made on the fly
SORTING OF ALPHA/ALPHA PAIRS
IBATCH = 1 of  1
Closing buffer IPAQ[aa]  0.00 GB; CompressionRatio= 1.00)
SORTING OF BETA /BETA  PAIRS
IBATCH = 1 of  1
Closing buffer IPAQ[bb]( 0.00 GB; CompressionRatio= 1.00)
SORTING OF ALPHA/BETA  PAIRS (NMatSort_ab=12)
IBATCH = 1 of  1
Closing buffer IPAQ[ab]( 0.00 GB; CompressionRatio= 1.00)
SORTING OF BETA/ALPHA  PAIRS
IBATCH = 1 of  1
Closing buffer IPAQ[ba]( 0.00 GB; CompressionRatio= 1.00)
N(AO-Batches) Done                         ...         0 
N(AO-Batches) Skipped                      ...         0 
N(IJ)-pairs Skipped                        ...         0 
TOTAL TIME for half transformation         ...     1.758 sec
AO-integral generation                     ...     0.000 sec
Half transformation                        ...     0.000 sec
K-integral sorting                         ...     0.697 sec
<ss|**>: 
------------------------------
PARTIAL COULOMB TRANSFORMATION
------------------------------

Transformation type                        ... two-operators
Dimension of the basis                     ...   32
Number of internal alpha-MOs               ...   10 (0-9)
Number of internal beta-MOs                ...    5 (0-4)
Pair cutoff                                ... 0.000e+00 Eh
Number of AO pairs included in the trafo   ...  528
Total Number of distinct AO pairs          ...  528
Memory devoted for trafo                   ... 2500.0 MB 
Max. Number of MO pairs treated together   ... 620606      
Max. Number of MOs treated per batch       ... 19393      
Number Format for Storage                  ... Double (8 Byte)
AO-integral source                         ... DIRECT
Integral package used                      ... LIBINT

Starting integral evaluation:
        1638 b        0 skpd     0.001 s (  0.001 ms/b)
<sp|**>: <sd|**>:         1404 b        0 skpd     0.009 s (  0.006 ms/b)
<sf|**>:          936 b        0 skpd     0.010 s (  0.010 ms/b)
<pp|**>:          468 b        0 skpd     0.007 s (  0.016 ms/b)
         468 b        0 skpd     0.009 s (  0.020 ms/b)
<pd|**>:          468 b        0 skpd     0.017 s (  0.035 ms/b)
<pf|**>:          234 b        0 skpd     0.016 s (  0.070 ms/b)
<dd|**>:          234 b        0 skpd     0.020 s (  0.084 ms/b)
<df|**>:          156 b        0 skpd     0.029 s (  0.186 ms/b)
<ff|**>:           78 b        0 skpd     0.018 s (  0.225 ms/b)
Closing buffer AOJ[aa] ( 0.00 GB; CompressionRatio= 0.97)
Closing buffer AOJ[bb] ( 0.00 GB; CompressionRatio= 0.00)
Collecting buffer AOJ 
    ... done with AO integral generation
Number of Alpha-MO pairs included          ...   55
Number of Beta-MO pairs included           ...   15
    ... Now sorting integrals
SORTING ALPHA/ALPHA PAIRS
IBATCH = 1 of  1
Closing buffer JAO[aa] ( 0.00 GB; CompressionRatio= 1.00)
SORTING BETA/BETA PAIRS
IBATCH = 1 of  1
Closing buffer JAO[bb] ( 0.00 GB; CompressionRatio= 1.00)
Collecting buffer JAO 
TOTAL TIME for half transformation         ...     0.360 sec
AO-integral generation                     ...     0.103 sec
Half transformation                        ...     0.033 sec
J-integral sorting                         ...     0.086 sec

-------------------------- SECOND HALF TRANSFORMATION -------------------------
Formation of (ij|kl),(ij|ka), (ij|ab)      ... ok (     0.130 sec)
Formation of (ik|jl),(ik|ja), (ia|jb)      ... ok (     0.236 sec)


-----------------------
SPIN UNRESTRICTED GUESS
-----------------------

Entering MDCI_UHF_Guess, Tailored=0
Spin-components of the MP2 energy:
EMP2(aa)=     -0.069504766
EMP2(bb)=     -0.017611103
EMP2(ab)=     -0.124476097

Initial guess performed in     0.004 sec
E(0)                                       ...    -77.460421774
E(MP2)                                     ...     -0.211591966
Initial E(tot)                             ...    -77.672013740
<T|T>                                      ...      0.068388269
Number of pairs included                   ... 105

------------------------------------------------
                  UHF COUPLED CLUSTER ITERATIONS
------------------------------------------------

Number of amplitudes to be optimized       ...        44407

Iter       E(tot)           E(Corr)          Delta-E          Residual     Time      <S|S>**1/2
  0    -77.672013740     -0.211591966     -0.000000000      0.021442917    0.08      0.000001120
                           *** Turning on DIIS ***
  1    -77.666627809     -0.206206035      0.005385931      0.005389952    0.05      0.032087838
  2    -77.669626842     -0.209205068     -0.002999033      0.003041553    0.05      0.041315412
  3    -77.670696901     -0.210275127     -0.001070059      0.001153048    0.05      0.048035850
  4    -77.670956641     -0.210534867     -0.000259740      0.000343823    0.04      0.050324395
  5    -77.670982601     -0.210560827     -0.000025960      0.000150838    0.05      0.050596722
  6    -77.670987251     -0.210565477     -0.000004650      0.000055654    0.05      0.050540598
  7    -77.670985572     -0.210563798      0.000001680      0.000069458    0.04      0.050484710
  8    -77.670985162     -0.210563389      0.000000409      0.000079891    0.04      0.050475446
  9    -77.670985010     -0.210563236      0.000000152      0.000051007    0.05      0.050473335
 10    -77.670984391     -0.210562617      0.000000620      0.000004795    0.04      0.050459181
               --- The Coupled-Cluster iterations have converged ---

----------------------
COUPLED CLUSTER ENERGY
----------------------

E(0)                                       ...    -77.460421774
E(CORR)                                    ...     -0.210562617
E(TOT)                                     ...    -77.670984391
Singles norm <S|S>**1/2                    ...      0.050459181 ( 0.039107071, 0.011352111)  
T1 diagnostic                              ...      0.013028505                              

------------------
LARGEST AMPLITUDES
------------------
   8a-> 18a   4b-> 14b       0.042963
   9a-> 12a   4b->  8b       0.034360
   7a-> 17a   4b-> 14b       0.034307
   9a-> 11a   4b->  7b       0.034071
   4b-> 14b  -1b-> -1b       0.031456
   9a-> 13a  -1a-> -1a       0.031376
   6a-> 16a   4b-> 14b       0.029868
   5a-> 15a   4b-> 14b       0.029836
   8a-> 27a   7a-> 28a       0.028648
   8a-> 28a   7a-> 27a       0.028648
   8a-> 17a   7a-> 18a       0.027642
   8a-> 18a   7a-> 17a       0.027642
   4a-> 14a   4b-> 14b       0.027310
   5a-> 15a   4a-> 14a       0.024517
   5a-> 14a   4a-> 15a       0.024517
   6a-> 14a   4a-> 16a       0.024491

----------------------
UHF TRIPLES CORRECTION (Algorithm 1)
----------------------

Multiplier for the singles contribution    ...      1.000000000

SPIN-CASE Alpha-Alpha-Alpha:
10% done
20% done
30% done
40% done
50% done
60% done
70% done
80% done
90% done


SPIN-CASE Beta-Beta-Beta:
10% done
20% done
30% done
40% done
50% done
60% done
70% done
80% done
90% done


SPIN-CASE Alpha-Alpha-Beta:
10% done
20% done
30% done
40% done
50% done
60% done
70% done
80% done
90% done


SPIN-CASE Beta-Beta-Alpha:
10% done
20% done
30% done
40% done
50% done
60% done
70% done
80% done
90% done


Triples Correction (T)                     ...     -0.004408872
    alpha-alpha-alpha ... -0.000650132 ( 14.7%)
    alpha-alpha-beta  ... -0.002797407 ( 63.4%)
    alpha-beta -beta  ... -0.000926593 ( 21.0%)
    beta -beta -beta  ... -0.000034740 (  0.8%)
Scaling of triples based on CCSD energies (Peterson et al. Molecular Physics 113, 1551 (2015))
E(T*) = f*E(T) where f = E(F12-CCSD)/E(CCSD) 
f = CCSD (with F12)/ CCSD (without F12)    ...      1.000000000
Scaled triples correction (T)              ...     -0.004408872

Final correlation energy                   ...     -0.214971489
E(CCSD)                                    ...    -77.670984391
E(CCSD(T))                                 ...    -77.675393263



        !!!!!!!!!!!!!!!!!!!!!!!!!!!!!!!!!!!!!!!!!!!!!!!!!!!!!!!!!!!!!!!!!!!!!!!!!! 
        !  Warning: Densities are linearized densities                           !
        !!!!!!!!!!!!!!!!!!!!!!!!!!!!!!!!!!!!!!!!!!!!!!!!!!!!!!!!!!!!!!!!!!!!!!!!!! 

NORM  =      1.077786829 sqrt=     1.038165126
W(HF) =      0.927827259
------------------------------------------------------------------------------
                           ORCA POPULATION ANALYSIS
------------------------------------------------------------------------------
Input electron density              ... 75_Re.mdcip
Input spin density                  ... 75_Re.mdcir
BaseName (.gbw .S,...)              ... 75_Re

                    ********************************
                    * MULLIKEN POPULATION ANALYSIS *
                    ********************************

------------------------------------------
MULLIKEN ATOMIC CHARGES AND SPIN DENSITIES
------------------------------------------
   0 Re:   -0.000000    5.000000
Sum of atomic charges       :   -0.0000000
Sum of atomic spin densities:    5.0000000

---------------------------------------------------
MULLIKEN REDUCED ORBITAL CHARGES AND SPIN DENSITIES
---------------------------------------------------
CHARGE
  0 Res       :     2.991172  s :     2.991172
      pz      :     2.002517  p :     6.000365
      px      :     2.001559
      py      :     1.996289
      dz2     :     0.997446  d :     5.962338
      dxz     :     1.842036
      dyz     :     1.127468
      dx2y2   :     0.997693
      dxy     :     0.997694
      f0      :     0.006519  f :     0.046125
      f+1     :     0.008111
      f-1     :     0.005803
      f+2     :     0.007428
      f-2     :     0.007427
      f+3     :     0.005419
      f-3     :     0.005419

SPIN
  0 Res       :     0.988766  s :     0.988766
      pz      :     0.009292  p :     0.031078
      px      :     0.009719
      py      :     0.012067
      dz2     :     0.986622  d :     3.953220
      dxz     :     0.138739
      dyz     :     0.855915
      dx2y2   :     0.985958
      dxy     :     0.985987
      f0      :     0.003876  f :     0.026935
      f+1     :     0.002455
      f-1     :     0.004549
      f+2     :     0.003112
      f-2     :     0.003112
      f+3     :     0.004916
      f-3     :     0.004916


                     *******************************
                     * LOEWDIN POPULATION ANALYSIS *
                     *******************************

-----------------------------------------
LOEWDIN ATOMIC CHARGES AND SPIN DENSITIES
-----------------------------------------
   0 Re:   -0.000000    5.000000

--------------------------------------------------
LOEWDIN REDUCED ORBITAL CHARGES AND SPIN DENSITIES
--------------------------------------------------
CHARGE
  0 Res       :     2.991172  s :     2.991172
      pz      :     2.002517  p :     6.000365
      px      :     2.001559
      py      :     1.996289
      dz2     :     0.997446  d :     5.962338
      dxz     :     1.842036
      dyz     :     1.127468
      dx2y2   :     0.997693
      dxy     :     0.997694
      f0      :     0.006519  f :     0.046125
      f+1     :     0.008111
      f-1     :     0.005803
      f+2     :     0.007428
      f-2     :     0.007427
      f+3     :     0.005419
      f-3     :     0.005419

SPIN
  0 Res       :     0.988766  s :     0.988766
      pz      :     0.009292  p :     0.031078
      px      :     0.009719
      py      :     0.012067
      dz2     :     0.986622  d :     3.953220
      dxz     :     0.138739
      dyz     :     0.855915
      dx2y2   :     0.985958
      dxy     :     0.985987
      f0      :     0.003876  f :     0.026935
      f+1     :     0.002455
      f-1     :     0.004549
      f+2     :     0.003112
      f-2     :     0.003112
      f+3     :     0.004916
      f-3     :     0.004916


                      *****************************
                      * MAYER POPULATION ANALYSIS *
                      *****************************

  NA   - Mulliken gross atomic population
  ZA   - Total nuclear charge
  QA   - Mulliken gross atomic charge
  VA   - Mayer's total valence
  BVA  - Mayer's bonded valence
  FA   - Mayer's free valence

  ATOM       NA         ZA         QA         VA         BVA        FA
  0 Re    15.0000    15.0000    -0.0000     5.4143     0.0000     5.4143





------------------------------------------------------------------------------- 
                                     TIMINGS                                   
------------------------------------------------------------------------------- 


Total execution time                   ...        8.455 sec

Fock Matrix Formation                  ...        0.156 sec (  1.8%)
Initial Guess                          ...        0.004 sec (  0.0%)
DIIS Solver                            ...        0.046 sec (  0.5%)
State Vector Update                    ...        0.004 sec (  0.0%)
Sigma-vector construction              ...        0.497 sec (  5.9%)
  <D|H|D>(0-ext)                       ...        0.002 sec (  0.4% of sigma)
  <D|H|D>(2-ext)                       ...        0.007 sec (  1.4% of sigma)
  <D|H|D>(4-ext)                       ...        0.139 sec ( 28.0% of sigma)
  <S|H|0>                              ...        0.010 sec (  2.1% of sigma)
  <D|H|S>(1-ext)                       ...        0.006 sec (  1.1% of sigma)
  Fock-dressing                        ...        0.147 sec ( 29.7% of sigma)
  (ik|jl)-dressing                     ...        0.004 sec (  0.7% of sigma)
  (ij|ab),(ia|jb)-dressing             ...        0.134 sec ( 26.9% of sigma)
  Pair energies                        ...        0.001 sec (  0.2% of sigma)
Total Time for computing (T)           ...        0.024 sec (  0.3% of ALL)
  I/O of integral and amplitudes       ...        0.003 sec ( 13.9% of (T))
  External N**7 contributions          ...        0.002 sec (  7.3% of (T))
  N**6 triples energy contributions    ...        0.005 sec ( 22.9% of (T))


-------------------------   --------------------
FINAL SINGLE POINT ENERGY       -77.675393262760
-------------------------   --------------------


                            ***************************************
                            *     ORCA property calculations      *
                            ***************************************

                                    ---------------------
                                    Active property flags
                                    ---------------------
   (+) Dipole Moment


------------------------------------------------------------------------------
                       ORCA ELECTRIC PROPERTIES CALCULATION
------------------------------------------------------------------------------

Dipole Moment Calculation                       ... on
Quadrupole Moment Calculation                   ... off
Polarizability Calculation                      ... off
GBWName                                         ... 75_Re.gbw
Electron density file                           ... 75_Re.scfp
The origin for moment calculation is the CENTER OF MASS  = ( 0.000000,  0.000000  0.000000)

-------------
DIPOLE MOMENT
-------------
                                X             Y             Z
Electronic contribution:      0.00000       0.00000       0.00000
Nuclear contribution   :      0.00000       0.00000       0.00000
                        -----------------------------------------
Total Dipole Moment    :      0.00000       0.00000       0.00000
                        -----------------------------------------
Magnitude (a.u.)       :      0.00000
Magnitude (Debye)      :      0.00000



--------------------
Rotational spectrum 
--------------------
 
Rotational constants in cm-1:     0.000000     0.000000     0.000000 
Rotational constants in MHz :     0.000000     0.000000     0.000000 

 Dipole components along the rotational axes: 
x,y,z [a.u.] :     0.000000     0.000000     0.000000 
x,y,z [Debye]:     0.000000     0.000000     0.000000 

 

                           *** MDCI DENSITY ***

------------------------------------------------------------------------------
                       ORCA ELECTRIC PROPERTIES CALCULATION
------------------------------------------------------------------------------

Dipole Moment Calculation                       ... on
Quadrupole Moment Calculation                   ... off
Polarizability Calculation                      ... off
GBWName                                         ... 75_Re.gbw
Electron density file                           ... 75_Re.mdcip
The origin for moment calculation is the CENTER OF MASS  = ( 0.000000,  0.000000  0.000000)

-------------
DIPOLE MOMENT
-------------
                                X             Y             Z
Electronic contribution:     -0.00000      -0.00000      -0.00000
Nuclear contribution   :      0.00000       0.00000       0.00000
                        -----------------------------------------
Total Dipole Moment    :     -0.00000      -0.00000      -0.00000
                        -----------------------------------------
Magnitude (a.u.)       :      0.00000
Magnitude (Debye)      :      0.00000



--------------------
Rotational spectrum 
--------------------
 
Rotational constants in cm-1:     0.000000     0.000000     0.000000 
Rotational constants in MHz :     0.000000     0.000000     0.000000 

 Dipole components along the rotational axes: 
x,y,z [a.u.] :    -0.000000    -0.000000    -0.000000 
x,y,z [Debye]:    -0.000000    -0.000000    -0.000000 

 

Timings for individual modules:

Sum of individual times         ...       17.022 sec (=   0.284 min)
GTO integral calculation        ...        1.774 sec (=   0.030 min)  10.4 %
SCF iterations                  ...        6.366 sec (=   0.106 min)  37.4 %
MDCI module                     ...        8.881 sec (=   0.148 min)  52.2 %
                             ****ORCA TERMINATED NORMALLY****
TOTAL RUN TIME: 0 days 0 hours 0 minutes 17 seconds 791 msec
