
                                 *****************
                                 * O   R   C   A *
                                 *****************

           --- An Ab Initio, DFT and Semiempirical electronic structure package ---

                  #######################################################
                  #                        -***-                        #
                  #          Department of theory and spectroscopy      #
                  #               Directorship: Frank Neese             #
                  #        Max Planck Institute fuer Kohlenforschung    #
                  #                Kaiser Wilhelm Platz 1               #
                  #                 D-45470 Muelheim/Ruhr               #
                  #                      Germany                        #
                  #                                                     #
                  #                  All rights reserved                #
                  #                        -***-                        #
                  #######################################################


                         Program Version 4.2.0 -  RELEASE  -


 With contributions from (in alphabetic order):
   Daniel Aravena         : Magnetic Suceptibility
   Michael Atanasov       : Ab Initio Ligand Field Theory (pilot matlab implementation)
   Alexander A. Auer      : GIAO ZORA, VPT2
   Ute Becker             : Parallelization
   Giovanni Bistoni       : ED, misc. LED, open-shell LED, HFLED
   Martin Brehm           : Molecular dynamics
   Dmytro Bykov           : SCF Hessian
   Vijay G. Chilkuri      : MRCI spin determinant printing, contributions to CSF-ICE
   Dipayan Datta          : RHF DLPNO-CCSD density
   Achintya Kumar Dutta   : EOM-CC, STEOM-CC
   Dmitry Ganyushin       : Spin-Orbit,Spin-Spin,Magnetic field MRCI
   Miquel Garcia          : C-PCM Hessian, Gaussian charge scheme
   Yang Guo               : DLPNO-NEVPT2, CIM, IAO-localization
   Andreas Hansen         : Spin unrestricted coupled pair/coupled cluster methods
   Benjamin Helmich-Paris : CASSCF linear response (MC-RPA)
   Lee Huntington         : MR-EOM, pCC
   Robert Izsak           : Overlap fitted RIJCOSX, COSX-SCS-MP3, EOM
   Christian Kollmar      : KDIIS, OOCD, Brueckner-CCSD(T), CCSD density
   Simone Kossmann        : Meta GGA functionals, TD-DFT gradient, OOMP2, MP2 Hessian
   Martin Krupicka        : AUTO-CI
   Lucas Lang             : DCDCAS
   Dagmar Lenk            : GEPOL surface, SMD
   Dimitrios Liakos       : Extrapolation schemes; Compound Job, initial MDCI parallelization
   Dimitrios Manganas     : Further ROCIS development; embedding schemes
   Dimitrios Pantazis     : SARC Basis sets
   Taras Petrenko         : DFT Hessian,TD-DFT gradient, ASA, ECA, R-Raman, ABS, FL, XAS/XES, NRVS
   Peter Pinski           : DLPNO-MP2, DLPNO-MP2 Gradient
   Christoph Reimann      : Effective Core Potentials
   Marius Retegan         : Local ZFS, SOC
   Christoph Riplinger    : Optimizer, TS searches, QM/MM, DLPNO-CCSD(T), (RO)-DLPNO pert. Triples
   Tobias Risthaus        : Range-separated hybrids, TD-DFT gradient, RPA, STAB
   Michael Roemelt        : Original ROCIS implementation
   Masaaki Saitow         : Open-shell DLPNO-CCSD energy and density
   Barbara Sandhoefer     : DKH picture change effects
   Avijit Sen             : IP-ROCIS
   Kantharuban Sivalingam : CASSCF convergence, NEVPT2, FIC-MRCI
   Bernardo de Souza      : ESD, SOC TD-DFT
   Georgi Stoychev        : AutoAux, RI-MP2 NMR
   Willem Van den Heuvel  : Paramagnetic NMR
   Boris Wezisla          : Elementary symmetry handling
   Frank Wennmohs         : Technical directorship


 We gratefully acknowledge several colleagues who have allowed us to
 interface, adapt or use parts of their codes:
   Stefan Grimme, W. Hujo, H. Kruse,             : VdW corrections, initial TS optimization,
                  C. Bannwarth                     DFT functionals, gCP, sTDA/sTD-DF
   Ed Valeev, F. Pavosevic, A. Kumar             : LibInt (2-el integral package), F12 methods
   Garnet Chan, S. Sharma, J. Yang, R. Olivares  : DMRG
   Ulf Ekstrom                                   : XCFun DFT Library
   Mihaly Kallay                                 : mrcc  (arbitrary order and MRCC methods)
   Andreas Klamt, Michael Diedenhofen            : otool_cosmo (COSMO solvation model)
   Jiri Pittner, Ondrej Demel                    : Mk-CCSD
   Frank Weinhold                                : gennbo (NPA and NBO analysis)
   Christopher J. Cramer and Donald G. Truhlar   : smd solvation model
   Lars Goerigk                                  : TD-DFT with DH, B97 family of functionals
   V. Asgeirsson, H. Jonsson                     : NEB implementation
   FAccTs GmbH                                   : IRC, NEB, NEB-TS, Multilevel, MM, QM/MM, CI optimization
   S Lehtola, MJT Oliveira, MAL Marques          : LibXC Library


 Your calculation uses the libint2 library for the computation of 2-el integrals
 For citations please refer to: http://libint.valeyev.net

 Your ORCA version has been built with support for libXC version: 4.2.3
 For citations please refer to: https://tddft.org/programs/libxc/

 This ORCA versions uses:
   CBLAS   interface :  Fast vector & matrix operations
   LAPACKE interface :  Fast linear algebra routines
   SCALAPACK package :  Parallel linear algebra routines


Setting NCore(Os) from 46 to 60
----- Orbital basis set information -----
Your calculation utilizes the basis: def2-SVP
   F. Weigend and R. Ahlrichs, Phys. Chem. Chem. Phys. 7, 3297 (2005).

cite the ECPs for Os [Def2-ECP] as follows:
Ce-Yb(ecp-28): M. Dolg, H. Stoll, H.Preuss, J. Chem. Phys., 1989, 90, 1730-1734.
Y-Cd(ecp-28), Hf-Hg(ecp-46): D. Andrae,U. Haeussermann, M. Dolg, H. Stoll, H. Preuss, Theor. Chim. Acta, 1990, 77, 123-141.
In-Sb(ecp-28), Tl-Bi(ecp-46): B. Metz, H. Stoll, M. Dolg, J. Chem. Phys., 2000, 113, 2563-2569.
Te-Xe(ecp-28), Po-Rn(ecp-46): K. A. Peterson, D. Figgen, E. Goll, H. Stoll, M. Dolg, J. Chem. Phys., 2003, 119, 11113-11123.
Rb(ecp-28), Cs(ecp-46): T. Leininger, A. Nicklass, W. Kuechle, H. Stoll, M. Dolg, A. Bergner, Chem. Phys. Lett., 1996, 255, 274-280.
Sr(ecp-28), Ba(ecp-46): M. Kaupp, P. V. Schleyer, H. Stoll and H. Preuss, J. Chem. Phys., 1991, 94, 1360-1366.
La(ecp-46): M. Dolg, H. Stoll, A. Savin, H. Preuss, Theor. Chim. Acta, 1989, 75, 173-194.
Lu(ecp-28): X. Cao, M. Dolg, J. Chem. Phys., 2001, 115, 7348-7355.

ECP parameters for Os [Def2-ECP] have been obtained from:
TURBOMOLE (7.0.2)

================================================================================
                                        WARNINGS
                       Please study these warnings very carefully!
================================================================================


WARNING: your system is open-shell and RHF/RKS was chosen
  ===> : WILL SWITCH to UHF/UKS


WARNING: MDCI localization with Augmented Hessian Foster-Boys
  ===> : Switching off randomization!

WARNING: Post HF methods need fully converged wavefunctions
  ===> : Setting SCFConvForced true
         You can overwrite this default with %scf ConvForced false 


INFO   : the flag for use of LIBINT has been found!

================================================================================
                                       INPUT FILE
================================================================================
NAME = 76_Os.in
|  1> #
|  2> # 76_Os CCSD(T)/Def2-SVP
|  3> #
|  4> ! CCSD(T) Def2-SVP tightscf
|  5> 
|  6> *xyz 0 5
|  7>  Os 0.0 0.0 0.0
|  8> *
|  9> 
| 10> %maxcore 5000 
| 11> 
| 12> %pal
| 13> nprocs 24
| 14> end
| 15> 
| 16> %method
| 17> NewNCore Os 60 end
| 18> end
| 19> 
| 20> 
| 21>                          ****END OF INPUT****
================================================================================

                       ****************************
                       * Single Point Calculation *
                       ****************************

---------------------------------
CARTESIAN COORDINATES (ANGSTROEM)
---------------------------------
  Os     0.000000    0.000000    0.000000

----------------------------
CARTESIAN COORDINATES (A.U.)
----------------------------
  NO LB      ZA    FRAG     MASS         X           Y           Z
   0 Os   16.0000*   0   190.200    0.000000    0.000000    0.000000
* core charge reduced due to ECP

--------------------------------
INTERNAL COORDINATES (ANGSTROEM)
--------------------------------
 Os     0   0   0     0.000000000000     0.00000000     0.00000000

---------------------------
INTERNAL COORDINATES (A.U.)
---------------------------
 Os     0   0   0     0.000000000000     0.00000000     0.00000000

---------------------
BASIS SET INFORMATION
---------------------
There are 1 groups of distinct atoms

 Group   1 Type Os  : 7s6p5d1f contracted to 6s3p2d1f pattern {211111/411/41/1}

Atom   0Os   basis set group =>   1
-------------------------
ECP PARAMETER INFORMATION
-------------------------

 Group 1, Type Os ECP Def2-ECP (replacing 60 core electrons, lmax=3)

Atom   0Os   ECP group =>   1



           ************************************************************
           *        Program running with 24 parallel MPI-processes    *
           *              working on a common directory               *
           ************************************************************
------------------------------------------------------------------------------
                           ORCA GTO INTEGRAL CALCULATION
------------------------------------------------------------------------------

                         BASIS SET STATISTICS AND STARTUP INFO

 # of primitive gaussian shells          ...   19
 # of primitive gaussian functions       ...   57
 # of contracted shells                  ...   12
 # of contracted basis functions         ...   32
 Highest angular momentum                ...    3
 Maximum contraction depth               ...    4
 Integral package used                   ... LIBINT
 Integral threshhold            Thresh   ...  2.500e-11
 Primitive cut-off              TCut     ...  2.500e-12


------------------------------ INTEGRAL EVALUATION ----------------------------


 * One electron integrals 

   ECP integrals                         ... done
 Pre-screening matrix                    ... done
 Shell pair data                         ... done (   0.000 sec)



           ************************************************************
           *        Program running with 24 parallel MPI-processes    *
           *              working on a common directory               *
           ************************************************************
-------------------------------------------------------------------------------
                                 ORCA SCF
-------------------------------------------------------------------------------

------------
SCF SETTINGS
------------
Hamiltonian:
 Ab initio Hamiltonian  Method          .... Hartree-Fock(GTOs)


General Settings:
 Integral files         IntName         .... 76_Os
 Hartree-Fock type      HFTyp           .... UHF
 Total Charge           Charge          ....    0
 Multiplicity           Mult            ....    5
 Number of Electrons    NEL             ....   16
 Basis Dimension        Dim             ....   32
 Nuclear Repulsion      ENuc            ....      0.0000000000 Eh

Convergence Acceleration:
 DIIS                   CNVDIIS         .... on
   Start iteration      DIISMaxIt       ....    12
   Startup error        DIISStart       ....  0.200000
   # of expansion vecs  DIISMaxEq       ....     5
   Bias factor          DIISBfac        ....   1.050
   Max. coefficient     DIISMaxC        ....  10.000
 Newton-Raphson         CNVNR           .... off
 SOSCF                  CNVSOSCF        .... off
 Level Shifting         CNVShift        .... on
   Level shift para.    LevelShift      ....    0.2500
   Turn off err/grad.   ShiftErr        ....    0.0010
 Zerner damping         CNVZerner       .... off
 Static damping         CNVDamp         .... on
   Fraction old density DampFac         ....    0.7000
   Max. Damping (<1)    DampMax         ....    0.9800
   Min. Damping (>=0)   DampMin         ....    0.0000
   Turn off err/grad.   DampErr         ....    0.1000
 Fernandez-Rico         CNVRico         .... off

SCF Procedure:
 Maximum # iterations   MaxIter         ....   125
 SCF integral mode      SCFMode         .... Direct
   Integral package                     .... LIBINT
 Reset frequency        DirectResetFreq ....    20
 Integral Threshold     Thresh          ....  2.500e-11 Eh
 Primitive CutOff       TCut            ....  2.500e-12 Eh

Convergence Tolerance:
 Convergence Check Mode ConvCheckMode   .... Total+1el-Energy
 Convergence forced     ConvForced      .... 1
 Energy Change          TolE            ....  1.000e-08 Eh
 1-El. energy change                    ....  1.000e-05 Eh
 DIIS Error             TolErr          ....  5.000e-07


Diagonalization of the overlap matrix:
Smallest eigenvalue                        ... 1.539e-02
Time for diagonalization                   ...    0.001 sec
Threshold for overlap eigenvalues          ... 1.000e-08
Number of eigenvalues below threshold      ... 0
Time for construction of square roots      ...    0.110 sec
Total time needed                          ...    0.111 sec

-------------------
DFT GRID GENERATION
-------------------

General Integration Accuracy     IntAcc      ...  4.340
Radial Grid Type                 RadialGrid  ... Gauss-Chebyshev
Angular Grid (max. acc.)         AngularGrid ... Lebedev-110
Angular grid pruning method      GridPruning ... 3 (G Style)
Weight generation scheme         WeightScheme... Becke
Basis function cutoff            BFCut       ...    1.0000e-11
Integration weight cutoff        WCut        ...    1.0000e-14
Grids for H and He will be reduced by one unit

# of grid points (after initial pruning)     ...   3554 (   0.0 sec)
# of grid points (after weights+screening)   ...   3554 (   0.0 sec)
Grid point division into batches done        ...    0.0 sec
Reduced shell lists constructed in    0.0 sec

Total number of grid points                  ...     3554
Total number of batches                      ...       56
Average number of points per batch           ...       63
Average number of grid points per atom       ...     3554
Average number of shells per batch           ...     3.00 (25.00%)
Average number of basis functions per batch  ...     7.50 (23.44%)
Average number of large shells per batch     ...     2.25 (75.00%)
Average number of large basis fcns per batch ...     6.75 (90.00%)
Maximum spatial batch extension              ...  25.56, 38.92, 38.92 au
Average spatial batch extension              ...   1.31,  1.85,  2.08 au

Time for grid setup =    0.061 sec

------------------------------
INITIAL GUESS: MODEL POTENTIAL
------------------------------
Loading Hartree-Fock densities                     ... done
  calling /sw/apps/orca/orca_4_2_0_linux_x86-64_openmpi314/orca 76_Os_atom76.inp > 76_Os_atom76.out in order to generate an atomic fitting density for atom 0 (Os with ECP) on-the-fly... 
    atom 0 (Os), assumed electronic state with S=5: 1s2 2s2 2p6 3s2 3p6 4s2 3d10 4p6 5s2 4d10 5p6 6s2 4f14 5d6           ... done
Calculating cut-offs                               ... done
Setting up the integral package                    ... done
Initializing the effective Hamiltonian             ... done
Starting the Coulomb interaction                   ... done (   0.0 sec)
Reading the grid                                   ... done
Mapping shells                                     ... done
Starting the XC term evaluation                    ... done (   0.0 sec)
Transforming the Hamiltonian                       ... done (   0.0 sec)
Diagonalizing the Hamiltonian                      ... done (   0.0 sec)
Back transforming the eigenvectors                 ... done (   0.0 sec)
Now organizing SCF variables                       ... done
                      ------------------
                      INITIAL GUESS DONE (   1.2 sec)
                      ------------------
--------------
SCF ITERATIONS
--------------
ITER       Energy         Delta-E        Max-DP      RMS-DP      [F,P]     Damp
               ***  Starting incremental Fock matrix formation  ***
  0    -89.7612351260   0.000000000000 0.13740202  0.00613978  0.3464179 0.7000
  1    -89.7791220452  -0.017886919189 0.10797239  0.00485223  0.2463158 0.7000
                               ***Turning on DIIS***
  2    -89.7927367125  -0.013614667335 0.07950231  0.00362088  0.1744432 0.7000
  3    -89.8561635459  -0.063426833418 0.06233309  0.00293526  0.1236962 0.7000
  4    -89.8487080565   0.007455489399 0.15975030  0.00787612  0.0872871 0.0000
  5    -89.8318366696   0.016871386893 0.03136680  0.00121027  0.0032355 0.0000
  6    -89.8357617297  -0.003925060040 0.02557577  0.00093219  0.0021439 0.0000
  7    -89.8340810552   0.001680674458 0.01477168  0.00052742  0.0011078 0.0000
  8    -89.8338836396   0.000197415551 0.01204908  0.00043569  0.0005035 0.0000
  9    -89.8328912843   0.000992355327 0.00329301  0.00013799  0.0003481 0.0000
 10    -89.8320890677   0.000802216611 0.00127603  0.00007463  0.0002683 0.0000
 11    -89.8321548362  -0.000065768521 0.00178753  0.00007772  0.0001725 0.0000
 12    -89.8316563341   0.000498502112 0.00106099  0.00004779  0.0000574 0.0000
 13    -89.8317118811  -0.000055546942 0.00049052  0.00002242  0.0000155 0.0000
 14    -89.8317186551  -0.000006774064 0.00026088  0.00001127  0.0000074 0.0000
                            ***DIIS convergence achieved***

               *****************************************************
               *                     SUCCESS                       *
               *           SCF CONVERGED AFTER  15 CYCLES          *
               *****************************************************


----------------
TOTAL SCF ENERGY
----------------

Total Energy       :          -89.83174053 Eh           -2444.44593 eV

Components:
Nuclear Repulsion  :            0.00000000 Eh               0.00000 eV
Electronic Energy  :          -89.83174053 Eh           -2444.44593 eV
One Electron Energy:         -154.86410010 Eh           -4214.06640 eV
Two Electron Energy:           65.03235957 Eh            1769.62047 eV

Virial components:
Potential Energy   :         -120.60708026 Eh           -3281.88550 eV
Kinetic Energy     :           30.77533973 Eh             837.43957 eV
Virial Ratio       :            3.91895203


---------------
SCF CONVERGENCE
---------------

  Last Energy change         ...   -2.1875e-05  Tolerance :   1.0000e-08
  Last MAX-Density change    ...    4.0551e-05  Tolerance :   1.0000e-07
  Last RMS-Density change    ...    1.5433e-06  Tolerance :   5.0000e-09
  Last DIIS Error            ...    7.7658e-07  Tolerance :   5.0000e-07

             **** THE GBW FILE WAS UPDATED (76_Os.gbw) ****
             **** DENSITY FILE WAS UPDATED (76_Os.scfp) ****
             **** ENERGY FILE WAS UPDATED (76_Os.en.tmp) ****
----------------------
UHF SPIN CONTAMINATION
----------------------

Expectation value of <S**2>     :     6.029195
Ideal value S*(S+1) for S=2.0   :     6.000000
Deviation                       :     0.029195

             **** THE GBW FILE WAS UPDATED (76_Os.gbw) ****
             **** DENSITY FILE WAS UPDATED (76_Os.scfp) ****
----------------
ORBITAL ENERGIES
----------------
                 SPIN UP ORBITALS
  NO   OCC          E(Eh)            E(eV) 
   0   1.0000      -4.081903      -111.0742 
   1   1.0000      -2.424852       -65.9836 
   2   1.0000      -2.373124       -64.5760 
   3   1.0000      -2.373117       -64.5758 
   4   1.0000      -0.504385       -13.7250 
   5   1.0000      -0.496350       -13.5064 
   6   1.0000      -0.496348       -13.5063 
   7   1.0000      -0.475666       -12.9435 
   8   1.0000      -0.442357       -12.0372 
   9   1.0000      -0.324169        -8.8211 
  10   0.0000       0.050574         1.3762 
  11   0.0000       0.062027         1.6878 
  12   0.0000       0.062028         1.6879 
  13   0.0000       0.206439         5.6175 
  14   0.0000       0.518547        14.1104 
  15   0.0000       0.521881        14.2011 
  16   0.0000       0.521882        14.2011 
  17   0.0000       0.532218        14.4824 
  18   0.0000       0.544931        14.8283 
  19   0.0000       0.955499        26.0004 
  20   0.0000       0.987433        26.8694 
  21   0.0000       0.987436        26.8695 
  22   0.0000       1.355127        36.8749 
  23   0.0000       1.357244        36.9325 
  24   0.0000       1.357245        36.9325 
  25   0.0000       1.361224        37.0408 
  26   0.0000       1.379463        37.5371 
  27   0.0000       1.398668        38.0597 
  28   0.0000       1.398670        38.0597 
  29   0.0000       1.826091        49.6905 
  30   0.0000      61.621554      1676.8077 
  31   0.0000     433.563097     11797.8517 

                 SPIN DOWN ORBITALS
  NO   OCC          E(Eh)            E(eV) 
   0   1.0000      -3.884941      -105.7146 
   1   1.0000      -2.121398       -57.7262 
   2   1.0000      -2.121394       -57.7261 
   3   1.0000      -2.091184       -56.9040 
   4   1.0000      -0.341261        -9.2862 
   5   1.0000      -0.246938        -6.7195 
   6   0.0000       0.069417         1.8889 
   7   0.0000       0.072739         1.9793 
   8   0.0000       0.072740         1.9794 
   9   0.0000       0.100713         2.7405 
  10   0.0000       0.109804         2.9879 
  11   0.0000       0.109807         2.9880 
  12   0.0000       0.136315         3.7093 
  13   0.0000       0.244634         6.6568 
  14   0.0000       0.568749        15.4764 
  15   0.0000       0.610842        16.6218 
  16   0.0000       0.616392        16.7729 
  17   0.0000       0.616394        16.7729 
  18   0.0000       0.633485        17.2380 
  19   0.0000       1.059158        28.8211 
  20   0.0000       1.066389        29.0179 
  21   0.0000       1.066391        29.0180 
  22   0.0000       1.515498        41.2388 
  23   0.0000       1.515501        41.2389 
  24   0.0000       1.520965        41.3876 
  25   0.0000       1.544232        42.0207 
  26   0.0000       1.552527        42.2464 
  27   0.0000       1.552530        42.2465 
  28   0.0000       1.560913        42.4746 
  29   0.0000       1.905891        51.8619 
  30   0.0000      61.633187      1677.1243 
  31   0.0000     433.564176     11797.8810 

                    ********************************
                    * MULLIKEN POPULATION ANALYSIS *
                    ********************************

--------------------------------------------
MULLIKEN ATOMIC CHARGES AND SPIN POPULATIONS
--------------------------------------------
   0 Os:    0.000000    4.000000
Sum of atomic charges         :    0.0000000
Sum of atomic spin populations:    4.0000000

-----------------------------------------------------
MULLIKEN REDUCED ORBITAL CHARGES AND SPIN POPULATIONS
-----------------------------------------------------
CHARGE
  0 Oss       :     3.999780  s :     3.999780
      pz      :     1.999662  p :     5.999279
      px      :     1.999955
      py      :     1.999662
      dz2     :     1.000055  d :     6.000220
      dxz     :     1.000008
      dyz     :     1.999988
      dx2y2   :     1.000165
      dxy     :     1.000004
      f0      :     0.000142  f :     0.000721
      f+1     :     0.000017
      f-1     :     0.000309
      f+2     :     0.000196
      f-2     :     0.000000
      f+3     :     0.000028
      f-3     :     0.000029

SPIN
  0 Oss       :     0.000559  s :     0.000559
      pz      :     0.000240  p :     0.000447
      px      :    -0.000033
      py      :     0.000240
      dz2     :     0.999860  d :     3.999441
      dxz     :     0.999992
      dyz     :     0.000012
      dx2y2   :     0.999581
      dxy     :     0.999996
      f0      :    -0.000140  f :    -0.000447
      f+1     :     0.000012
      f-1     :    -0.000261
      f+2     :    -0.000100
      f-2     :    -0.000000
      f+3     :     0.000020
      f-3     :     0.000022


                     *******************************
                     * LOEWDIN POPULATION ANALYSIS *
                     *******************************

-------------------------------------------
LOEWDIN ATOMIC CHARGES AND SPIN POPULATIONS
-------------------------------------------
   0 Os:    0.000000    4.000000

----------------------------------------------------
LOEWDIN REDUCED ORBITAL CHARGES AND SPIN POPULATIONS
----------------------------------------------------
CHARGE
  0 Oss       :     3.999780  s :     3.999780
      pz      :     1.999662  p :     5.999279
      px      :     1.999955
      py      :     1.999662
      dz2     :     1.000055  d :     6.000220
      dxz     :     1.000008
      dyz     :     1.999988
      dx2y2   :     1.000165
      dxy     :     1.000004
      f0      :     0.000142  f :     0.000721
      f+1     :     0.000017
      f-1     :     0.000309
      f+2     :     0.000196
      f-2     :     0.000000
      f+3     :     0.000028
      f-3     :     0.000029

SPIN
  0 Oss       :     0.000559  s :     0.000559
      pz      :     0.000240  p :     0.000447
      px      :    -0.000033
      py      :     0.000240
      dz2     :     0.999860  d :     3.999441
      dxz     :     0.999992
      dyz     :     0.000012
      dx2y2   :     0.999581
      dxy     :     0.999996
      f0      :    -0.000140  f :    -0.000447
      f+1     :     0.000012
      f-1     :    -0.000261
      f+2     :    -0.000100
      f-2     :    -0.000000
      f+3     :     0.000020
      f-3     :     0.000022


                      *****************************
                      * MAYER POPULATION ANALYSIS *
                      *****************************

  NA   - Mulliken gross atomic population
  ZA   - Total nuclear charge
  QA   - Mulliken gross atomic charge
  VA   - Mayer's total valence
  BVA  - Mayer's bonded valence
  FA   - Mayer's free valence

  ATOM       NA         ZA         QA         VA         BVA        FA
  0 Os    16.0000    16.0000     0.0000     4.0584     0.0000     4.0584

  Mayer bond orders larger than 0.100000


-------
TIMINGS
-------

Total SCF time: 0 days 0 hours 0 min 9 sec 

Total time                  ....       9.643 sec
Sum of individual times     ....       3.905 sec  ( 40.5%)

Fock matrix formation       ....       2.267 sec  ( 23.5%)
Diagonalization             ....       0.065 sec  (  0.7%)
Density matrix formation    ....       0.003 sec  (  0.0%)
Population analysis         ....       0.165 sec  (  1.7%)
Initial guess               ....       1.137 sec  ( 11.8%)
Orbital Transformation      ....       0.000 sec  (  0.0%)
Orbital Orthonormalization  ....       0.000 sec  (  0.0%)
DIIS solution               ....       0.208 sec  (  2.2%)


           ************************************************************
           *        Program running with 24 parallel MPI-processes    *
           *              working on a common directory               *
           ************************************************************


------------------------------------------------------------------------------- 
                              ORCA-MATRIX DRIVEN CI                            
------------------------------------------------------------------------------- 

--------------------------------
AUTOMATIC CHOICE OF INCORE LEVEL
--------------------------------

Memory available                           ...   2500.00 MB
Memory needed for S+T                      ...      0.61 MB
Memory needed for J+K                      ...      1.24 MB
Memory needed for DIIS                     ...      8.53 MB
Memory needed for 3-ext                    ...      0.81 MB
Memory needed for 4-ext                    ...      0.93 MB
Memory needed for triples                  ...      0.41 MB
 -> Final InCoreLevel    ... 5
 -> check shows that triples correction can be computed


Wavefunction type
-----------------
Correlation treatment                      ...      CCSD     
Single excitations                         ... ON
Orbital optimization                       ... OFF
Calculation of Z vector                    ... OFF
Calculation of Brueckner orbitals          ... OFF
Perturbative triple excitations            ... ON
Calculation of F12 correction              ... OFF
Frozen core treatment                      ... chemical core (0 el)
Reference Wavefunction                     ... UHF
  Alpha-MOs occ    :     0 ...    9 ( 10 MO's/ 10 electrons)
  Beta-MOs occ     :     0 ...    5 (  6 MO's/  6 electrons)
  Alpha-MOs virt   :    10 ...   31 ( 22 MO's              )
  Beta-MOs virt    :     6 ...   31 ( 26 MO's              )
Number of AO's                             ...     32
Number of electrons                        ...     16
Number of correlated electrons             ...     16

Algorithmic settings
--------------------
Integral transformation                    ... AO direct full transformation
K(C) Formation                             ... FULL-MO TRAFO
Maximum number of iterations               ...        50
Convergence tolerance (max. residuum)      ... 1.000e-05
Level shift for amplitude update           ... 2.000e-01
Maximum number of DIIS vectors             ...         7
DIIS turned on at iteration                ...         0
Damping before turning on DIIS             ...     0.500
Damping after turning on DIIS              ...     0.000
Pair specific amplitude update             ... OFF
Natural orbital iterations                 ... OFF
Perturbative natural orbital generation    ... OFF
Printlevel                                 ... 2

Memory handling:
----------------
Maximum memory for working arrays          ...   2500 MB
Data storage in matrix containers          ... UNCOMPRESSED
Data type for integral storage             ... DOUBLE
In-Core Storage of quantities:
   Amplitudes+Sigma Vector      ... YES
   J+K operators                ... YES
   DIIS vectors                 ... YES
   3-external integrals         ... YES
   4-external integrals         ... YES


Initializing the integral package          ... done
Warning: reference  - re-canonicalizations have been set to INT 1 VIRT 1

--------------------------
UNRESTRICTED FOCK OPERATOR
--------------------------

<ss|ss>:          231 b            0 skpd (  0.0%)    0.000 s ( 0.000 ms/b)
<ss|sp>:          378 b            0 skpd (  0.0%)    0.000 s ( 0.000 ms/b)
<ss|sd>:          252 b            0 skpd (  0.0%)    0.000 s ( 0.000 ms/b)
<ss|sf>:          126 b            0 skpd (  0.0%)    0.000 s ( 0.000 ms/b)
<ss|pp>:          126 b            0 skpd (  0.0%)    0.000 s ( 0.001 ms/b)
<ss|pd>:          126 b            0 skpd (  0.0%)    0.000 s ( 0.002 ms/b)
<ss|pf>:           63 b            0 skpd (  0.0%)    0.000 s ( 0.001 ms/b)
<ss|dd>:           63 b            0 skpd (  0.0%)    0.000 s ( 0.005 ms/b)
<ss|df>:           42 b            0 skpd (  0.0%)    0.000 s ( 0.005 ms/b)
<ss|ff>:           21 b            0 skpd (  0.0%)    0.000 s ( 0.008 ms/b)
<sp|sp>:          171 b            0 skpd (  0.0%)    0.000 s ( 0.000 ms/b)
<sp|sd>:          216 b            0 skpd (  0.0%)    0.000 s ( 0.000 ms/b)
<sp|sf>:          108 b            0 skpd (  0.0%)    0.000 s ( 0.001 ms/b)
<sp|pp>:          108 b            0 skpd (  0.0%)    0.000 s ( 0.003 ms/b)
<sp|pd>:          108 b            0 skpd (  0.0%)    0.001 s ( 0.005 ms/b)
<sp|pf>:           54 b            0 skpd (  0.0%)    0.000 s ( 0.004 ms/b)
<sp|dd>:           54 b            0 skpd (  0.0%)    0.001 s ( 0.017 ms/b)
<sp|df>:           36 b            0 skpd (  0.0%)    0.001 s ( 0.015 ms/b)
<sp|ff>:           18 b            0 skpd (  0.0%)    0.000 s ( 0.025 ms/b)
<sd|sd>:           78 b            0 skpd (  0.0%)    0.000 s ( 0.002 ms/b)
<sd|sf>:           72 b            0 skpd (  0.0%)    0.000 s ( 0.002 ms/b)
<sd|pp>:           72 b            0 skpd (  0.0%)    0.001 s ( 0.007 ms/b)
<sd|pd>:           72 b            0 skpd (  0.0%)    0.001 s ( 0.013 ms/b)
<sd|pf>:           36 b            0 skpd (  0.0%)    0.000 s ( 0.006 ms/b)
<sd|dd>:           36 b            0 skpd (  0.0%)    0.002 s ( 0.045 ms/b)
<sd|df>:           24 b            0 skpd (  0.0%)    0.001 s ( 0.041 ms/b)
<sd|ff>:           12 b            0 skpd (  0.0%)    0.001 s ( 0.056 ms/b)
<sf|sf>:           21 b            0 skpd (  0.0%)    0.000 s ( 0.004 ms/b)
<sf|pp>:           36 b            0 skpd (  0.0%)    0.000 s ( 0.007 ms/b)
<sf|pd>:           36 b            0 skpd (  0.0%)    0.000 s ( 0.011 ms/b)
<sf|pf>:           18 b            0 skpd (  0.0%)    0.000 s ( 0.007 ms/b)
<sf|dd>:           18 b            0 skpd (  0.0%)    0.001 s ( 0.028 ms/b)
<sf|df>:           12 b            0 skpd (  0.0%)    0.000 s ( 0.031 ms/b)
<sf|ff>:            6 b            0 skpd (  0.0%)    0.000 s ( 0.047 ms/b)
<pp|pp>:           21 b            0 skpd (  0.0%)    0.000 s ( 0.013 ms/b)
<pp|pd>:           36 b            0 skpd (  0.0%)    0.000 s ( 0.013 ms/b)
<pp|pf>:           18 b            0 skpd (  0.0%)    0.000 s ( 0.008 ms/b)
<pp|dd>:           18 b            0 skpd (  0.0%)    0.001 s ( 0.046 ms/b)
<pp|df>:           12 b            0 skpd (  0.0%)    0.000 s ( 0.041 ms/b)
<pp|ff>:            6 b            0 skpd (  0.0%)    0.000 s ( 0.052 ms/b)
<pd|pd>:           21 b            0 skpd (  0.0%)    0.001 s ( 0.054 ms/b)
<pd|pf>:           18 b            0 skpd (  0.0%)    0.000 s ( 0.017 ms/b)
<pd|dd>:           18 b            0 skpd (  0.0%)    0.002 s ( 0.115 ms/b)
<pd|df>:           12 b            0 skpd (  0.0%)    0.001 s ( 0.105 ms/b)
<pd|ff>:            6 b            0 skpd (  0.0%)    0.001 s ( 0.128 ms/b)
<pf|pf>:            6 b            0 skpd (  0.0%)    0.000 s ( 0.032 ms/b)
<pf|dd>:            9 b            0 skpd (  0.0%)    0.001 s ( 0.062 ms/b)
<pf|df>:            6 b            0 skpd (  0.0%)    0.000 s ( 0.069 ms/b)
<pf|ff>:            3 b            0 skpd (  0.0%)    0.000 s ( 0.099 ms/b)
<dd|dd>:            6 b            0 skpd (  0.0%)    0.002 s ( 0.303 ms/b)
<dd|df>:            6 b            0 skpd (  0.0%)    0.001 s ( 0.169 ms/b)
<dd|ff>:            3 b            0 skpd (  0.0%)    0.001 s ( 0.198 ms/b)
<df|df>:            3 b            0 skpd (  0.0%)    0.001 s ( 0.191 ms/b)
<df|ff>:            2 b            0 skpd (  0.0%)    0.000 s ( 0.223 ms/b)
<ff|ff>:            1 b            0 skpd (  0.0%)    0.000 s ( 0.302 ms/b)
Recanonicalizing the internal orbitals
Recanonicalizing the virtual orbitals
Time needed for Fock operator              ...            0.064 sec
Reference energy                           ...    -89.831744567
Warning: for UHF the TrafoType has to be JK
Warning: for UHF the K(C)-option cannot be MO but must be AOX

-------------------------------
PARTIAL EXCHANGE TRANSFORMATION
-------------------------------

Transformation type                        ... two-operators
Generation of integrals (i,mue|j,nue)      ... ON
Generation of integrals (mue,kappa|nue,tau)... ON
Generation of integrals (i,mue|a,nue)      ... ON
Dimension of the basis                     ...   32
Number of internal alpha-MOs               ...   10 (   0-   9)
Number of internal beta-MOs                ...    6 (   0-   5)
Number of external alpha-MOs               ...   22 (  10-  31)
Number of external beta-MOs                ...   26 (   6-  31)
Pair cutoff                                ... 0.000e+00 Eh
Number of AO pairs in the trafo            ...  528
Total Number of distinct AO pairs          ...  528
Memory devoted for trafo                   ... 2500.0 MB 
Max. Number of MO pairs treated together   ... 320000      
Number Format for Storage                  ... Double (8 Byte)
Integral package used                      ... LIBINT

Starting integral evaluation:
    ... done with AO integral generation
Closing buffer AOK[aa] ( 0.00 GB; CompressionRatio= 0.00)
Closing buffer AOK[bb] ( 0.00 GB; CompressionRatio= 0.00)
Closing buffer AOK[ab] ( 0.00 GB; CompressionRatio= 0.00)
Closing buffer AOK[ba] ( 0.00 GB; CompressionRatio= 0.00)
Collecting buffer AOK 
Closing buffer IAAO1[aa] ( 0.00 GB; CompressionRatio= 0.00)
Closing buffer IAAO1[bb] ( 0.00 GB; CompressionRatio= 0.00)
Closing buffer IAAO1[ab] ( 0.00 GB; CompressionRatio= 0.00)
Closing buffer IAAO1[ba] ( 0.00 GB; CompressionRatio= 0.00)
Closing buffer IAAO2[aa] ( 0.00 GB; CompressionRatio= 0.00)
Closing buffer IAAO2[bb] ( 0.00 GB; CompressionRatio= 0.00)
Closing buffer IAAO2[ab] ( 0.00 GB; CompressionRatio= 0.00)
Closing buffer IAAO2[ba] ( 0.00 GB; CompressionRatio= 0.00)
Collecting buffer IAAO 
Closing buffer PRQS    ( 0.00 GB; CompressionRatio= 0.00)
Collecting buffer PRQS 
Number of alpha/alpha MO pairs in trafo    ...   55
Number of beta /beta  MO pairs in trafo    ...   21
Number of alpha/ beta MO pairs in trafo    ...   60
------------------------
SORTING OF (i,mue|j,nue)
------------------------

SORTING OF ALPHA/ALPHA PAIRS
IBATCH = 1 of  1
Closing buffer KAO[aa] ( 0.00 GB; CompressionRatio= 1.00)
Collecting buffer KAO 
SORTING OF BETA /BETA  PAIRS
IBATCH = 1 of  1
Closing buffer KAO[bb] ( 0.00 GB; CompressionRatio= 1.00)
Collecting buffer KAO 
SORTING OF ALPHA/BETA  PAIRS
IBATCH = 1 of  1
Closing buffer KAO[ab] ( 0.00 GB; CompressionRatio= 0.998537298879)
Collecting buffer KAO[ab] 
------------------------
SORTING OF (i,mue|a,nue)
------------------------

Number of alpha/alpha (i,a) pairs in trafo  ...  220
Number of beta /beta  (i,a) pairs in trafo  ...  156
Number of alpha/ beta (i,a) pairs in trafo  ...  260
Number of beta /alpha (i,a) pairs in trafo  ...  132
Setting up the alpha/alpha list             ... done
Setting up the beta /beta  list             ... done
Setting up the alpha/beta  list             ... done
Setting up the beta /alpha list             ... done
    ... Now sorting (i,mue|a,nue)integrals
    ... Integrals (i,b|a,c) will be made on the fly
SORTING OF ALPHA/ALPHA PAIRS
IBATCH = 1 of  1
Closing buffer IPAQ[aa]  0.00 GB; CompressionRatio= 1.00)
SORTING OF BETA /BETA  PAIRS
IBATCH = 1 of  1
Closing buffer IPAQ[bb]( 0.00 GB; CompressionRatio= 1.00)
SORTING OF ALPHA/BETA  PAIRS (NMatSort_ab=11)
IBATCH = 1 of  1
Closing buffer IPAQ[ab]( 0.00 GB; CompressionRatio= 1.00)
SORTING OF BETA/ALPHA  PAIRS
IBATCH = 1 of  1
Closing buffer IPAQ[ba]( 0.00 GB; CompressionRatio= 1.00)
N(AO-Batches) Done                         ...         0 
N(AO-Batches) Skipped                      ...         0 
N(IJ)-pairs Skipped                        ...         0 
TOTAL TIME for half transformation         ...     1.885 sec
AO-integral generation                     ...     0.000 sec
Half transformation                        ...     0.000 sec
K-integral sorting                         ...     0.753 sec
<ss|**>: 
------------------------------
PARTIAL COULOMB TRANSFORMATION
------------------------------

Transformation type                        ... two-operators
Dimension of the basis                     ...   32
Number of internal alpha-MOs               ...   10 (0-9)
Number of internal beta-MOs                ...    6 (0-5)
Pair cutoff                                ... 0.000e+00 Eh
Number of AO pairs included in the trafo   ...  528
Total Number of distinct AO pairs          ...  528
Memory devoted for trafo                   ... 2500.0 MB 
Max. Number of MO pairs treated together   ... 620606      
Max. Number of MOs treated per batch       ... 19393      
Number Format for Storage                  ... Double (8 Byte)
AO-integral source                         ... DIRECT
Integral package used                      ... LIBINT

Starting integral evaluation:
<sp|**>:         1638 b        0 skpd     0.001 s (  0.001 ms/b)
        1404 b        0 skpd     0.024 s (  0.017 ms/b)
<sd|**>:          936 b        0 skpd     0.009 s (  0.009 ms/b)
<sf|**>:          468 b        0 skpd     0.007 s (  0.014 ms/b)
<pp|**>:          468 b        0 skpd     0.010 s (  0.021 ms/b)
<pd|**>: <pf|**>:          468 b        0 skpd     0.017 s (  0.036 ms/b)
         234 b        0 skpd     0.019 s (  0.082 ms/b)
<dd|**>:          234 b        0 skpd     0.021 s (  0.088 ms/b)
<df|**>:          156 b        0 skpd     0.024 s (  0.155 ms/b)
<ff|**>:           78 b        0 skpd     0.014 s (  0.180 ms/b)
Closing buffer AOJ[aa] ( 0.00 GB; CompressionRatio= 0.97)
Closing buffer AOJ[bb] ( 0.00 GB; CompressionRatio= 0.00)
Collecting buffer AOJ 
    ... done with AO integral generation
Number of Alpha-MO pairs included          ...   55
Number of Beta-MO pairs included           ...   21
    ... Now sorting integrals
SORTING ALPHA/ALPHA PAIRS
IBATCH = 1 of  1
Closing buffer JAO[aa] ( 0.00 GB; CompressionRatio= 1.00)
SORTING BETA/BETA PAIRS
IBATCH = 1 of  1
Closing buffer JAO[bb] ( 0.00 GB; CompressionRatio= 1.00)
Collecting buffer JAO 
TOTAL TIME for half transformation         ...     0.281 sec
AO-integral generation                     ...     0.117 sec
Half transformation                        ...     0.028 sec
J-integral sorting                         ...     0.091 sec

-------------------------- SECOND HALF TRANSFORMATION -------------------------
Formation of (ij|kl),(ij|ka), (ij|ab)      ... ok (     0.137 sec)
Formation of (ik|jl),(ik|ja), (ia|jb)      ... ok (     0.243 sec)


-----------------------
SPIN UNRESTRICTED GUESS
-----------------------

Entering MDCI_UHF_Guess, Tailored=0
Spin-components of the MP2 energy:
EMP2(aa)=     -0.065164218
EMP2(bb)=     -0.027104620
EMP2(ab)=     -0.162507245

Initial guess performed in     0.004 sec
E(0)                                       ...    -89.831744567
E(MP2)                                     ...     -0.254776083
Initial E(tot)                             ...    -90.086520650
<T|T>                                      ...      0.085934671
Number of pairs included                   ... 120

------------------------------------------------
                  UHF COUPLED CLUSTER ITERATIONS
------------------------------------------------

Number of amplitudes to be optimized       ...        50468

Iter       E(tot)           E(Corr)          Delta-E          Residual     Time      <S|S>**1/2
  0    -90.086520650     -0.254776083     -0.000000000      0.019745358    0.09      0.000001490
                           *** Turning on DIIS ***
  1    -90.075688428     -0.243943861      0.010832222      0.009551295    0.05      0.035081771
  2    -90.080415039     -0.248670472     -0.004726611      0.005823079    0.05      0.046416138
  3    -90.082470830     -0.250726263     -0.002055791      0.002041096    0.05      0.056556061
  4    -90.082916467     -0.251171900     -0.000445637      0.000600217    0.05      0.059708471
  5    -90.082951786     -0.251207219     -0.000035319      0.000317356    0.05      0.060109083
  6    -90.082958553     -0.251213986     -0.000006767      0.000283426    0.05      0.060122504
  7    -90.082957424     -0.251212857      0.000001129      0.000248913    0.07      0.060083328
  8    -90.082957216     -0.251212649      0.000000208      0.000210935    0.05      0.060097726
  9    -90.082960973     -0.251216406     -0.000003757      0.000134884    0.05      0.060227455
 10    -90.082962972     -0.251218406     -0.000001999      0.000032839    0.05      0.060486001
 11    -90.082961938     -0.251217371      0.000001034      0.000005354    0.05      0.060572960
               --- The Coupled-Cluster iterations have converged ---

----------------------
COUPLED CLUSTER ENERGY
----------------------

E(0)                                       ...    -89.831744567
E(CORR)                                    ...     -0.251217371
E(TOT)                                     ...    -90.082961938
Singles norm <S|S>**1/2                    ...      0.060572960 ( 0.033673110, 0.026899851)  
T1 diagnostic                              ...      0.015143240                              

------------------
LARGEST AMPLITUDES
------------------
   9a-> 12a   5b->  8b       0.069925
   9a-> 11a   5b->  7b       0.069924
   9a-> 10a   5b->  6b       0.069774
   5b-> 13b  -1b-> -1b       0.063497
   4a-> 10a   5b->  6b       0.031732
   8a-> 18a   4b-> 14b       0.031682
   8a-> 27a   7a-> 28a       0.027369
   8a-> 28a   7a-> 27a       0.027369
   9a-> 12a   4b->  8b       0.026924
   9a-> 11a   4b->  7b       0.026921
   4b-> 14b  -1b-> -1b       0.026401
   9a-> 13a   5b-> 13b       0.025772
   7a-> 17a   4b-> 14b       0.025617
   8a-> 11a   5b->  7b       0.024999
   8a-> 12a   5b->  8b       0.024998
   7a-> 12a   5b->  7b       0.023760

----------------------
UHF TRIPLES CORRECTION (Algorithm 1)
----------------------

Multiplier for the singles contribution    ...      1.000000000

SPIN-CASE Alpha-Alpha-Alpha:
10% done
20% done
30% done
40% done
50% done
60% done
70% done
80% done
90% done


SPIN-CASE Beta-Beta-Beta:
10% done
20% done
30% done
40% done
50% done
60% done
70% done
80% done
90% done


SPIN-CASE Alpha-Alpha-Beta:
10% done
20% done
30% done
40% done
50% done
60% done
70% done
80% done
90% done


SPIN-CASE Beta-Beta-Alpha:
10% done
20% done
30% done
40% done
50% done
60% done
70% done
80% done
90% done


Triples Correction (T)                     ...     -0.005768215
    alpha-alpha-alpha ... -0.000364939 (  6.3%)
    alpha-alpha-beta  ... -0.003410101 ( 59.1%)
    alpha-beta -beta  ... -0.001915563 ( 33.2%)
    beta -beta -beta  ... -0.000077611 (  1.3%)
Scaling of triples based on CCSD energies (Peterson et al. Molecular Physics 113, 1551 (2015))
E(T*) = f*E(T) where f = E(F12-CCSD)/E(CCSD) 
f = CCSD (with F12)/ CCSD (without F12)    ...      1.000000000
Scaled triples correction (T)              ...     -0.005768215

Final correlation energy                   ...     -0.256985586
E(CCSD)                                    ...    -90.082961938
E(CCSD(T))                                 ...    -90.088730153



        !!!!!!!!!!!!!!!!!!!!!!!!!!!!!!!!!!!!!!!!!!!!!!!!!!!!!!!!!!!!!!!!!!!!!!!!!! 
        !  Warning: Densities are linearized densities                           !
        !!!!!!!!!!!!!!!!!!!!!!!!!!!!!!!!!!!!!!!!!!!!!!!!!!!!!!!!!!!!!!!!!!!!!!!!!! 

NORM  =      1.102548146 sqrt=     1.050022926
W(HF) =      0.906989870
------------------------------------------------------------------------------
                           ORCA POPULATION ANALYSIS
------------------------------------------------------------------------------
Input electron density              ... 76_Os.mdcip
Input spin density                  ... 76_Os.mdcir
BaseName (.gbw .S,...)              ... 76_Os

                    ********************************
                    * MULLIKEN POPULATION ANALYSIS *
                    ********************************

------------------------------------------
MULLIKEN ATOMIC CHARGES AND SPIN DENSITIES
------------------------------------------
   0 Os:    0.000000    4.000000
Sum of atomic charges       :    0.0000000
Sum of atomic spin densities:    4.0000000

---------------------------------------------------
MULLIKEN REDUCED ORBITAL CHARGES AND SPIN DENSITIES
---------------------------------------------------
CHARGE
  0 Oss       :     3.938455  s :     3.938455
      pz      :     2.017970  p :     6.049234
      px      :     2.013295
      py      :     2.017970
      dz2     :     0.996633  d :     5.964322
      dxz     :     0.997278
      dyz     :     1.975927
      dx2y2   :     0.997210
      dxy     :     0.997275
      f0      :     0.006794  f :     0.047988
      f+1     :     0.005729
      f-1     :     0.008672
      f+2     :     0.007637
      f-2     :     0.007638
      f+3     :     0.005759
      f-3     :     0.005759

SPIN
  0 Oss       :     0.011021  s :     0.011021
      pz      :     0.005716  p :     0.020107
      px      :     0.008675
      py      :     0.005716
      dz2     :     0.984768  d :     3.940693
      dxz     :     0.984201
      dyz     :     0.003394
      dx2y2   :     0.984126
      dxy     :     0.984204
      f0      :     0.004058  f :     0.028178
      f+1     :     0.005081
      f-1     :     0.002300
      f+2     :     0.003307
      f-2     :     0.003300
      f+3     :     0.005065
      f-3     :     0.005065


                     *******************************
                     * LOEWDIN POPULATION ANALYSIS *
                     *******************************

-----------------------------------------
LOEWDIN ATOMIC CHARGES AND SPIN DENSITIES
-----------------------------------------
   0 Os:    0.000000    4.000000

--------------------------------------------------
LOEWDIN REDUCED ORBITAL CHARGES AND SPIN DENSITIES
--------------------------------------------------
CHARGE
  0 Oss       :     3.938455  s :     3.938455
      pz      :     2.017970  p :     6.049234
      px      :     2.013295
      py      :     2.017970
      dz2     :     0.996633  d :     5.964322
      dxz     :     0.997278
      dyz     :     1.975927
      dx2y2   :     0.997210
      dxy     :     0.997275
      f0      :     0.006794  f :     0.047988
      f+1     :     0.005729
      f-1     :     0.008672
      f+2     :     0.007637
      f-2     :     0.007638
      f+3     :     0.005759
      f-3     :     0.005759

SPIN
  0 Oss       :     0.011021  s :     0.011021
      pz      :     0.005716  p :     0.020107
      px      :     0.008675
      py      :     0.005716
      dz2     :     0.984768  d :     3.940693
      dxz     :     0.984201
      dyz     :     0.003394
      dx2y2   :     0.984126
      dxy     :     0.984204
      f0      :     0.004058  f :     0.028178
      f+1     :     0.005081
      f-1     :     0.002300
      f+2     :     0.003307
      f-2     :     0.003300
      f+3     :     0.005065
      f-3     :     0.005065


                      *****************************
                      * MAYER POPULATION ANALYSIS *
                      *****************************

  NA   - Mulliken gross atomic population
  ZA   - Total nuclear charge
  QA   - Mulliken gross atomic charge
  VA   - Mayer's total valence
  BVA  - Mayer's bonded valence
  FA   - Mayer's free valence

  ATOM       NA         ZA         QA         VA         BVA        FA
  0 Os    16.0000    16.0000     0.0000     4.6256     0.0000     4.6256





------------------------------------------------------------------------------- 
                                     TIMINGS                                   
------------------------------------------------------------------------------- 


Total execution time                   ...        3.719 sec

Fock Matrix Formation                  ...        0.064 sec (  1.7%)
Initial Guess                          ...        0.004 sec (  0.1%)
DIIS Solver                            ...        0.058 sec (  1.6%)
State Vector Update                    ...        0.005 sec (  0.1%)
Sigma-vector construction              ...        0.598 sec ( 16.1%)
  <D|H|D>(0-ext Fock)                  ...        0.001 sec (  0.2% of sigma)
  <D|H|D>(0-ext)                       ...        0.002 sec (  0.4% of sigma)
  <D|H|D>(2-ext)                       ...        0.008 sec (  1.4% of sigma)
  <D|H|D>(4-ext)                       ...        0.179 sec ( 29.9% of sigma)
  <S|H|0>                              ...        0.014 sec (  2.3% of sigma)
  <D|H|S>(1-ext)                       ...        0.006 sec (  1.1% of sigma)
  Fock-dressing                        ...        0.171 sec ( 28.6% of sigma)
  (ik|jl)-dressing                     ...        0.004 sec (  0.7% of sigma)
  (ij|ab),(ia|jb)-dressing             ...        0.158 sec ( 26.5% of sigma)
  Pair energies                        ...        0.001 sec (  0.2% of sigma)
Total Time for computing (T)           ...        0.012 sec (  0.3% of ALL)
  I/O of integral and amplitudes       ...        0.003 sec ( 26.7% of (T))
  External N**7 contributions          ...        0.002 sec ( 13.5% of (T))
  N**6 triples energy contributions    ...        0.006 sec ( 46.8% of (T))


-------------------------   --------------------
FINAL SINGLE POINT ENERGY       -90.088730152835
-------------------------   --------------------


                            ***************************************
                            *     ORCA property calculations      *
                            ***************************************

                                    ---------------------
                                    Active property flags
                                    ---------------------
   (+) Dipole Moment


------------------------------------------------------------------------------
                       ORCA ELECTRIC PROPERTIES CALCULATION
------------------------------------------------------------------------------

Dipole Moment Calculation                       ... on
Quadrupole Moment Calculation                   ... off
Polarizability Calculation                      ... off
GBWName                                         ... 76_Os.gbw
Electron density file                           ... 76_Os.scfp
The origin for moment calculation is the CENTER OF MASS  = ( 0.000000,  0.000000  0.000000)

-------------
DIPOLE MOMENT
-------------
                                X             Y             Z
Electronic contribution:     -0.00000      -0.00000       0.00000
Nuclear contribution   :      0.00000       0.00000       0.00000
                        -----------------------------------------
Total Dipole Moment    :     -0.00000      -0.00000       0.00000
                        -----------------------------------------
Magnitude (a.u.)       :      0.00000
Magnitude (Debye)      :      0.00000



--------------------
Rotational spectrum 
--------------------
 
Rotational constants in cm-1:     0.000000     0.000000     0.000000 
Rotational constants in MHz :     0.000000     0.000000     0.000000 

 Dipole components along the rotational axes: 
x,y,z [a.u.] :    -0.000000    -0.000000     0.000000 
x,y,z [Debye]:    -0.000000    -0.000000     0.000000 

 

                           *** MDCI DENSITY ***

------------------------------------------------------------------------------
                       ORCA ELECTRIC PROPERTIES CALCULATION
------------------------------------------------------------------------------

Dipole Moment Calculation                       ... on
Quadrupole Moment Calculation                   ... off
Polarizability Calculation                      ... off
GBWName                                         ... 76_Os.gbw
Electron density file                           ... 76_Os.mdcip
The origin for moment calculation is the CENTER OF MASS  = ( 0.000000,  0.000000  0.000000)

-------------
DIPOLE MOMENT
-------------
                                X             Y             Z
Electronic contribution:      0.00000       0.00000      -0.00000
Nuclear contribution   :      0.00000       0.00000       0.00000
                        -----------------------------------------
Total Dipole Moment    :      0.00000       0.00000      -0.00000
                        -----------------------------------------
Magnitude (a.u.)       :      0.00000
Magnitude (Debye)      :      0.00000



--------------------
Rotational spectrum 
--------------------
 
Rotational constants in cm-1:     0.000000     0.000000     0.000000 
Rotational constants in MHz :     0.000000     0.000000     0.000000 

 Dipole components along the rotational axes: 
x,y,z [a.u.] :     0.000000     0.000000    -0.000000 
x,y,z [Debye]:     0.000000     0.000000    -0.000000 

 

Timings for individual modules:

Sum of individual times         ...       14.991 sec (=   0.250 min)
GTO integral calculation        ...        0.817 sec (=   0.014 min)   5.5 %
SCF iterations                  ...       10.031 sec (=   0.167 min)  66.9 %
MDCI module                     ...        4.142 sec (=   0.069 min)  27.6 %
                             ****ORCA TERMINATED NORMALLY****
TOTAL RUN TIME: 0 days 0 hours 0 minutes 15 seconds 956 msec
