
                                 *****************
                                 * O   R   C   A *
                                 *****************

           --- An Ab Initio, DFT and Semiempirical electronic structure package ---

                  #######################################################
                  #                        -***-                        #
                  #          Department of theory and spectroscopy      #
                  #               Directorship: Frank Neese             #
                  #        Max Planck Institute fuer Kohlenforschung    #
                  #                Kaiser Wilhelm Platz 1               #
                  #                 D-45470 Muelheim/Ruhr               #
                  #                      Germany                        #
                  #                                                     #
                  #                  All rights reserved                #
                  #                        -***-                        #
                  #######################################################


                         Program Version 4.2.0 -  RELEASE  -


 With contributions from (in alphabetic order):
   Daniel Aravena         : Magnetic Suceptibility
   Michael Atanasov       : Ab Initio Ligand Field Theory (pilot matlab implementation)
   Alexander A. Auer      : GIAO ZORA, VPT2
   Ute Becker             : Parallelization
   Giovanni Bistoni       : ED, misc. LED, open-shell LED, HFLED
   Martin Brehm           : Molecular dynamics
   Dmytro Bykov           : SCF Hessian
   Vijay G. Chilkuri      : MRCI spin determinant printing, contributions to CSF-ICE
   Dipayan Datta          : RHF DLPNO-CCSD density
   Achintya Kumar Dutta   : EOM-CC, STEOM-CC
   Dmitry Ganyushin       : Spin-Orbit,Spin-Spin,Magnetic field MRCI
   Miquel Garcia          : C-PCM Hessian, Gaussian charge scheme
   Yang Guo               : DLPNO-NEVPT2, CIM, IAO-localization
   Andreas Hansen         : Spin unrestricted coupled pair/coupled cluster methods
   Benjamin Helmich-Paris : CASSCF linear response (MC-RPA)
   Lee Huntington         : MR-EOM, pCC
   Robert Izsak           : Overlap fitted RIJCOSX, COSX-SCS-MP3, EOM
   Christian Kollmar      : KDIIS, OOCD, Brueckner-CCSD(T), CCSD density
   Simone Kossmann        : Meta GGA functionals, TD-DFT gradient, OOMP2, MP2 Hessian
   Martin Krupicka        : AUTO-CI
   Lucas Lang             : DCDCAS
   Dagmar Lenk            : GEPOL surface, SMD
   Dimitrios Liakos       : Extrapolation schemes; Compound Job, initial MDCI parallelization
   Dimitrios Manganas     : Further ROCIS development; embedding schemes
   Dimitrios Pantazis     : SARC Basis sets
   Taras Petrenko         : DFT Hessian,TD-DFT gradient, ASA, ECA, R-Raman, ABS, FL, XAS/XES, NRVS
   Peter Pinski           : DLPNO-MP2, DLPNO-MP2 Gradient
   Christoph Reimann      : Effective Core Potentials
   Marius Retegan         : Local ZFS, SOC
   Christoph Riplinger    : Optimizer, TS searches, QM/MM, DLPNO-CCSD(T), (RO)-DLPNO pert. Triples
   Tobias Risthaus        : Range-separated hybrids, TD-DFT gradient, RPA, STAB
   Michael Roemelt        : Original ROCIS implementation
   Masaaki Saitow         : Open-shell DLPNO-CCSD energy and density
   Barbara Sandhoefer     : DKH picture change effects
   Avijit Sen             : IP-ROCIS
   Kantharuban Sivalingam : CASSCF convergence, NEVPT2, FIC-MRCI
   Bernardo de Souza      : ESD, SOC TD-DFT
   Georgi Stoychev        : AutoAux, RI-MP2 NMR
   Willem Van den Heuvel  : Paramagnetic NMR
   Boris Wezisla          : Elementary symmetry handling
   Frank Wennmohs         : Technical directorship


 We gratefully acknowledge several colleagues who have allowed us to
 interface, adapt or use parts of their codes:
   Stefan Grimme, W. Hujo, H. Kruse,             : VdW corrections, initial TS optimization,
                  C. Bannwarth                     DFT functionals, gCP, sTDA/sTD-DF
   Ed Valeev, F. Pavosevic, A. Kumar             : LibInt (2-el integral package), F12 methods
   Garnet Chan, S. Sharma, J. Yang, R. Olivares  : DMRG
   Ulf Ekstrom                                   : XCFun DFT Library
   Mihaly Kallay                                 : mrcc  (arbitrary order and MRCC methods)
   Andreas Klamt, Michael Diedenhofen            : otool_cosmo (COSMO solvation model)
   Jiri Pittner, Ondrej Demel                    : Mk-CCSD
   Frank Weinhold                                : gennbo (NPA and NBO analysis)
   Christopher J. Cramer and Donald G. Truhlar   : smd solvation model
   Lars Goerigk                                  : TD-DFT with DH, B97 family of functionals
   V. Asgeirsson, H. Jonsson                     : NEB implementation
   FAccTs GmbH                                   : IRC, NEB, NEB-TS, Multilevel, MM, QM/MM, CI optimization
   S Lehtola, MJT Oliveira, MAL Marques          : LibXC Library


 Your calculation uses the libint2 library for the computation of 2-el integrals
 For citations please refer to: http://libint.valeyev.net

 Your ORCA version has been built with support for libXC version: 4.2.3
 For citations please refer to: https://tddft.org/programs/libxc/

 This ORCA versions uses:
   CBLAS   interface :  Fast vector & matrix operations
   LAPACKE interface :  Fast linear algebra routines
   SCALAPACK package :  Parallel linear algebra routines


----- Orbital basis set information -----
Your calculation utilizes the basis: def2-SVP
   F. Weigend and R. Ahlrichs, Phys. Chem. Chem. Phys. 7, 3297 (2005).

----- AuxJ basis set information -----
Your calculation utilizes the auxiliary basis: def2/J
   F. Weigend, Phys. Chem. Chem. Phys. 8, 1057 (2006).

================================================================================
                                        WARNINGS
                       Please study these warnings very carefully!
================================================================================


INFO   : the flag for use of LIBINT has been found!

================================================================================
                                       INPUT FILE
================================================================================
NAME = 78_Pt_atom78.inp
|  1> # input to generate an atomic fitting density for Pt
|  2> # this file is use internally by ORCA
|  3> #
|  4> # atomic ground state (S=3): 1s2 2s2 2p6 3s2 3p6 4s2 3d10 4p6 5s2 4d10 5p6 6s2 4f14 5d8 
|  5> #
|  6> ! RHF AllowRHF def2-SVP def2/J  NoMulliken NoLoewdin NoMayer NoPrintMOs 
|  7> 
|  8> %output print[p_atomdensfit] 2 end
|  9> 
| 10> %scf
| 11>   guess hcore
| 12>   maxiter 1000
| 13>   maxdisk 500000
| 14>   SCFMode Conventional
| 15>   lshift 1.000000
| 16>   hftyp rohf
| 17>   rohf_case sahf
| 18>   rohf_numop   2
| 19>   rohf_norb[1] 5
| 20>   rohf_nel[1]  8
| 21> end
| 22> 
| 23> %basis
| 24>   NewECP 78
| 25>     N_core 60
| 26>     lmax f
| 27>     s 3
| 28>       1      13.4286513000    579.2238609000  2
| 29>       2       6.7143256000     29.6694906000  2
| 30>       3       3.3095686000    -24.3143757000  2
| 31>     p 3
| 32>       1      10.3659442000    280.8607742000  2
| 33>       2       5.1829721000     26.7453820000  2
| 34>       3       3.3095686000    -24.3143757000  2
| 35>     d 3
| 36>       1       7.6004795000    120.3964443000  2
| 37>       2       3.8002397000     15.8109206000  2
| 38>       3       3.3095686000    -24.3143757000  2
| 39>     f 1
| 40>       1       3.3095686000     24.3143757000  2
| 41>   end
| 42>   NewGTO 78
| 43>     s 2 
| 44>      1      16.5595630000     -1.4034868456
| 45>      2      13.8924400000      2.3840288102
| 46>     s 1 
| 47>      1       5.8531044732      1.0000000000
| 48>     s 1 
| 49>      1       1.2498640609      1.0000000000
| 50>     s 1 
| 51>      1       0.5560643946      1.0000000000
| 52>     s 1 
| 53>      1       0.1379309381      1.0000000000
| 54>     s 1 
| 55>      1       0.0489890341      1.0000000000
| 56>     p 4 
| 57>      1       8.1000000000      0.7892094612
| 58>      2       7.2000000000     -1.0324576713
| 59>      3       1.5588402917      0.6181267861
| 60>      4       0.7323040218      0.5355635830
| 61>     p 1 
| 62>      1       0.3027048467      1.0000000000
| 63>     p 1 
| 64>      1       0.0500000000      1.0000000000
| 65>     d 4 
| 66>      1       4.6299536825     -0.0961222016
| 67>      2       2.1980241252      0.2317061738
| 68>      3       0.9362999126      0.5095943996
| 69>      4       0.3716002816      0.4504073694
| 70>     d 1 
| 71>      1       0.1315592862      1.0000000000
| 72>   end
| 73>   NewAuxGTO 78
| 74>     S 1
| 75>      1 1310.72 1.0
| 76>     S 1
| 77>      1  655.36 1.0
| 78>     S 1
| 79>      1  327.68 1.0
| 80>     S 1
| 81>      1  163.84 1.0
| 82>     S 1
| 83>      1   81.82 1.0
| 84>     S 1
| 85>      1   40.96 1.0
| 86>     S 1
| 87>      1   20.48 1.0
| 88>     S 1
| 89>      1   10.24 1.0
| 90>     S 1
| 91>      1    5.12 1.0
| 92>     S 1
| 93>      1    2.56 1.0
| 94>     S 1
| 95>      1    1.28 1.0
| 96>     S 1
| 97>      1    0.64 1.0
| 98>     S 1
| 99>      1    0.32 1.0
|100>     S 1
|101>      1    0.16 1.0
|102>     S 1
|103>      1    0.08 1.0
|104>     S 1
|105>      1    0.04 1.0
|106>     S 1
|107>      1    0.02 1.0
|108>     S 1
|109>      1    0.01 1.0
|110>   end
|111> end
|112> 
|113> * xyz 0 3
|114> 78  0.0 0.0 0.0
|115> *
|116> 
|117> 
|118>                          ****END OF INPUT****
================================================================================

                       ****************************
                       * Single Point Calculation *
                       ****************************

---------------------------------
CARTESIAN COORDINATES (ANGSTROEM)
---------------------------------
  Pt     0.000000    0.000000    0.000000

----------------------------
CARTESIAN COORDINATES (A.U.)
----------------------------
  NO LB      ZA    FRAG     MASS         X           Y           Z
   0 Pt   18.0000*   0   195.090    0.000000    0.000000    0.000000
* core charge reduced due to ECP

--------------------------------
INTERNAL COORDINATES (ANGSTROEM)
--------------------------------
 Pt     0   0   0     0.000000000000     0.00000000     0.00000000

---------------------------
INTERNAL COORDINATES (A.U.)
---------------------------
 Pt     0   0   0     0.000000000000     0.00000000     0.00000000

---------------------
BASIS SET INFORMATION
---------------------
There are 1 groups of distinct atoms

 Group   1 Type Pt  : 7s6p5d contracted to 6s3p2d pattern {211111/411/41}

Atom   0Pt   basis set group =>   1
---------------------------------
AUXILIARY/J BASIS SET INFORMATION
---------------------------------
There are 1 groups of distinct atoms

 Group   1 Type Pt  : 18s contracted to 18s pattern {111111111111111111}

Atom   0Pt   basis set group =>   1
-------------------------
ECP PARAMETER INFORMATION
-------------------------

 Group 1, Type Pt ECP (replacing 60 core electrons, lmax=3)

Atom   0Pt   ECP group =>   1

------------------------------------------------------------------------------
                           ORCA GTO INTEGRAL CALCULATION
------------------------------------------------------------------------------

                         BASIS SET STATISTICS AND STARTUP INFO

 # of primitive gaussian shells          ...   18
 # of primitive gaussian functions       ...   50
 # of contracted shells                  ...   11
 # of contracted basis functions         ...   25
 Highest angular momentum                ...    2
 Maximum contraction depth               ...    4
 Integral package used                   ... LIBINT
 Integral threshhold            Thresh   ...  1.000e-10
 Primitive cut-off              TCut     ...  1.000e-11
 Storage cut-off                TCutStore... -1.000e+00
 Buffer length                           ... 1048576 integrals/buffer
 Generate file with integrals 4 distinct ...false


------------------------------ INTEGRAL EVALUATION ----------------------------


 * One electron integrals 

   ECP integrals                         ... done
 Pre-screening matrix                    ... done
 Shell pair data                         ... done (   0.000 sec)
 Statistics run                          ... done
 Maximum amount of storage needed        ...     0 MB
 Maximum amount of storage dedicated     ... 500000 MB
 Beginning two electron integral evaluation:
 Starting repulsion integrals
  <ss|ss>  ...          231 b.         0 skpd (  0.0%)     0.000 s. (  0.000 ms/b)
  <ss|sp>  ...          378 b.         0 skpd (  0.0%)     0.000 s. (  0.000 ms/b)
  <ss|sd>  ...          252 b.         0 skpd (  0.0%)     0.000 s. (  0.000 ms/b)
  <ss|pp>  ...          126 b.         0 skpd (  0.0%)     0.000 s. (  0.001 ms/b)
  <ss|pd>  ...          126 b.         0 skpd (  0.0%)     0.000 s. (  0.001 ms/b)
  <ss|dd>  ...           63 b.         0 skpd (  0.0%)     0.000 s. (  0.002 ms/b)
  <sp|sp>  ...          171 b.         0 skpd (  0.0%)     0.000 s. (  0.001 ms/b)
  <sp|sd>  ...          216 b.         0 skpd (  0.0%)     0.000 s. (  0.001 ms/b)
  <sp|pp>  ...          108 b.         0 skpd (  0.0%)     0.000 s. (  0.002 ms/b)
  <sp|pd>  ...          108 b.         0 skpd (  0.0%)     0.000 s. (  0.003 ms/b)
  <sp|dd>  ...           54 b.         0 skpd (  0.0%)     0.000 s. (  0.007 ms/b)
  <sd|sd>  ...           78 b.         0 skpd (  0.0%)     0.000 s. (  0.002 ms/b)
  <sd|pp>  ...           72 b.         0 skpd (  0.0%)     0.000 s. (  0.004 ms/b)
  <sd|pd>  ...           72 b.         0 skpd (  0.0%)     0.001 s. (  0.008 ms/b)
  <sd|dd>  ...           36 b.         0 skpd (  0.0%)     0.001 s. (  0.021 ms/b)
  <pp|pp>  ...           21 b.         0 skpd (  0.0%)     0.000 s. (  0.008 ms/b)
  <pp|pd>  ...           36 b.         0 skpd (  0.0%)     0.000 s. (  0.013 ms/b)
  <pp|dd>  ...           18 b.         0 skpd (  0.0%)     0.001 s. (  0.033 ms/b)
  <pd|pd>  ...           21 b.         0 skpd (  0.0%)     0.001 s. (  0.037 ms/b)
  <pd|dd>  ...           18 b.         0 skpd (  0.0%)     0.001 s. (  0.081 ms/b)
  <dd|dd>  ...            6 b.         0 skpd (  0.0%)     0.002 s. (  0.276 ms/b)


                                      INTEGRAL STATISTICS

Integral type statistics:
 Number of integrals retained            ...      52975 
 One   Center Integrals retained         ...      52975 (100.0%)
 Two   Center Integrals retained         ...          0 (  0.0%)
 Three Center Integrals retained         ...          0 (  0.0%)
 Four  Center Integrals retained         ...          0 (  0.0%)

Storage statistics:
 Number of char integrals                ...          0 (  0.0%)
 Number of short int integrals           ...          0 (  0.0%)
 Number of double/float integrals        ...      52975 (100.0%)
 Amount of memory used                   ...          0 MB
 Amount of memory estimated              ...          0 MB ( 92.8%)

Prescreening statistics:
 Total number of shell quadruples        ...       2211 
 Number of skipped shell quadruples      ...          0 (  0.0%)
 # of negligible batches done            ...          0 (  0.0%)

Timings:
 Total evaluation time               ...     0.170 sec (   0.003 min)
 One electron matrix time            ...     0.014 sec (   0.000 min) =  8.1%
 Schwartz matrix evaluation time     ...     0.070 sec (   0.001 min) = 41.6%
 Statistics run                      ...     0.000 sec (   0.000 min) =  0.3%
 Repulsion integral time             ...     0.009 sec (   0.000 min) =  5.2%

-------------------------------------------------------------------------------
                                 ORCA SCF
-------------------------------------------------------------------------------

------------
SCF SETTINGS
------------
Hamiltonian:
 Ab initio Hamiltonian  Method          .... Hartree-Fock(GTOs)


General Settings:
 Integral files         IntName         .... 78_Pt_atom78
 Hartree-Fock type      HFTyp           .... ROHF
 Total Charge           Charge          ....    0
 Multiplicity           Mult            ....    3
 Number of Electrons    NEL             ....   18
 Basis Dimension        Dim             ....   25
 Nuclear Repulsion      ENuc            ....      0.0000000000 Eh

Convergence Acceleration:
 DIIS                   CNVDIIS         .... on
   Start iteration      DIISMaxIt       ....    12
   Startup error        DIISStart       ....  0.200000
   # of expansion vecs  DIISMaxEq       ....     5
   Bias factor          DIISBfac        ....   1.050
   Max. coefficient     DIISMaxC        ....  10.000
 Newton-Raphson         CNVNR           .... off
 SOSCF                  CNVSOSCF        .... off
 Level Shifting         CNVShift        .... on
   Level shift para.    LevelShift      ....    1.0000
   Turn off err/grad.   ShiftErr        ....    0.0010
 Zerner damping         CNVZerner       .... off
 Static damping         CNVDamp         .... on
   Fraction old density DampFac         ....    0.7000
   Max. Damping (<1)    DampMax         ....    0.9800
   Min. Damping (>=0)   DampMin         ....    0.0000
   Turn off err/grad.   DampErr         ....    0.1000
 Fernandez-Rico         CNVRico         .... off

SCF Procedure:
 Maximum # iterations   MaxIter         ....  1000
 SCF integral mode      SCFMode         .... Conventional
 Integral Threshold     Thresh          ....  1.000e-10 Eh
 Primitive CutOff       TCut            ....  1.000e-11 Eh
 Integral Buffer length BufferLength    .... 1048576
 Integral index format  IndFormat       ....     0
 Integral value format  ValFormat       ....     0
 Integral Storage       Thresh          ....  1.000e-10 Eh

Convergence Tolerance:
 Convergence Check Mode ConvCheckMode   .... Total+1el-Energy
 Convergence forced     ConvForced      .... 0
 Energy Change          TolE            ....  1.000e-06 Eh
 1-El. energy change                    ....  1.000e-03 Eh
 DIIS Error             TolErr          ....  1.000e-06


Diagonalization of the overlap matrix:
Smallest eigenvalue                        ... 1.604e-02
Time for diagonalization                   ...    0.000 sec
Threshold for overlap eigenvalues          ... 1.000e-08
Number of eigenvalues below threshold      ... 0
Time for construction of square roots      ...    0.002 sec
Total time needed                          ...    0.002 sec

--------------------
INITIAL GUESS: HCORE
--------------------
AVERAGE-CONFIGURATION (SAHF) CASE FOUND

-------------------
FINAL ROHF SETTINGS
-------------------
Number of operators             ... 2
  operator   0:   5 orbitals  10 electrons n(mue)= 2.000
  operator   1:   5 orbitals   8 electrons n(mue)= 1.600
Vector coupling coefficients a and b (Zerner convention):
   1.000    1.000           1.000    1.000 
   1.000    0.977           1.000    1.016 

                      -----------------
                      INTIAL GUESS DONE 
                      -----------------

 InCore treatment chosen:
   Memory dedicated               ...    1024 MB
   Memory needed                  ...      0 MB
   Number of tiny    integrals    ...       0
   Number of small   integrals    ...       0
   Number of regular integrals    ...   52975

--------------
SCF ITERATIONS
--------------
ITER       Energy         Delta-E        Max-DP      RMS-DP      [F,P]     Damp
  0   -114.4529240827   0.000000000000 2.00531377  0.10018879  0.8485978 0.7000
  1   -116.4762828862  -2.023358803529 1.69206869  0.08319127  0.4504311 0.7000
  2   -117.2679741579  -0.791691271726 1.28749638  0.06159662  0.2112858 0.7000
                            ****Activating DIIS****
  3   -117.6540169064  -0.386042748525 3.13907517  0.14715128  0.0963580 0.0000
  4   -118.3076132791  -0.653596372616 0.10083196  0.00689851  0.0728204 0.0000
  5   -118.3372912276  -0.029677948492 0.05200085  0.00297417  0.0573261 0.0000
  6   -118.3457723570  -0.008481129395 0.11384744  0.00614442  0.0477609 0.0000
  7   -118.3564087264  -0.010636369439 0.12280828  0.00540350  0.0283057 0.0000
  8   -118.3610594124  -0.004650686039 0.05565933  0.00217249  0.0135913 0.0000
  9   -118.3618460098  -0.000786597345 0.01773454  0.00097229  0.0097864 0.0000
 10   -118.3620277694  -0.000181759653 0.01037523  0.00049091  0.0035853 0.0000
 11   -118.3620968166  -0.000069047159 0.00686269  0.00036067  0.0022252 0.0000
 12   -118.3621332807  -0.000036464145 0.00762061  0.00030023  0.0012705 0.0000
 13   -118.3621469929  -0.000013712188 0.00412596  0.00016183  0.0006481 0.0000
 14   -118.3621499189  -0.000002926005 0.00217906  0.00008386  0.0003584 0.0000
                 **** Energy Check signals convergence ****

               *****************************************************
               *                     SUCCESS                       *
               *           SCF CONVERGED AFTER  15 CYCLES          *
               *****************************************************


----------------
TOTAL SCF ENERGY
----------------

Total Energy       :         -118.36215062 Eh           -3220.79786 eV

Components:
Nuclear Repulsion  :            0.00000000 Eh               0.00000 eV
Electronic Energy  :         -118.36215062 Eh           -3220.79786 eV
One Electron Energy:         -207.69732693 Eh           -5651.73159 eV
Two Electron Energy:           89.33517631 Eh            2430.93373 eV

Virial components:
Potential Energy   :         -158.66652504 Eh           -4317.53565 eV
Kinetic Energy     :           40.30437442 Eh            1096.73779 eV
Virial Ratio       :            3.93670730


---------------
SCF CONVERGENCE
---------------

  Last Energy change         ...   -7.0228e-07  Tolerance :   1.0000e-06
  Last MAX-Density change    ...    9.8839e-04  Tolerance :   1.0000e-05
  Last RMS-Density change    ...    3.7407e-05  Tolerance :   1.0000e-06
  Last DIIS Error            ...    1.9949e-04  Tolerance :   1.0000e-06

             **** THE GBW FILE WAS UPDATED (78_Pt_atom78.gbw) ****
             **** DENSITY FILE WAS UPDATED (78_Pt_atom78.scfp) ****
             **** ENERGY FILE WAS UPDATED (78_Pt_atom78.en.tmp) ****
             **** THE GBW FILE WAS UPDATED (78_Pt_atom78.gbw) ****
             **** DENSITY FILE WAS UPDATED (78_Pt_atom78.scfp) ****
----------------
ORBITAL ENERGIES
----------------

  NO   OCC          E(Eh)            E(eV) 
   0   2.0000      -4.507800      -122.6635 
   1   2.0000      -2.600447       -70.7618 
   2   2.0000      -2.596459       -70.6533 
   3   2.0000      -2.594868       -70.6100 
   4   2.0000      -0.459494       -12.5035 
   5   1.6000      -0.477704       -12.9990 
   6   1.6000      -0.475337       -12.9346 
   7   1.6000      -0.471423       -12.8281 
   8   1.6000      -0.461553       -12.5595 
   9   1.6000      -0.307627        -8.3709 
  10   0.0000       0.023273         0.6333 
  11   0.0000       0.025623         0.6972 
  12   0.0000       0.026557         0.7227 
  13   0.0000       0.186300         5.0695 
  14   0.0000       0.417116        11.3503 
  15   0.0000       0.417891        11.3714 
  16   0.0000       0.419292        11.4095 
  17   0.0000       0.419242        11.4082 
  18   0.0000       0.422637        11.5005 
  19   0.0000       0.851665        23.1750 
  20   0.0000       0.859852        23.3978 
  21   0.0000       0.863105        23.4863 
  22   0.0000       2.038820        55.4791 
  23   0.0000      50.798709      1382.3032 
  24   0.0000     282.393782      7684.3255 
CleanUpVectors: The p-vectors have cracked symmetry
CleanUpVectors: The p-vectors have cracked symmetry
CleanUpVectors: The p-vectors have cracked symmetry
CleanUpVectors: The d-vectors have cracked symmetry at i=4
CleanUpVectors: The d-vectors have cracked symmetry at i=5
CleanUpVectors: The d-vectors have cracked symmetry at i=6
CleanUpVectors: The d-vectors have cracked symmetry at i=7
CleanUpVectors: The d-vectors have cracked symmetry at i=8
CleanUpVectors: The p-vectors have cracked symmetry
CleanUpVectors: The p-vectors have cracked symmetry
CleanUpVectors: The p-vectors have cracked symmetry
CleanUpVectors: The d-vectors have cracked symmetry at i=14
CleanUpVectors: The d-vectors have cracked symmetry at i=15
CleanUpVectors: The d-vectors have cracked symmetry at i=16
CleanUpVectors: The d-vectors have cracked symmetry at i=17
CleanUpVectors: The d-vectors have cracked symmetry at i=18
CleanUpVectors: The p-vectors have cracked symmetry
CleanUpVectors: The p-vectors have cracked symmetry
CleanUpVectors: The p-vectors have cracked symmetry
--------------------------
ATOM BASIS FOR ELEMENT Pt
--------------------------
 NewGTO Pt
 S 7
    1         16.559563000000        -0.539776873880
    2         13.892440000000         0.916890402246
    3          5.853104473200        -0.950986436287
    4          1.249864060900         0.996325913568
    5          0.556064394600         0.346049456308
    6          0.137930938100         0.009539876410
    7          0.048989034100         0.001187225135
 P 18
    1          8.100000000000        -0.641066692393
    2          7.200000000000         0.838654700578
    3          1.558840291700        -0.502098002781
    4          0.732304021800        -0.435032765823
    5          8.100000000000        -0.330870018109
    6          7.200000000000         0.432849965940
    7          1.558840291700        -0.259144917751
    8          0.732304021800        -0.224530927615
    9          8.100000000000        -0.135276001816
   10          7.200000000000         0.176970440275
   11          1.558840291700        -0.105951238993
   12          0.732304021800        -0.091799330581
   13          0.302704846700        -0.086373874497
   14          0.302704846700        -0.044579644767
   15          0.302704846700        -0.018226360131
   16          0.050000000000        -0.001134402805
   17          0.050000000000        -0.000585492713
   18          0.050000000000        -0.000239378333
 D 18
    1         16.559563000000         0.000010625073
    2         13.892440000000        -0.000021513220
    3          5.853104473200         0.000055724723
    4          1.249864060900        -0.000512351692
    5          0.556064394600         0.000642726593
    6          0.137930938100         0.002718157699
    7          0.048989034100        -0.014645039972
    8          4.629953682500        -0.020580184882
    9          2.198024125200         0.049609307899
   10          0.936299912600         0.109106395651
   11          0.371600281600         0.096434192936
   12          4.629953682500         0.027418156524
   13          2.198024125200        -0.066092495126
   14          0.936299912600        -0.145358083557
   15          0.371600281600        -0.128475415129
   16          4.629953682500        -0.022193573498
   17          2.198024125200         0.053498441697
   18          0.936299912600         0.117659818162
 S 7
    1         16.559563000000        -3.572708515719
    2         13.892440000000         6.068770832177
    3          5.853104473200        -3.869609182945
    4          1.249864060900         2.006249594229
    5          0.556064394600        -1.319559730101
    6          0.137930938100         0.437647282400
    7          0.048989034100        -0.161894219093
 S 7
    1         16.559563000000        -3.207733796350
    2         13.892440000000         5.448807596541
    3          5.853104473200        -1.718167816474
    4          1.249864060900         0.663281883080
    5          0.556064394600        -0.424496486490
    6          0.137930938100         0.140249107568
    7          0.048989034100        -0.052017363287
 D 18
    1          4.629953682500         0.060661597133
    2          2.198024125200        -0.146227056126
    3          0.936299912600        -0.321599065099
    4          0.371600281600        -0.284246822623
    5          4.629953682500        -0.051608351601
    6          2.198024125200         0.124403868061
    7          0.936299912600         0.273603043944
    8          0.371600281600         0.241825317114
    9          4.629953682500         0.011858799026
   10          2.198024125200        -0.028586080037
   11          0.936299912600        -0.062869737368
   12          0.371600281600        -0.055567708446
   13          4.629953682500        -0.036908785979
   14          2.198024125200         0.088970013550
   15          0.936299912600         0.195672907174
   16          0.371600281600         0.172946404929
   17          4.629953682500        -0.012398406848
   18          2.198024125200         0.029886824938
 P 18
    1          8.100000000000         0.026481895065
    2          7.200000000000        -0.034644080000
    3          1.558840291700         0.020741222060
    4          0.732304021800         0.017970816751
    5          8.100000000000         0.004549016479
    6          7.200000000000        -0.005951103213
    7          1.558840291700         0.003562893090
    8          0.732304021800         0.003086997412
    9          8.100000000000        -0.136622858408
   10          7.200000000000         0.178732421712
   11          1.558840291700        -0.107006127685
   12          0.732304021800        -0.092713317777
   13          0.302704846700        -0.003312801355
   14          0.302704846700        -0.000569067581
   15          0.302704846700         0.017091087679
   16          0.050000000000        -0.190605007168
   17          0.050000000000        -0.032741815358
   18          0.050000000000         0.983351109974
 D 18
    1         16.559563000000         0.000015578153
    2         13.892440000000        -0.000031542018
    3          5.853104473200         0.000082261819
    4          1.249864060900        -0.000790655813
    5          0.556064394600         0.000924837210
    6          0.137930938100         0.001137359933
    7          0.048989034100         0.006064312791
    8          4.629953682500        -0.013438677416
    9          2.198024125200         0.032394436177
   10          0.936299912600         0.071245504526
   11          0.371600281600         0.062970669027
   12          4.629953682500         0.017151362415
   13          2.198024125200        -0.041344002682
   14          0.936299912600        -0.090928402459
   15          0.371600281600        -0.080367489493
   16          4.629953682500        -0.014289006646
   17          2.198024125200         0.034444186693
   18          0.936299912600         0.075753547476
 P 18
    1          8.100000000000         0.154025042020
    2          7.200000000000        -0.201498263799
    3          1.558840291700         0.120635913383
    4          0.732304021800         0.104522572817
    5          8.100000000000         0.026458168971
    6          7.200000000000        -0.034613041107
    7          1.558840291700         0.020722639244
    8          0.732304021800         0.017954716042
    9          8.100000000000        -0.794631254893
   10          7.200000000000         1.039550556986
   11          1.558840291700        -0.622373258139
   12          0.732304021800        -0.539242853712
   13          0.302704846700        -0.287303887378
   14          0.302704846700        -0.049352590323
   15          0.302704846700         1.482230717609
   16          0.050000000000         0.095717687414
   17          0.050000000000         0.016442227276
   18          0.050000000000        -0.493817531670
 end
  // -----------------------------------------------
  // The basis set
  // -----------------------------------------------
  BAS[ATNO] = new BFNGauss[NSH];
  // Basis function   1 L = s
  InitBFNGauss(BAS[ATNO][  0]);
  BAS[ATNO][  0].l  = 0;
  BAS[ATNO][  0].ng = 7;
  BAS[ATNO][  0].a[  0] =        16.559563000000;     BAS[ATNO][  0].d[  0] =        -0.539776873880;
  BAS[ATNO][  0].a[  1] =        13.892440000000;     BAS[ATNO][  0].d[  1] =         0.916890402246;
  BAS[ATNO][  0].a[  2] =         5.853104473200;     BAS[ATNO][  0].d[  2] =        -0.950986436287;
  BAS[ATNO][  0].a[  3] =         1.249864060900;     BAS[ATNO][  0].d[  3] =         0.996325913568;
  BAS[ATNO][  0].a[  4] =         0.556064394600;     BAS[ATNO][  0].d[  4] =         0.346049456308;
  BAS[ATNO][  0].a[  5] =         0.137930938100;     BAS[ATNO][  0].d[  5] =         0.009539876410;
  BAS[ATNO][  0].a[  6] =         0.048989034100;     BAS[ATNO][  0].d[  6] =         0.001187225135;

  // Basis function   2 L = p
  InitBFNGauss(BAS[ATNO][  1]);
  BAS[ATNO][  1].l  = 1;
  BAS[ATNO][  1].ng = 18;
  BAS[ATNO][  1].a[  0] =         8.100000000000;     BAS[ATNO][  1].d[  0] =        -0.641066692393;
  BAS[ATNO][  1].a[  1] =         7.200000000000;     BAS[ATNO][  1].d[  1] =         0.838654700578;
  BAS[ATNO][  1].a[  2] =         1.558840291700;     BAS[ATNO][  1].d[  2] =        -0.502098002781;
  BAS[ATNO][  1].a[  3] =         0.732304021800;     BAS[ATNO][  1].d[  3] =        -0.435032765823;
  BAS[ATNO][  1].a[  4] =         8.100000000000;     BAS[ATNO][  1].d[  4] =        -0.330870018109;
  BAS[ATNO][  1].a[  5] =         7.200000000000;     BAS[ATNO][  1].d[  5] =         0.432849965940;
  BAS[ATNO][  1].a[  6] =         1.558840291700;     BAS[ATNO][  1].d[  6] =        -0.259144917751;
  BAS[ATNO][  1].a[  7] =         0.732304021800;     BAS[ATNO][  1].d[  7] =        -0.224530927615;
  BAS[ATNO][  1].a[  8] =         8.100000000000;     BAS[ATNO][  1].d[  8] =        -0.135276001816;
  BAS[ATNO][  1].a[  9] =         7.200000000000;     BAS[ATNO][  1].d[  9] =         0.176970440275;
  BAS[ATNO][  1].a[ 10] =         1.558840291700;     BAS[ATNO][  1].d[ 10] =        -0.105951238993;
  BAS[ATNO][  1].a[ 11] =         0.732304021800;     BAS[ATNO][  1].d[ 11] =        -0.091799330581;
  BAS[ATNO][  1].a[ 12] =         0.302704846700;     BAS[ATNO][  1].d[ 12] =        -0.086373874497;
  BAS[ATNO][  1].a[ 13] =         0.302704846700;     BAS[ATNO][  1].d[ 13] =        -0.044579644767;
  BAS[ATNO][  1].a[ 14] =         0.302704846700;     BAS[ATNO][  1].d[ 14] =        -0.018226360131;
  BAS[ATNO][  1].a[ 15] =         0.050000000000;     BAS[ATNO][  1].d[ 15] =        -0.001134402805;
  BAS[ATNO][  1].a[ 16] =         0.050000000000;     BAS[ATNO][  1].d[ 16] =        -0.000585492713;
  BAS[ATNO][  1].a[ 17] =         0.050000000000;     BAS[ATNO][  1].d[ 17] =        -0.000239378333;

  // Basis function   3 L = d
  InitBFNGauss(BAS[ATNO][  2]);
  BAS[ATNO][  2].l  = 2;
  BAS[ATNO][  2].ng = 18;
  BAS[ATNO][  2].a[  0] =        16.559563000000;     BAS[ATNO][  2].d[  0] =        -0.000010625073;
  BAS[ATNO][  2].a[  1] =        13.892440000000;     BAS[ATNO][  2].d[  1] =         0.000021513220;
  BAS[ATNO][  2].a[  2] =         5.853104473200;     BAS[ATNO][  2].d[  2] =        -0.000055724723;
  BAS[ATNO][  2].a[  3] =         1.249864060900;     BAS[ATNO][  2].d[  3] =         0.000512351692;
  BAS[ATNO][  2].a[  4] =         0.556064394600;     BAS[ATNO][  2].d[  4] =        -0.000642726593;
  BAS[ATNO][  2].a[  5] =         0.137930938100;     BAS[ATNO][  2].d[  5] =        -0.002718157699;
  BAS[ATNO][  2].a[  6] =         0.048989034100;     BAS[ATNO][  2].d[  6] =         0.014645039972;
  BAS[ATNO][  2].a[  7] =         4.629953682500;     BAS[ATNO][  2].d[  7] =         0.020580184882;
  BAS[ATNO][  2].a[  8] =         2.198024125200;     BAS[ATNO][  2].d[  8] =        -0.049609307899;
  BAS[ATNO][  2].a[  9] =         0.936299912600;     BAS[ATNO][  2].d[  9] =        -0.109106395651;
  BAS[ATNO][  2].a[ 10] =         0.371600281600;     BAS[ATNO][  2].d[ 10] =        -0.096434192936;
  BAS[ATNO][  2].a[ 11] =         4.629953682500;     BAS[ATNO][  2].d[ 11] =        -0.027418156524;
  BAS[ATNO][  2].a[ 12] =         2.198024125200;     BAS[ATNO][  2].d[ 12] =         0.066092495126;
  BAS[ATNO][  2].a[ 13] =         0.936299912600;     BAS[ATNO][  2].d[ 13] =         0.145358083557;
  BAS[ATNO][  2].a[ 14] =         0.371600281600;     BAS[ATNO][  2].d[ 14] =         0.128475415129;
  BAS[ATNO][  2].a[ 15] =         4.629953682500;     BAS[ATNO][  2].d[ 15] =         0.022193573498;
  BAS[ATNO][  2].a[ 16] =         2.198024125200;     BAS[ATNO][  2].d[ 16] =        -0.053498441697;
  BAS[ATNO][  2].a[ 17] =         0.936299912600;     BAS[ATNO][  2].d[ 17] =        -0.117659818162;

  // Basis function   4 L = s
  InitBFNGauss(BAS[ATNO][  3]);
  BAS[ATNO][  3].l  = 0;
  BAS[ATNO][  3].ng = 7;
  BAS[ATNO][  3].a[  0] =        16.559563000000;     BAS[ATNO][  3].d[  0] =        -3.572708515719;
  BAS[ATNO][  3].a[  1] =        13.892440000000;     BAS[ATNO][  3].d[  1] =         6.068770832177;
  BAS[ATNO][  3].a[  2] =         5.853104473200;     BAS[ATNO][  3].d[  2] =        -3.869609182945;
  BAS[ATNO][  3].a[  3] =         1.249864060900;     BAS[ATNO][  3].d[  3] =         2.006249594229;
  BAS[ATNO][  3].a[  4] =         0.556064394600;     BAS[ATNO][  3].d[  4] =        -1.319559730101;
  BAS[ATNO][  3].a[  5] =         0.137930938100;     BAS[ATNO][  3].d[  5] =         0.437647282400;
  BAS[ATNO][  3].a[  6] =         0.048989034100;     BAS[ATNO][  3].d[  6] =        -0.161894219093;

  // Basis function   5 L = s
  InitBFNGauss(BAS[ATNO][  4]);
  BAS[ATNO][  4].l  = 0;
  BAS[ATNO][  4].ng = 7;
  BAS[ATNO][  4].a[  0] =        16.559563000000;     BAS[ATNO][  4].d[  0] =        -3.207733796350;
  BAS[ATNO][  4].a[  1] =        13.892440000000;     BAS[ATNO][  4].d[  1] =         5.448807596541;
  BAS[ATNO][  4].a[  2] =         5.853104473200;     BAS[ATNO][  4].d[  2] =        -1.718167816474;
  BAS[ATNO][  4].a[  3] =         1.249864060900;     BAS[ATNO][  4].d[  3] =         0.663281883080;
  BAS[ATNO][  4].a[  4] =         0.556064394600;     BAS[ATNO][  4].d[  4] =        -0.424496486490;
  BAS[ATNO][  4].a[  5] =         0.137930938100;     BAS[ATNO][  4].d[  5] =         0.140249107568;
  BAS[ATNO][  4].a[  6] =         0.048989034100;     BAS[ATNO][  4].d[  6] =        -0.052017363287;

  // Basis function   6 L = d
  InitBFNGauss(BAS[ATNO][  5]);
  BAS[ATNO][  5].l  = 2;
  BAS[ATNO][  5].ng = 18;
  BAS[ATNO][  5].a[  0] =         4.629953682500;     BAS[ATNO][  5].d[  0] =        -0.060661597133;
  BAS[ATNO][  5].a[  1] =         2.198024125200;     BAS[ATNO][  5].d[  1] =         0.146227056126;
  BAS[ATNO][  5].a[  2] =         0.936299912600;     BAS[ATNO][  5].d[  2] =         0.321599065099;
  BAS[ATNO][  5].a[  3] =         0.371600281600;     BAS[ATNO][  5].d[  3] =         0.284246822623;
  BAS[ATNO][  5].a[  4] =         4.629953682500;     BAS[ATNO][  5].d[  4] =         0.051608351601;
  BAS[ATNO][  5].a[  5] =         2.198024125200;     BAS[ATNO][  5].d[  5] =        -0.124403868061;
  BAS[ATNO][  5].a[  6] =         0.936299912600;     BAS[ATNO][  5].d[  6] =        -0.273603043944;
  BAS[ATNO][  5].a[  7] =         0.371600281600;     BAS[ATNO][  5].d[  7] =        -0.241825317114;
  BAS[ATNO][  5].a[  8] =         4.629953682500;     BAS[ATNO][  5].d[  8] =        -0.011858799026;
  BAS[ATNO][  5].a[  9] =         2.198024125200;     BAS[ATNO][  5].d[  9] =         0.028586080037;
  BAS[ATNO][  5].a[ 10] =         0.936299912600;     BAS[ATNO][  5].d[ 10] =         0.062869737368;
  BAS[ATNO][  5].a[ 11] =         0.371600281600;     BAS[ATNO][  5].d[ 11] =         0.055567708446;
  BAS[ATNO][  5].a[ 12] =         4.629953682500;     BAS[ATNO][  5].d[ 12] =         0.036908785979;
  BAS[ATNO][  5].a[ 13] =         2.198024125200;     BAS[ATNO][  5].d[ 13] =        -0.088970013550;
  BAS[ATNO][  5].a[ 14] =         0.936299912600;     BAS[ATNO][  5].d[ 14] =        -0.195672907174;
  BAS[ATNO][  5].a[ 15] =         0.371600281600;     BAS[ATNO][  5].d[ 15] =        -0.172946404929;
  BAS[ATNO][  5].a[ 16] =         4.629953682500;     BAS[ATNO][  5].d[ 16] =         0.012398406848;
  BAS[ATNO][  5].a[ 17] =         2.198024125200;     BAS[ATNO][  5].d[ 17] =        -0.029886824938;

  // Basis function   7 L = p
  InitBFNGauss(BAS[ATNO][  6]);
  BAS[ATNO][  6].l  = 1;
  BAS[ATNO][  6].ng = 18;
  BAS[ATNO][  6].a[  0] =         8.100000000000;     BAS[ATNO][  6].d[  0] =         0.026481895065;
  BAS[ATNO][  6].a[  1] =         7.200000000000;     BAS[ATNO][  6].d[  1] =        -0.034644080000;
  BAS[ATNO][  6].a[  2] =         1.558840291700;     BAS[ATNO][  6].d[  2] =         0.020741222060;
  BAS[ATNO][  6].a[  3] =         0.732304021800;     BAS[ATNO][  6].d[  3] =         0.017970816751;
  BAS[ATNO][  6].a[  4] =         8.100000000000;     BAS[ATNO][  6].d[  4] =         0.004549016479;
  BAS[ATNO][  6].a[  5] =         7.200000000000;     BAS[ATNO][  6].d[  5] =        -0.005951103213;
  BAS[ATNO][  6].a[  6] =         1.558840291700;     BAS[ATNO][  6].d[  6] =         0.003562893090;
  BAS[ATNO][  6].a[  7] =         0.732304021800;     BAS[ATNO][  6].d[  7] =         0.003086997412;
  BAS[ATNO][  6].a[  8] =         8.100000000000;     BAS[ATNO][  6].d[  8] =        -0.136622858408;
  BAS[ATNO][  6].a[  9] =         7.200000000000;     BAS[ATNO][  6].d[  9] =         0.178732421712;
  BAS[ATNO][  6].a[ 10] =         1.558840291700;     BAS[ATNO][  6].d[ 10] =        -0.107006127685;
  BAS[ATNO][  6].a[ 11] =         0.732304021800;     BAS[ATNO][  6].d[ 11] =        -0.092713317777;
  BAS[ATNO][  6].a[ 12] =         0.302704846700;     BAS[ATNO][  6].d[ 12] =        -0.003312801355;
  BAS[ATNO][  6].a[ 13] =         0.302704846700;     BAS[ATNO][  6].d[ 13] =        -0.000569067581;
  BAS[ATNO][  6].a[ 14] =         0.302704846700;     BAS[ATNO][  6].d[ 14] =         0.017091087679;
  BAS[ATNO][  6].a[ 15] =         0.050000000000;     BAS[ATNO][  6].d[ 15] =        -0.190605007168;
  BAS[ATNO][  6].a[ 16] =         0.050000000000;     BAS[ATNO][  6].d[ 16] =        -0.032741815358;
  BAS[ATNO][  6].a[ 17] =         0.050000000000;     BAS[ATNO][  6].d[ 17] =         0.983351109974;

  // Basis function   8 L = d
  InitBFNGauss(BAS[ATNO][  7]);
  BAS[ATNO][  7].l  = 2;
  BAS[ATNO][  7].ng = 18;
  BAS[ATNO][  7].a[  0] =        16.559563000000;     BAS[ATNO][  7].d[  0] =        -0.000015578153;
  BAS[ATNO][  7].a[  1] =        13.892440000000;     BAS[ATNO][  7].d[  1] =         0.000031542018;
  BAS[ATNO][  7].a[  2] =         5.853104473200;     BAS[ATNO][  7].d[  2] =        -0.000082261819;
  BAS[ATNO][  7].a[  3] =         1.249864060900;     BAS[ATNO][  7].d[  3] =         0.000790655813;
  BAS[ATNO][  7].a[  4] =         0.556064394600;     BAS[ATNO][  7].d[  4] =        -0.000924837210;
  BAS[ATNO][  7].a[  5] =         0.137930938100;     BAS[ATNO][  7].d[  5] =        -0.001137359933;
  BAS[ATNO][  7].a[  6] =         0.048989034100;     BAS[ATNO][  7].d[  6] =        -0.006064312791;
  BAS[ATNO][  7].a[  7] =         4.629953682500;     BAS[ATNO][  7].d[  7] =         0.013438677416;
  BAS[ATNO][  7].a[  8] =         2.198024125200;     BAS[ATNO][  7].d[  8] =        -0.032394436177;
  BAS[ATNO][  7].a[  9] =         0.936299912600;     BAS[ATNO][  7].d[  9] =        -0.071245504526;
  BAS[ATNO][  7].a[ 10] =         0.371600281600;     BAS[ATNO][  7].d[ 10] =        -0.062970669027;
  BAS[ATNO][  7].a[ 11] =         4.629953682500;     BAS[ATNO][  7].d[ 11] =        -0.017151362415;
  BAS[ATNO][  7].a[ 12] =         2.198024125200;     BAS[ATNO][  7].d[ 12] =         0.041344002682;
  BAS[ATNO][  7].a[ 13] =         0.936299912600;     BAS[ATNO][  7].d[ 13] =         0.090928402459;
  BAS[ATNO][  7].a[ 14] =         0.371600281600;     BAS[ATNO][  7].d[ 14] =         0.080367489493;
  BAS[ATNO][  7].a[ 15] =         4.629953682500;     BAS[ATNO][  7].d[ 15] =         0.014289006646;
  BAS[ATNO][  7].a[ 16] =         2.198024125200;     BAS[ATNO][  7].d[ 16] =        -0.034444186693;
  BAS[ATNO][  7].a[ 17] =         0.936299912600;     BAS[ATNO][  7].d[ 17] =        -0.075753547476;

  // Basis function   9 L = p
  InitBFNGauss(BAS[ATNO][  8]);
  BAS[ATNO][  8].l  = 1;
  BAS[ATNO][  8].ng = 18;
  BAS[ATNO][  8].a[  0] =         8.100000000000;     BAS[ATNO][  8].d[  0] =         0.154025042020;
  BAS[ATNO][  8].a[  1] =         7.200000000000;     BAS[ATNO][  8].d[  1] =        -0.201498263799;
  BAS[ATNO][  8].a[  2] =         1.558840291700;     BAS[ATNO][  8].d[  2] =         0.120635913383;
  BAS[ATNO][  8].a[  3] =         0.732304021800;     BAS[ATNO][  8].d[  3] =         0.104522572817;
  BAS[ATNO][  8].a[  4] =         8.100000000000;     BAS[ATNO][  8].d[  4] =         0.026458168971;
  BAS[ATNO][  8].a[  5] =         7.200000000000;     BAS[ATNO][  8].d[  5] =        -0.034613041107;
  BAS[ATNO][  8].a[  6] =         1.558840291700;     BAS[ATNO][  8].d[  6] =         0.020722639244;
  BAS[ATNO][  8].a[  7] =         0.732304021800;     BAS[ATNO][  8].d[  7] =         0.017954716042;
  BAS[ATNO][  8].a[  8] =         8.100000000000;     BAS[ATNO][  8].d[  8] =        -0.794631254893;
  BAS[ATNO][  8].a[  9] =         7.200000000000;     BAS[ATNO][  8].d[  9] =         1.039550556986;
  BAS[ATNO][  8].a[ 10] =         1.558840291700;     BAS[ATNO][  8].d[ 10] =        -0.622373258139;
  BAS[ATNO][  8].a[ 11] =         0.732304021800;     BAS[ATNO][  8].d[ 11] =        -0.539242853712;
  BAS[ATNO][  8].a[ 12] =         0.302704846700;     BAS[ATNO][  8].d[ 12] =        -0.287303887378;
  BAS[ATNO][  8].a[ 13] =         0.302704846700;     BAS[ATNO][  8].d[ 13] =        -0.049352590323;
  BAS[ATNO][  8].a[ 14] =         0.302704846700;     BAS[ATNO][  8].d[ 14] =         1.482230717609;
  BAS[ATNO][  8].a[ 15] =         0.050000000000;     BAS[ATNO][  8].d[ 15] =         0.095717687414;
  BAS[ATNO][  8].a[ 16] =         0.050000000000;     BAS[ATNO][  8].d[ 16] =         0.016442227276;
  BAS[ATNO][  8].a[ 17] =         0.050000000000;     BAS[ATNO][  8].d[ 17] =        -0.493817531670;

-------------------------------------------
RADIAL EXPECTATION VALUES <R**-3> TO <R**3>
-------------------------------------------
   0 :     0.000000     1.304402     1.096426     0.991766     1.071915     1.265293
   1 :     1.194975     1.024994     0.965591     1.140669     1.436182     2.000113
   2 :     1.194003     1.024308     0.965198     1.141355     1.438281     2.005459
   3 :     1.193613     1.024033     0.965040     1.141630     1.439125     2.007611
   4 :     0.553584     0.584247     0.709910     1.646266     3.188292    36.400976
   5 :     0.556340     0.586699     0.711768     1.639450     3.155734    35.709396
   6 :     0.000000     0.213205     0.399713     3.006557    10.417228    41.000849
   7 :     0.000000     0.122347     0.279290     4.674448    25.206762   147.625886
   8 :     0.000000     0.697401     0.711066     2.044578     6.140071    25.773811
   9 :     0.000000     6.102488     2.167978     0.574235     0.547392     1.281276
  10 :     0.000000    54.700792     5.941030     0.228340     0.091815     0.139729
  11 :     0.556133     0.586457     0.711590     1.640097     3.158864    35.802437
  12 :     0.555428     0.585846     0.711126     1.641798     3.166961    35.967247
  13 :     0.553614     0.584272     0.709929     1.646190     3.187903    36.394146
  14 :     0.034492     0.072630     0.239790     4.767294    25.078209   143.179615
  15 :     0.034343     0.072428     0.239512     4.770776    25.107502   143.383037
  16 :     0.034286     0.072351     0.239405     4.772130    25.118901   143.462229
  17 :     0.157793     0.193094     0.360506     3.491478    13.645171   284.622793
  18 :     0.158221     0.193454     0.360780     3.490480    13.640432   284.530095
  19 :     0.160768     0.195665     0.362460     3.484314    13.611039   283.930485
  20 :     0.158926     0.194065     0.361244     3.488779    13.632335   284.365285
  21 :     0.160741     0.195639     0.362440     3.484387    13.611393   283.938386
  22 :     0.374830     0.374728     0.524142     2.559898     8.838804    40.306815
  23 :     0.375951     0.375616     0.524814     2.555730     8.807411    40.098047
  24 :     0.376398     0.375969     0.525080     2.554101     8.795169    40.016703
Making the total density                ... o.k.
o.k.
Initializing the integrals              ... done
Making exponents                        ... done
Making rho(0)                           ... done (         0.000101613)
Integral calculation                    ... Two index integrals                     ... done
Solving the equation system             ... done
atomic density will be written to file 78_Pt_atom78.adf

-------
TIMINGS
-------

Total SCF time: 0 days 0 hours 0 min 0 sec 

Total time                  ....       0.569 sec
Sum of individual times     ....       0.210 sec  ( 36.8%)

Fock matrix formation       ....       0.131 sec  ( 23.0%)
Diagonalization             ....       0.052 sec  (  9.2%)
Density matrix formation    ....       0.000 sec  (  0.0%)
Population analysis         ....       0.000 sec  (  0.0%)
Initial guess               ....       0.000 sec  (  0.1%)
Orbital Transformation      ....       0.000 sec  (  0.0%)
Orbital Orthonormalization  ....       0.000 sec  (  0.0%)
DIIS solution               ....       0.026 sec  (  4.6%)

-------------------------   --------------------
FINAL SINGLE POINT ENERGY      -118.362150621204
-------------------------   --------------------


                            ***************************************
                            *     ORCA property calculations      *
                            ***************************************

                                    ---------------------
                                    Active property flags
                                    ---------------------
   (+) Dipole Moment


------------------------------------------------------------------------------
                       ORCA ELECTRIC PROPERTIES CALCULATION
------------------------------------------------------------------------------

Dipole Moment Calculation                       ... on
Quadrupole Moment Calculation                   ... off
Polarizability Calculation                      ... off
GBWName                                         ... 78_Pt_atom78.gbw
Electron density file                           ... 78_Pt_atom78.scfp
The origin for moment calculation is the CENTER OF MASS  = ( 0.000000,  0.000000  0.000000)

-------------
DIPOLE MOMENT
-------------
                                X             Y             Z
Electronic contribution:     -0.00000       0.00000       0.00000
Nuclear contribution   :      0.00000       0.00000       0.00000
                        -----------------------------------------
Total Dipole Moment    :     -0.00000       0.00000       0.00000
                        -----------------------------------------
Magnitude (a.u.)       :      0.00000
Magnitude (Debye)      :      0.00000



--------------------
Rotational spectrum 
--------------------
 
Rotational constants in cm-1:     0.000000     0.000000     0.000000 
Rotational constants in MHz :     0.000000     0.000000     0.000000 

 Dipole components along the rotational axes: 
x,y,z [a.u.] :    -0.000000     0.000000     0.000000 
x,y,z [Debye]:    -0.000000     0.000000     0.000000 

 

Timings for individual modules:

Sum of individual times         ...        0.814 sec (=   0.014 min)
GTO integral calculation        ...        0.225 sec (=   0.004 min)  27.6 %
SCF iterations                  ...        0.589 sec (=   0.010 min)  72.4 %
                             ****ORCA TERMINATED NORMALLY****
TOTAL RUN TIME: 0 days 0 hours 0 minutes 1 seconds 15 msec
