
                                 *****************
                                 * O   R   C   A *
                                 *****************

           --- An Ab Initio, DFT and Semiempirical electronic structure package ---

                  #######################################################
                  #                        -***-                        #
                  #          Department of theory and spectroscopy      #
                  #               Directorship: Frank Neese             #
                  #        Max Planck Institute fuer Kohlenforschung    #
                  #                Kaiser Wilhelm Platz 1               #
                  #                 D-45470 Muelheim/Ruhr               #
                  #                      Germany                        #
                  #                                                     #
                  #                  All rights reserved                #
                  #                        -***-                        #
                  #######################################################


                         Program Version 4.2.0 -  RELEASE  -


 With contributions from (in alphabetic order):
   Daniel Aravena         : Magnetic Suceptibility
   Michael Atanasov       : Ab Initio Ligand Field Theory (pilot matlab implementation)
   Alexander A. Auer      : GIAO ZORA, VPT2
   Ute Becker             : Parallelization
   Giovanni Bistoni       : ED, misc. LED, open-shell LED, HFLED
   Martin Brehm           : Molecular dynamics
   Dmytro Bykov           : SCF Hessian
   Vijay G. Chilkuri      : MRCI spin determinant printing, contributions to CSF-ICE
   Dipayan Datta          : RHF DLPNO-CCSD density
   Achintya Kumar Dutta   : EOM-CC, STEOM-CC
   Dmitry Ganyushin       : Spin-Orbit,Spin-Spin,Magnetic field MRCI
   Miquel Garcia          : C-PCM Hessian, Gaussian charge scheme
   Yang Guo               : DLPNO-NEVPT2, CIM, IAO-localization
   Andreas Hansen         : Spin unrestricted coupled pair/coupled cluster methods
   Benjamin Helmich-Paris : CASSCF linear response (MC-RPA)
   Lee Huntington         : MR-EOM, pCC
   Robert Izsak           : Overlap fitted RIJCOSX, COSX-SCS-MP3, EOM
   Christian Kollmar      : KDIIS, OOCD, Brueckner-CCSD(T), CCSD density
   Simone Kossmann        : Meta GGA functionals, TD-DFT gradient, OOMP2, MP2 Hessian
   Martin Krupicka        : AUTO-CI
   Lucas Lang             : DCDCAS
   Dagmar Lenk            : GEPOL surface, SMD
   Dimitrios Liakos       : Extrapolation schemes; Compound Job, initial MDCI parallelization
   Dimitrios Manganas     : Further ROCIS development; embedding schemes
   Dimitrios Pantazis     : SARC Basis sets
   Taras Petrenko         : DFT Hessian,TD-DFT gradient, ASA, ECA, R-Raman, ABS, FL, XAS/XES, NRVS
   Peter Pinski           : DLPNO-MP2, DLPNO-MP2 Gradient
   Christoph Reimann      : Effective Core Potentials
   Marius Retegan         : Local ZFS, SOC
   Christoph Riplinger    : Optimizer, TS searches, QM/MM, DLPNO-CCSD(T), (RO)-DLPNO pert. Triples
   Tobias Risthaus        : Range-separated hybrids, TD-DFT gradient, RPA, STAB
   Michael Roemelt        : Original ROCIS implementation
   Masaaki Saitow         : Open-shell DLPNO-CCSD energy and density
   Barbara Sandhoefer     : DKH picture change effects
   Avijit Sen             : IP-ROCIS
   Kantharuban Sivalingam : CASSCF convergence, NEVPT2, FIC-MRCI
   Bernardo de Souza      : ESD, SOC TD-DFT
   Georgi Stoychev        : AutoAux, RI-MP2 NMR
   Willem Van den Heuvel  : Paramagnetic NMR
   Boris Wezisla          : Elementary symmetry handling
   Frank Wennmohs         : Technical directorship


 We gratefully acknowledge several colleagues who have allowed us to
 interface, adapt or use parts of their codes:
   Stefan Grimme, W. Hujo, H. Kruse,             : VdW corrections, initial TS optimization,
                  C. Bannwarth                     DFT functionals, gCP, sTDA/sTD-DF
   Ed Valeev, F. Pavosevic, A. Kumar             : LibInt (2-el integral package), F12 methods
   Garnet Chan, S. Sharma, J. Yang, R. Olivares  : DMRG
   Ulf Ekstrom                                   : XCFun DFT Library
   Mihaly Kallay                                 : mrcc  (arbitrary order and MRCC methods)
   Andreas Klamt, Michael Diedenhofen            : otool_cosmo (COSMO solvation model)
   Jiri Pittner, Ondrej Demel                    : Mk-CCSD
   Frank Weinhold                                : gennbo (NPA and NBO analysis)
   Christopher J. Cramer and Donald G. Truhlar   : smd solvation model
   Lars Goerigk                                  : TD-DFT with DH, B97 family of functionals
   V. Asgeirsson, H. Jonsson                     : NEB implementation
   FAccTs GmbH                                   : IRC, NEB, NEB-TS, Multilevel, MM, QM/MM, CI optimization
   S Lehtola, MJT Oliveira, MAL Marques          : LibXC Library


 Your calculation uses the libint2 library for the computation of 2-el integrals
 For citations please refer to: http://libint.valeyev.net

 Your ORCA version has been built with support for libXC version: 4.2.3
 For citations please refer to: https://tddft.org/programs/libxc/

 This ORCA versions uses:
   CBLAS   interface :  Fast vector & matrix operations
   LAPACKE interface :  Fast linear algebra routines
   SCALAPACK package :  Parallel linear algebra routines


Setting NCore(Pt) from 46 to 60
----- Orbital basis set information -----
Your calculation utilizes the basis: def2-SVP
   F. Weigend and R. Ahlrichs, Phys. Chem. Chem. Phys. 7, 3297 (2005).

cite the ECPs for Pt [Def2-ECP] as follows:
Ce-Yb(ecp-28): M. Dolg, H. Stoll, H.Preuss, J. Chem. Phys., 1989, 90, 1730-1734.
Y-Cd(ecp-28), Hf-Hg(ecp-46): D. Andrae,U. Haeussermann, M. Dolg, H. Stoll, H. Preuss, Theor. Chim. Acta, 1990, 77, 123-141.
In-Sb(ecp-28), Tl-Bi(ecp-46): B. Metz, H. Stoll, M. Dolg, J. Chem. Phys., 2000, 113, 2563-2569.
Te-Xe(ecp-28), Po-Rn(ecp-46): K. A. Peterson, D. Figgen, E. Goll, H. Stoll, M. Dolg, J. Chem. Phys., 2003, 119, 11113-11123.
Rb(ecp-28), Cs(ecp-46): T. Leininger, A. Nicklass, W. Kuechle, H. Stoll, M. Dolg, A. Bergner, Chem. Phys. Lett., 1996, 255, 274-280.
Sr(ecp-28), Ba(ecp-46): M. Kaupp, P. V. Schleyer, H. Stoll and H. Preuss, J. Chem. Phys., 1991, 94, 1360-1366.
La(ecp-46): M. Dolg, H. Stoll, A. Savin, H. Preuss, Theor. Chim. Acta, 1989, 75, 173-194.
Lu(ecp-28): X. Cao, M. Dolg, J. Chem. Phys., 2001, 115, 7348-7355.

ECP parameters for Pt [Def2-ECP] have been obtained from:
TURBOMOLE (7.0.2)

================================================================================
                                        WARNINGS
                       Please study these warnings very carefully!
================================================================================


WARNING: your system is open-shell and RHF/RKS was chosen
  ===> : WILL SWITCH to UHF/UKS


WARNING: MDCI localization with Augmented Hessian Foster-Boys
  ===> : Switching off randomization!

WARNING: Post HF methods need fully converged wavefunctions
  ===> : Setting SCFConvForced true
         You can overwrite this default with %scf ConvForced false 


INFO   : the flag for use of LIBINT has been found!

================================================================================
                                       INPUT FILE
================================================================================
NAME = 78_Pt.in
|  1> #
|  2> # 78_Pt CCSD(T)/Def2-SVP
|  3> #
|  4> ! CCSD(T) Def2-SVP tightscf
|  5> 
|  6> *xyz 0 3
|  7>  Pt 0.0 0.0 0.0
|  8> *
|  9> 
| 10> %maxcore 5000 
| 11> 
| 12> %pal
| 13> nprocs 24
| 14> end
| 15> 
| 16> %method
| 17> NewNCore Pt 60 end
| 18> end
| 19> 
| 20> 
| 21>                          ****END OF INPUT****
================================================================================

                       ****************************
                       * Single Point Calculation *
                       ****************************

---------------------------------
CARTESIAN COORDINATES (ANGSTROEM)
---------------------------------
  Pt     0.000000    0.000000    0.000000

----------------------------
CARTESIAN COORDINATES (A.U.)
----------------------------
  NO LB      ZA    FRAG     MASS         X           Y           Z
   0 Pt   18.0000*   0   195.090    0.000000    0.000000    0.000000
* core charge reduced due to ECP

--------------------------------
INTERNAL COORDINATES (ANGSTROEM)
--------------------------------
 Pt     0   0   0     0.000000000000     0.00000000     0.00000000

---------------------------
INTERNAL COORDINATES (A.U.)
---------------------------
 Pt     0   0   0     0.000000000000     0.00000000     0.00000000

---------------------
BASIS SET INFORMATION
---------------------
There are 1 groups of distinct atoms

 Group   1 Type Pt  : 7s6p5d1f contracted to 6s3p2d1f pattern {211111/411/41/1}

Atom   0Pt   basis set group =>   1
-------------------------
ECP PARAMETER INFORMATION
-------------------------

 Group 1, Type Pt ECP Def2-ECP (replacing 60 core electrons, lmax=3)

Atom   0Pt   ECP group =>   1



           ************************************************************
           *        Program running with 24 parallel MPI-processes    *
           *              working on a common directory               *
           ************************************************************
------------------------------------------------------------------------------
                           ORCA GTO INTEGRAL CALCULATION
------------------------------------------------------------------------------

                         BASIS SET STATISTICS AND STARTUP INFO

 # of primitive gaussian shells          ...   19
 # of primitive gaussian functions       ...   57
 # of contracted shells                  ...   12
 # of contracted basis functions         ...   32
 Highest angular momentum                ...    3
 Maximum contraction depth               ...    4
 Integral package used                   ... LIBINT
 Integral threshhold            Thresh   ...  2.500e-11
 Primitive cut-off              TCut     ...  2.500e-12


------------------------------ INTEGRAL EVALUATION ----------------------------


 * One electron integrals 

   ECP integrals                         ... done
 Pre-screening matrix                    ... done
 Shell pair data                         ... done (   0.000 sec)



           ************************************************************
           *        Program running with 24 parallel MPI-processes    *
           *              working on a common directory               *
           ************************************************************
-------------------------------------------------------------------------------
                                 ORCA SCF
-------------------------------------------------------------------------------

------------
SCF SETTINGS
------------
Hamiltonian:
 Ab initio Hamiltonian  Method          .... Hartree-Fock(GTOs)


General Settings:
 Integral files         IntName         .... 78_Pt
 Hartree-Fock type      HFTyp           .... UHF
 Total Charge           Charge          ....    0
 Multiplicity           Mult            ....    3
 Number of Electrons    NEL             ....   18
 Basis Dimension        Dim             ....   32
 Nuclear Repulsion      ENuc            ....      0.0000000000 Eh

Convergence Acceleration:
 DIIS                   CNVDIIS         .... on
   Start iteration      DIISMaxIt       ....    12
   Startup error        DIISStart       ....  0.200000
   # of expansion vecs  DIISMaxEq       ....     5
   Bias factor          DIISBfac        ....   1.050
   Max. coefficient     DIISMaxC        ....  10.000
 Newton-Raphson         CNVNR           .... off
 SOSCF                  CNVSOSCF        .... off
 Level Shifting         CNVShift        .... on
   Level shift para.    LevelShift      ....    0.2500
   Turn off err/grad.   ShiftErr        ....    0.0010
 Zerner damping         CNVZerner       .... off
 Static damping         CNVDamp         .... on
   Fraction old density DampFac         ....    0.7000
   Max. Damping (<1)    DampMax         ....    0.9800
   Min. Damping (>=0)   DampMin         ....    0.0000
   Turn off err/grad.   DampErr         ....    0.1000
 Fernandez-Rico         CNVRico         .... off

SCF Procedure:
 Maximum # iterations   MaxIter         ....   125
 SCF integral mode      SCFMode         .... Direct
   Integral package                     .... LIBINT
 Reset frequency        DirectResetFreq ....    20
 Integral Threshold     Thresh          ....  2.500e-11 Eh
 Primitive CutOff       TCut            ....  2.500e-12 Eh

Convergence Tolerance:
 Convergence Check Mode ConvCheckMode   .... Total+1el-Energy
 Convergence forced     ConvForced      .... 1
 Energy Change          TolE            ....  1.000e-08 Eh
 1-El. energy change                    ....  1.000e-05 Eh
 DIIS Error             TolErr          ....  5.000e-07


Diagonalization of the overlap matrix:
Smallest eigenvalue                        ... 1.604e-02
Time for diagonalization                   ...    0.001 sec
Threshold for overlap eigenvalues          ... 1.000e-08
Number of eigenvalues below threshold      ... 0
Time for construction of square roots      ...    0.010 sec
Total time needed                          ...    0.011 sec

-------------------
DFT GRID GENERATION
-------------------

General Integration Accuracy     IntAcc      ...  4.340
Radial Grid Type                 RadialGrid  ... Gauss-Chebyshev
Angular Grid (max. acc.)         AngularGrid ... Lebedev-110
Angular grid pruning method      GridPruning ... 3 (G Style)
Weight generation scheme         WeightScheme... Becke
Basis function cutoff            BFCut       ...    1.0000e-11
Integration weight cutoff        WCut        ...    1.0000e-14
Grids for H and He will be reduced by one unit

# of grid points (after initial pruning)     ...   3530 (   0.0 sec)
# of grid points (after weights+screening)   ...   3530 (   0.0 sec)
Grid point division into batches done        ...    0.0 sec
Reduced shell lists constructed in    0.0 sec

Total number of grid points                  ...     3530
Total number of batches                      ...       56
Average number of points per batch           ...       63
Average number of grid points per atom       ...     3530
Average number of shells per batch           ...     3.00 (25.00%)
Average number of basis functions per batch  ...     7.50 (23.44%)
Average number of large shells per batch     ...     2.25 (75.00%)
Average number of large basis fcns per batch ...     6.75 (90.00%)
Maximum spatial batch extension              ...  25.56, 38.92, 38.92 au
Average spatial batch extension              ...   1.31,  1.85,  2.08 au

Time for grid setup =    0.057 sec

------------------------------
INITIAL GUESS: MODEL POTENTIAL
------------------------------
Loading Hartree-Fock densities                     ... done
  calling /sw/apps/orca/orca_4_2_0_linux_x86-64_openmpi314/orca 78_Pt_atom78.inp > 78_Pt_atom78.out in order to generate an atomic fitting density for atom 0 (Pt with ECP) on-the-fly... 
    atom 0 (Pt), assumed electronic state with S=3: 1s2 2s2 2p6 3s2 3p6 4s2 3d10 4p6 5s2 4d10 5p6 6s2 4f14 5d8           ... done
Calculating cut-offs                               ... done
Setting up the integral package                    ... done
Initializing the effective Hamiltonian             ... done
Starting the Coulomb interaction                   ... done (   0.0 sec)
Reading the grid                                   ... done
Mapping shells                                     ... done
Starting the XC term evaluation                    ... done (   0.0 sec)
Transforming the Hamiltonian                       ... done (   0.0 sec)
Diagonalizing the Hamiltonian                      ... done (   0.0 sec)
Back transforming the eigenvectors                 ... done (   0.0 sec)
Now organizing SCF variables                       ... done
                      ------------------
                      INITIAL GUESS DONE (   1.2 sec)
                      ------------------
--------------
SCF ITERATIONS
--------------
ITER       Energy         Delta-E        Max-DP      RMS-DP      [F,P]     Damp
               ***  Starting incremental Fock matrix formation  ***
  0   -118.2709812898   0.000000000000 0.18334710  0.00694096  0.4844136 0.7000
  1   -118.3117574490  -0.040776159171 0.13517744  0.00518744  0.3405162 0.7000
  2   -118.3372282110  -0.025470762075 0.09265441  0.00355788  0.2378603 0.7000
                               ***Turning on DIIS***
  3   -118.3539440458  -0.016715834808 0.06383446  0.00245354  0.1667240 0.7000
  4   -118.5242206917  -0.170276645895 0.04494186  0.00176726  0.1173651 0.7000
  5   -118.4828765874   0.041344104298 0.11273974  0.00459274  0.0829573 0.0000
  6   -118.3956860277   0.087190559721 0.01860356  0.00066014  0.0029818 0.0000
  7   -118.3937689655   0.001917062176 0.01136491  0.00037200  0.0012273 0.0000
  8   -118.3949545785  -0.001185612929 0.00969039  0.00032698  0.0010397 0.0000
  9   -118.3950632188  -0.000108640353 0.00809715  0.00029029  0.0009261 0.0000
 10   -118.3958117051  -0.000748486256 0.00441255  0.00018323  0.0007156 0.0000
 11   -118.3945399918   0.001271713294 0.00625003  0.00022712  0.0004888 0.0000
 12   -118.3938372891   0.000702702684 0.00451887  0.00016569  0.0002183 0.0000
 13   -118.3934182263   0.000419062775 0.00053455  0.00002402  0.0000809 0.0000
 14   -118.3934977903  -0.000079564004 0.00013206  0.00000487  0.0000817 0.0000
 15   -118.3935074505  -0.000009660215 0.00011955  0.00000437  0.0000816 0.0000
 16   -118.3935118488  -0.000004398233 0.00012048  0.00000451  0.0000815 0.0000
 17   -118.3935117877   0.000000061033 0.00014929  0.00000558  0.0000814 0.0000
 18   -118.3935132665  -0.000001478737 0.00021098  0.00000790  0.0000812 0.0000
 19   -118.3935155231  -0.000002256601 0.00029865  0.00001121  0.0000810 0.0000
               *** Restarting incremental Fock matrix formation ***
                                   *** Resetting DIIS ***
 20   -118.3935121212   0.000003401834 0.00009956  0.00000374  0.0000806 0.0000
 21   -118.3935121598  -0.000000038516 0.00010210  0.00000384  0.0000805 0.0000
 22   -118.3935122170  -0.000000057265 0.00011357  0.00000426  0.0000804 0.0000
 23   -118.3935123777  -0.000000160720 0.00014345  0.00000538  0.0000803 0.0000
 24   -118.3935127449  -0.000000367195 0.00021759  0.00000816  0.0000801 0.0000
 25   -118.3935132758  -0.000000530821 0.00030414  0.00001139  0.0000799 0.0000
 26   -118.3935144406  -0.000001164801 0.00049219  0.00001842  0.0000795 0.0000
 27   -118.3935174399  -0.000002999359 0.00099352  0.00003715  0.0000789 0.0000
 28   -118.3935290824  -0.000011642480 0.00286784  0.00010691  0.0000778 0.0000
 29   -118.3935875514  -0.000058468978 0.01125209  0.00041497  0.0000745 0.0000
 30   -118.3934743598   0.000113191611 0.00689990  0.00025331  0.0000614 0.0000
 31   -118.3935836607  -0.000109300968 0.01104338  0.00040435  0.0000694 0.0000
 32   -118.3936622597  -0.000078599003 0.00391883  0.00014133  0.0000565 0.0000
 33   -118.3937527828  -0.000090523060 0.01703876  0.00060744  0.0000519 0.0000
 34   -118.3934400950   0.000312687767 0.01509764  0.00053677  0.0000813 0.0000
 35   -118.3936420861  -0.000201991062 0.02265116  0.00080181  0.0000494 0.0000
 36   -118.3937270844  -0.000084998291 0.00595939  0.00020772  0.0001096 0.0000
 37   -118.3936689298   0.000058154584 0.01045315  0.00036535  0.0000292 0.0000
 38   -118.3936528111   0.000016118731 0.00142900  0.00004932  0.0000497 0.0000
 39   -118.3936331713   0.000019639731 0.00395035  0.00013712  0.0000182 0.0000
               *** Restarting incremental Fock matrix formation ***
                                   *** Resetting DIIS ***
 40   -118.3935204171   0.000112754222 0.00003368  0.00000171  0.0000261 0.0000
 41   -118.3935260497  -0.000005632627 0.00002998  0.00000141  0.0000134 0.0000
 42   -118.3935249968   0.000001052979 0.00002769  0.00000126  0.0000134 0.0000
 43   -118.3935102727   0.000014724086 0.00006982  0.00000324  0.0000133 0.0000
 44   -118.3935091352   0.000001137490 0.00010169  0.00000499  0.0000132 0.0000
 45   -118.3935166599  -0.000007524698 0.00005617  0.00000231  0.0000131 0.0000
 46   -118.3935197582  -0.000003098282 0.00002576  0.00000088  0.0000130 0.0000
 47   -118.3935204759  -0.000000717698 0.00002169  0.00000074  0.0000129 0.0000
 48   -118.3935204041   0.000000071804 0.00002436  0.00000084  0.0000129 0.0000
 49   -118.3935203582   0.000000045820 0.00003320  0.00000115  0.0000129 0.0000
 50   -118.3935204422  -0.000000083996 0.00004922  0.00000170  0.0000128 0.0000
                 **** Energy Check signals convergence ****

               *****************************************************
               *                     SUCCESS                       *
               *           SCF CONVERGED AFTER  51 CYCLES          *
               *****************************************************


----------------
TOTAL SCF ENERGY
----------------

Total Energy       :         -118.39352045 Eh           -3221.65148 eV

Components:
Nuclear Repulsion  :            0.00000000 Eh               0.00000 eV
Electronic Energy  :         -118.39352045 Eh           -3221.65148 eV
One Electron Energy:         -208.69028326 Eh           -5678.75131 eV
Two Electron Energy:           90.29676281 Eh            2457.09983 eV

Virial components:
Potential Energy   :         -159.10809534 Eh           -4329.55138 eV
Kinetic Energy     :           40.71457489 Eh            1107.89991 eV
Virial Ratio       :            3.90789038


---------------
SCF CONVERGENCE
---------------

  Last Energy change         ...   -9.8983e-09  Tolerance :   1.0000e-08
  Last MAX-Density change    ...    7.9910e-05  Tolerance :   1.0000e-07
  Last RMS-Density change    ...    2.7691e-06  Tolerance :   5.0000e-09
  Last DIIS Error            ...    1.2784e-05  Tolerance :   5.0000e-07

             **** THE GBW FILE WAS UPDATED (78_Pt.gbw) ****
             **** DENSITY FILE WAS UPDATED (78_Pt.scfp) ****
             **** ENERGY FILE WAS UPDATED (78_Pt.en.tmp) ****
----------------------
UHF SPIN CONTAMINATION
----------------------

Expectation value of <S**2>     :     2.002870
Ideal value S*(S+1) for S=1.0   :     2.000000
Deviation                       :     0.002870

             **** THE GBW FILE WAS UPDATED (78_Pt.gbw) ****
             **** DENSITY FILE WAS UPDATED (78_Pt.scfp) ****
----------------
ORBITAL ENERGIES
----------------
                 SPIN UP ORBITALS
  NO   OCC          E(Eh)            E(eV) 
   0   1.0000      -4.463486      -121.4576 
   1   1.0000      -2.592551       -70.5469 
   2   1.0000      -2.590607       -70.4940 
   3   1.0000      -2.534019       -68.9542 
   4   1.0000      -0.480570       -13.0770 
   5   1.0000      -0.443513       -12.0686 
   6   1.0000      -0.420853       -11.4520 
   7   1.0000      -0.420146       -11.4327 
   8   1.0000      -0.415018       -11.2932 
   9   1.0000      -0.289775        -7.8852 
  10   0.0000       0.055921         1.5217 
  11   0.0000       0.056206         1.5294 
  12   0.0000       0.065825         1.7912 
  13   0.0000       0.235936         6.4201 
  14   0.0000       0.465194        12.6586 
  15   0.0000       0.475794        12.9470 
  16   0.0000       0.485929        13.2228 
  17   0.0000       0.486230        13.2310 
  18   0.0000       0.489597        13.3226 
  19   0.0000       0.934286        25.4232 
  20   0.0000       0.935406        25.4537 
  21   0.0000       0.970710        26.4144 
  22   0.0000       1.679064        45.6896 
  23   0.0000       1.679378        45.6982 
  24   0.0000       1.701039        46.2876 
  25   0.0000       1.721745        46.8511 
  26   0.0000       1.727393        47.0048 
  27   0.0000       1.727771        47.0150 
  28   0.0000       1.730502        47.0894 
  29   0.0000       2.161990        58.8307 
  30   0.0000      50.993280      1387.5977 
  31   0.0000     282.593125      7689.7499 

                 SPIN DOWN ORBITALS
  NO   OCC          E(Eh)            E(eV) 
   0   1.0000      -4.404263      -119.8461 
   1   1.0000      -2.518091       -68.5207 
   2   1.0000      -2.486603       -67.6639 
   3   1.0000      -2.485453       -67.6326 
   4   1.0000      -0.418507       -11.3881 
   5   1.0000      -0.382522       -10.4090 
   6   1.0000      -0.381254       -10.3744 
   7   1.0000      -0.369527       -10.0553 
   8   0.0000       0.001443         0.0393 
   9   0.0000       0.098222         2.6728 
  10   0.0000       0.098338         2.6759 
  11   0.0000       0.101201         2.7538 
  12   0.0000       0.114276         3.1096 
  13   0.0000       0.288130         7.8404 
  14   0.0000       0.496264        13.5040 
  15   0.0000       0.507967        13.8225 
  16   0.0000       0.508346        13.8328 
  17   0.0000       0.512386        13.9427 
  18   0.0000       0.550704        14.9854 
  19   0.0000       1.008457        27.4415 
  20   0.0000       1.008756        27.4496 
  21   0.0000       1.015834        27.6422 
  22   0.0000       1.738064        47.2951 
  23   0.0000       1.747699        47.5573 
  24   0.0000       1.748695        47.5844 
  25   0.0000       1.757419        47.8218 
  26   0.0000       1.783024        48.5185 
  27   0.0000       1.791392        48.7463 
  28   0.0000       1.792372        48.7729 
  29   0.0000       2.203903        59.9712 
  30   0.0000      50.999207      1387.7590 
  31   0.0000     282.593581      7689.7623 

                    ********************************
                    * MULLIKEN POPULATION ANALYSIS *
                    ********************************

--------------------------------------------
MULLIKEN ATOMIC CHARGES AND SPIN POPULATIONS
--------------------------------------------
   0 Pt:   -0.000000    2.000000
Sum of atomic charges         :   -0.0000000
Sum of atomic spin populations:    2.0000000

-----------------------------------------------------
MULLIKEN REDUCED ORBITAL CHARGES AND SPIN POPULATIONS
-----------------------------------------------------
CHARGE
  0 Pts       :     3.002317  s :     3.002317
      pz      :     1.999674  p :     5.999311
      px      :     1.999686
      py      :     1.999951
      dz2     :     1.236667  d :     8.997683
      dxz     :     1.999998
      dyz     :     2.000000
      dx2y2   :     1.761019
      dxy     :     2.000000
      f0      :     0.000252  f :     0.000689
      f+1     :     0.000235
      f-1     :     0.000020
      f+2     :     0.000073
      f-2     :     0.000000
      f+3     :     0.000079
      f-3     :     0.000029

SPIN
  0 Pts       :     0.998832  s :     0.998832
      pz      :     0.000219  p :     0.000400
      px      :     0.000217
      py      :    -0.000036
      dz2     :     0.763028  d :     1.001168
      dxz     :     0.000002
      dyz     :     0.000000
      dx2y2   :     0.238137
      dxy     :     0.000000
      f0      :    -0.000159  f :    -0.000400
      f+1     :    -0.000228
      f-1     :     0.000013
      f+2     :    -0.000060
      f-2     :    -0.000000
      f+3     :     0.000011
      f-3     :     0.000022


                     *******************************
                     * LOEWDIN POPULATION ANALYSIS *
                     *******************************

-------------------------------------------
LOEWDIN ATOMIC CHARGES AND SPIN POPULATIONS
-------------------------------------------
   0 Pt:   -0.000000    2.000000

----------------------------------------------------
LOEWDIN REDUCED ORBITAL CHARGES AND SPIN POPULATIONS
----------------------------------------------------
CHARGE
  0 Pts       :     3.002317  s :     3.002317
      pz      :     1.999674  p :     5.999311
      px      :     1.999686
      py      :     1.999951
      dz2     :     1.236667  d :     8.997683
      dxz     :     1.999998
      dyz     :     2.000000
      dx2y2   :     1.761019
      dxy     :     2.000000
      f0      :     0.000252  f :     0.000689
      f+1     :     0.000235
      f-1     :     0.000020
      f+2     :     0.000073
      f-2     :     0.000000
      f+3     :     0.000079
      f-3     :     0.000029

SPIN
  0 Pts       :     0.998832  s :     0.998832
      pz      :     0.000219  p :     0.000400
      px      :     0.000217
      py      :    -0.000036
      dz2     :     0.763028  d :     1.001168
      dxz     :     0.000002
      dyz     :     0.000000
      dx2y2   :     0.238137
      dxy     :     0.000000
      f0      :    -0.000159  f :    -0.000400
      f+1     :    -0.000228
      f-1     :     0.000013
      f+2     :    -0.000060
      f-2     :    -0.000000
      f+3     :     0.000011
      f-3     :     0.000022


                      *****************************
                      * MAYER POPULATION ANALYSIS *
                      *****************************

  NA   - Mulliken gross atomic population
  ZA   - Total nuclear charge
  QA   - Mulliken gross atomic charge
  VA   - Mayer's total valence
  BVA  - Mayer's bonded valence
  FA   - Mayer's free valence

  ATOM       NA         ZA         QA         VA         BVA        FA
  0 Pt    18.0000    18.0000    -0.0000     2.0057     0.0000     2.0057

  Mayer bond orders larger than 0.100000


-------
TIMINGS
-------

Total SCF time: 0 days 0 hours 0 min 12 sec 

Total time                  ....      12.480 sec
Sum of individual times     ....      11.534 sec  ( 92.4%)

Fock matrix formation       ....       9.244 sec  ( 74.1%)
Diagonalization             ....       0.273 sec  (  2.2%)
Density matrix formation    ....       0.012 sec  (  0.1%)
Population analysis         ....       0.074 sec  (  0.6%)
Initial guess               ....       1.150 sec  (  9.2%)
Orbital Transformation      ....       0.000 sec  (  0.0%)
Orbital Orthonormalization  ....       0.000 sec  (  0.0%)
DIIS solution               ....       0.726 sec  (  5.8%)


           ************************************************************
           *        Program running with 24 parallel MPI-processes    *
           *              working on a common directory               *
           ************************************************************


------------------------------------------------------------------------------- 
                              ORCA-MATRIX DRIVEN CI                            
------------------------------------------------------------------------------- 

--------------------------------
AUTOMATIC CHOICE OF INCORE LEVEL
--------------------------------

Memory available                           ...   2500.00 MB
Memory needed for S+T                      ...      0.61 MB
Memory needed for J+K                      ...      1.24 MB
Memory needed for DIIS                     ...      8.53 MB
Memory needed for 3-ext                    ...      0.81 MB
Memory needed for 4-ext                    ...      0.93 MB
Memory needed for triples                  ...      0.41 MB
 -> Final InCoreLevel    ... 5
 -> check shows that triples correction can be computed


Wavefunction type
-----------------
Correlation treatment                      ...      CCSD     
Single excitations                         ... ON
Orbital optimization                       ... OFF
Calculation of Z vector                    ... OFF
Calculation of Brueckner orbitals          ... OFF
Perturbative triple excitations            ... ON
Calculation of F12 correction              ... OFF
Frozen core treatment                      ... chemical core (0 el)
Reference Wavefunction                     ... UHF
  Alpha-MOs occ    :     0 ...    9 ( 10 MO's/ 10 electrons)
  Beta-MOs occ     :     0 ...    7 (  8 MO's/  8 electrons)
  Alpha-MOs virt   :    10 ...   31 ( 22 MO's              )
  Beta-MOs virt    :     8 ...   31 ( 24 MO's              )
Number of AO's                             ...     32
Number of electrons                        ...     18
Number of correlated electrons             ...     18

Algorithmic settings
--------------------
Integral transformation                    ... AO direct full transformation
K(C) Formation                             ... FULL-MO TRAFO
Maximum number of iterations               ...        50
Convergence tolerance (max. residuum)      ... 1.000e-05
Level shift for amplitude update           ... 2.000e-01
Maximum number of DIIS vectors             ...         7
DIIS turned on at iteration                ...         0
Damping before turning on DIIS             ...     0.500
Damping after turning on DIIS              ...     0.000
Pair specific amplitude update             ... OFF
Natural orbital iterations                 ... OFF
Perturbative natural orbital generation    ... OFF
Printlevel                                 ... 2

Memory handling:
----------------
Maximum memory for working arrays          ...   2500 MB
Data storage in matrix containers          ... UNCOMPRESSED
Data type for integral storage             ... DOUBLE
In-Core Storage of quantities:
   Amplitudes+Sigma Vector      ... YES
   J+K operators                ... YES
   DIIS vectors                 ... YES
   3-external integrals         ... YES
   4-external integrals         ... YES


Initializing the integral package          ... done
Warning: reference  - re-canonicalizations have been set to INT 1 VIRT 1

--------------------------
UNRESTRICTED FOCK OPERATOR
--------------------------

<ss|ss>:          231 b            0 skpd (  0.0%)    0.000 s ( 0.000 ms/b)
<ss|sp>:          378 b            0 skpd (  0.0%)    0.000 s ( 0.000 ms/b)
<ss|sd>:          252 b            0 skpd (  0.0%)    0.000 s ( 0.000 ms/b)
<ss|sf>:          126 b            0 skpd (  0.0%)    0.000 s ( 0.000 ms/b)
<ss|pp>:          126 b            0 skpd (  0.0%)    0.000 s ( 0.000 ms/b)
<ss|pd>:          126 b            0 skpd (  0.0%)    0.000 s ( 0.001 ms/b)
<ss|pf>:           63 b            0 skpd (  0.0%)    0.000 s ( 0.001 ms/b)
<ss|dd>:           63 b            0 skpd (  0.0%)    0.000 s ( 0.002 ms/b)
<ss|df>:           42 b            0 skpd (  0.0%)    0.000 s ( 0.002 ms/b)
<ss|ff>:           21 b            0 skpd (  0.0%)    0.000 s ( 0.003 ms/b)
<sp|sp>:          171 b            0 skpd (  0.0%)    0.000 s ( 0.000 ms/b)
<sp|sd>:          216 b            0 skpd (  0.0%)    0.000 s ( 0.000 ms/b)
<sp|sf>:          108 b            0 skpd (  0.0%)    0.000 s ( 0.000 ms/b)
<sp|pp>:          108 b            0 skpd (  0.0%)    0.000 s ( 0.001 ms/b)
<sp|pd>:          108 b            0 skpd (  0.0%)    0.000 s ( 0.002 ms/b)
<sp|pf>:           54 b            0 skpd (  0.0%)    0.000 s ( 0.003 ms/b)
<sp|dd>:           54 b            0 skpd (  0.0%)    0.000 s ( 0.006 ms/b)
<sp|df>:           36 b            0 skpd (  0.0%)    0.000 s ( 0.005 ms/b)
<sp|ff>:           18 b            0 skpd (  0.0%)    0.000 s ( 0.009 ms/b)
<sd|sd>:           78 b            0 skpd (  0.0%)    0.000 s ( 0.001 ms/b)
<sd|sf>:           72 b            0 skpd (  0.0%)    0.000 s ( 0.001 ms/b)
<sd|pp>:           72 b            0 skpd (  0.0%)    0.000 s ( 0.002 ms/b)
<sd|pd>:           72 b            0 skpd (  0.0%)    0.000 s ( 0.004 ms/b)
<sd|pf>:           36 b            0 skpd (  0.0%)    0.000 s ( 0.007 ms/b)
<sd|dd>:           36 b            0 skpd (  0.0%)    0.001 s ( 0.015 ms/b)
<sd|df>:           24 b            0 skpd (  0.0%)    0.000 s ( 0.014 ms/b)
<sd|ff>:           12 b            0 skpd (  0.0%)    0.000 s ( 0.020 ms/b)
<sf|sf>:           21 b            0 skpd (  0.0%)    0.000 s ( 0.001 ms/b)
<sf|pp>:           36 b            0 skpd (  0.0%)    0.000 s ( 0.002 ms/b)
<sf|pd>:           36 b            0 skpd (  0.0%)    0.000 s ( 0.004 ms/b)
<sf|pf>:           18 b            0 skpd (  0.0%)    0.000 s ( 0.009 ms/b)
<sf|dd>:           18 b            0 skpd (  0.0%)    0.000 s ( 0.015 ms/b)
<sf|df>:           12 b            0 skpd (  0.0%)    0.000 s ( 0.017 ms/b)
<sf|ff>:            6 b            0 skpd (  0.0%)    0.000 s ( 0.026 ms/b)
<pp|pp>:           21 b            0 skpd (  0.0%)    0.000 s ( 0.007 ms/b)
<pp|pd>:           36 b            0 skpd (  0.0%)    0.000 s ( 0.007 ms/b)
<pp|pf>:           18 b            0 skpd (  0.0%)    0.000 s ( 0.012 ms/b)
<pp|dd>:           18 b            0 skpd (  0.0%)    0.000 s ( 0.025 ms/b)
<pp|df>:           12 b            0 skpd (  0.0%)    0.000 s ( 0.022 ms/b)
<pp|ff>:            6 b            0 skpd (  0.0%)    0.000 s ( 0.028 ms/b)
<pd|pd>:           21 b            0 skpd (  0.0%)    0.001 s ( 0.029 ms/b)
<pd|pf>:           18 b            0 skpd (  0.0%)    0.000 s ( 0.027 ms/b)
<pd|dd>:           18 b            0 skpd (  0.0%)    0.001 s ( 0.063 ms/b)
<pd|df>:           12 b            0 skpd (  0.0%)    0.001 s ( 0.054 ms/b)
<pd|ff>:            6 b            0 skpd (  0.0%)    0.000 s ( 0.070 ms/b)
<pf|pf>:            6 b            0 skpd (  0.0%)    0.000 s ( 0.034 ms/b)
<pf|dd>:            9 b            0 skpd (  0.0%)    0.000 s ( 0.052 ms/b)
<pf|df>:            6 b            0 skpd (  0.0%)    0.000 s ( 0.059 ms/b)
<pf|ff>:            3 b            0 skpd (  0.0%)    0.000 s ( 0.084 ms/b)
<dd|dd>:            6 b            0 skpd (  0.0%)    0.002 s ( 0.252 ms/b)
<dd|df>:            6 b            0 skpd (  0.0%)    0.001 s ( 0.142 ms/b)
<dd|ff>:            3 b            0 skpd (  0.0%)    0.000 s ( 0.165 ms/b)
<df|df>:            3 b            0 skpd (  0.0%)    0.000 s ( 0.163 ms/b)
<df|ff>:            2 b            0 skpd (  0.0%)    0.000 s ( 0.187 ms/b)
<ff|ff>:            1 b            0 skpd (  0.0%)    0.000 s ( 0.258 ms/b)
Recanonicalizing the internal orbitals
Recanonicalizing the virtual orbitals
Time needed for Fock operator              ...            0.059 sec
Reference energy                           ...   -118.393520446
Warning: for UHF the TrafoType has to be JK
Warning: for UHF the K(C)-option cannot be MO but must be AOX

-------------------------------
PARTIAL EXCHANGE TRANSFORMATION
-------------------------------

Transformation type                        ... two-operators
Generation of integrals (i,mue|j,nue)      ... ON
Generation of integrals (mue,kappa|nue,tau)... ON
Generation of integrals (i,mue|a,nue)      ... ON
Dimension of the basis                     ...   32
Number of internal alpha-MOs               ...   10 (   0-   9)
Number of internal beta-MOs                ...    8 (   0-   7)
Number of external alpha-MOs               ...   22 (  10-  31)
Number of external beta-MOs                ...   24 (   8-  31)
Pair cutoff                                ... 0.000e+00 Eh
Number of AO pairs in the trafo            ...  528
Total Number of distinct AO pairs          ...  528
Memory devoted for trafo                   ... 2500.0 MB 
Max. Number of MO pairs treated together   ... 320000      
Number Format for Storage                  ... Double (8 Byte)
Integral package used                      ... LIBINT

Starting integral evaluation:
    ... done with AO integral generation
Closing buffer AOK[aa] ( 0.00 GB; CompressionRatio= 0.00)
Closing buffer AOK[bb] ( 0.00 GB; CompressionRatio= 0.00)
Closing buffer AOK[ab] ( 0.00 GB; CompressionRatio= 0.00)
Closing buffer AOK[ba] ( 0.00 GB; CompressionRatio= 0.00)
Collecting buffer AOK 
Closing buffer IAAO1[aa] ( 0.00 GB; CompressionRatio= 0.00)
Closing buffer IAAO1[bb] ( 0.00 GB; CompressionRatio= 0.00)
Closing buffer IAAO1[ab] ( 0.00 GB; CompressionRatio= 0.00)
Closing buffer IAAO1[ba] ( 0.00 GB; CompressionRatio= 0.00)
Closing buffer IAAO2[aa] ( 0.00 GB; CompressionRatio= 0.00)
Closing buffer IAAO2[bb] ( 0.00 GB; CompressionRatio= 0.00)
Closing buffer IAAO2[ab] ( 0.00 GB; CompressionRatio= 0.00)
Closing buffer IAAO2[ba] ( 0.00 GB; CompressionRatio= 0.00)
Collecting buffer IAAO 
Closing buffer PRQS    ( 0.00 GB; CompressionRatio= 0.00)
Collecting buffer PRQS 
Number of alpha/alpha MO pairs in trafo    ...   55
Number of beta /beta  MO pairs in trafo    ...   36
Number of alpha/ beta MO pairs in trafo    ...   80
------------------------
SORTING OF (i,mue|j,nue)
------------------------

SORTING OF ALPHA/ALPHA PAIRS
IBATCH = 1 of  1
Closing buffer KAO[aa] ( 0.00 GB; CompressionRatio= 1.00)
Collecting buffer KAO 
SORTING OF BETA /BETA  PAIRS
IBATCH = 1 of  1
Closing buffer KAO[bb] ( 0.00 GB; CompressionRatio= 1.00)
Collecting buffer KAO 
SORTING OF ALPHA/BETA  PAIRS
IBATCH = 1 of  1
Closing buffer KAO[ab] ( 0.00 GB; CompressionRatio= 0.998537298879)
Collecting buffer KAO[ab] 
------------------------
SORTING OF (i,mue|a,nue)
------------------------

Number of alpha/alpha (i,a) pairs in trafo  ...  220
Number of beta /beta  (i,a) pairs in trafo  ...  192
Number of alpha/ beta (i,a) pairs in trafo  ...  240
Number of beta /alpha (i,a) pairs in trafo  ...  176
Setting up the alpha/alpha list             ... done
Setting up the beta /beta  list             ... done
Setting up the alpha/beta  list             ... done
Setting up the beta /alpha list             ... done
    ... Now sorting (i,mue|a,nue)integrals
    ... Integrals (i,b|a,c) will be made on the fly
SORTING OF ALPHA/ALPHA PAIRS
IBATCH = 1 of  1
Closing buffer IPAQ[aa]  0.00 GB; CompressionRatio= 1.00)
SORTING OF BETA /BETA  PAIRS
IBATCH = 1 of  1
Closing buffer IPAQ[bb]( 0.00 GB; CompressionRatio= 1.00)
SORTING OF ALPHA/BETA  PAIRS (NMatSort_ab=10)
IBATCH = 1 of  1
Closing buffer IPAQ[ab]( 0.00 GB; CompressionRatio= 1.00)
SORTING OF BETA/ALPHA  PAIRS
IBATCH = 1 of  1
Closing buffer IPAQ[ba]( 0.00 GB; CompressionRatio= 1.00)
N(AO-Batches) Done                         ...         0 
N(AO-Batches) Skipped                      ...         0 
N(IJ)-pairs Skipped                        ...         0 
TOTAL TIME for half transformation         ...     1.833 sec
AO-integral generation                     ...     0.000 sec
Half transformation                        ...     0.000 sec
K-integral sorting                         ...     0.710 sec
<ss|**>: 
------------------------------
PARTIAL COULOMB TRANSFORMATION
------------------------------

Transformation type                        ... two-operators
Dimension of the basis                     ...   32
Number of internal alpha-MOs               ...   10 (0-9)
Number of internal beta-MOs                ...    8 (0-7)
Pair cutoff                                ... 0.000e+00 Eh
Number of AO pairs included in the trafo   ...  528
Total Number of distinct AO pairs          ...  528
Memory devoted for trafo                   ... 2500.0 MB 
Max. Number of MO pairs treated together   ... 620606      
Max. Number of MOs treated per batch       ... 19393      
Number Format for Storage                  ... Double (8 Byte)
AO-integral source                         ... DIRECT
Integral package used                      ... LIBINT

Starting integral evaluation:
<sp|**>:         1638 b        0 skpd     0.001 s (  0.001 ms/b)
<sd|**>:         1404 b        0 skpd     0.010 s (  0.007 ms/b)
         936 b        0 skpd     0.011 s (  0.012 ms/b)
<sf|**>:          468 b        0 skpd     0.009 s (  0.020 ms/b)
<pp|**>:          468 b        0 skpd     0.009 s (  0.020 ms/b)
<pd|**>:          468 b        0 skpd     0.017 s (  0.037 ms/b)
<pf|**>: <dd|**>:          234 b        0 skpd     0.018 s (  0.077 ms/b)
         234 b        0 skpd     0.021 s (  0.090 ms/b)
<df|**>:          156 b        0 skpd     0.027 s (  0.172 ms/b)
<ff|**>:           78 b        0 skpd     0.017 s (  0.223 ms/b)
Closing buffer AOJ[aa] ( 0.00 GB; CompressionRatio= 0.97)
Closing buffer AOJ[bb] ( 0.00 GB; CompressionRatio= 0.00)
Collecting buffer AOJ 
    ... done with AO integral generation
Number of Alpha-MO pairs included          ...   55
Number of Beta-MO pairs included           ...   36
    ... Now sorting integrals
SORTING ALPHA/ALPHA PAIRS
IBATCH = 1 of  1
Closing buffer JAO[aa] ( 0.00 GB; CompressionRatio= 1.00)
SORTING BETA/BETA PAIRS
IBATCH = 1 of  1
Closing buffer JAO[bb] ( 0.00 GB; CompressionRatio= 1.00)
Collecting buffer JAO 
TOTAL TIME for half transformation         ...     0.381 sec
AO-integral generation                     ...     0.111 sec
Half transformation                        ...     0.031 sec
J-integral sorting                         ...     0.101 sec

-------------------------- SECOND HALF TRANSFORMATION -------------------------
Formation of (ij|kl),(ij|ka), (ij|ab)      ... ok (     0.129 sec)
Formation of (ik|jl),(ik|ja), (ia|jb)      ... ok (     0.271 sec)


-----------------------
SPIN UNRESTRICTED GUESS
-----------------------

Entering MDCI_UHF_Guess, Tailored=0
Spin-components of the MP2 energy:
EMP2(aa)=     -0.064759978
EMP2(bb)=     -0.037156997
EMP2(ab)=     -0.184525827

Initial guess performed in     0.005 sec
E(0)                                       ...   -118.393520446
E(MP2)                                     ...     -0.286442802
Initial E(tot)                             ...   -118.679963248
<T|T>                                      ...      0.081505847
Number of pairs included                   ... 153

------------------------------------------------
                  UHF COUPLED CLUSTER ITERATIONS
------------------------------------------------

Number of amplitudes to be optimized       ...        61400

Iter       E(tot)           E(Corr)          Delta-E          Residual     Time      <S|S>**1/2
  0   -118.679963248     -0.286442802     -0.000000000      0.022580433    0.09      0.000012168
                           *** Turning on DIIS ***
  1   -118.660553197     -0.267032752      0.019410051      0.007937957    0.05      0.041110351
  2   -118.665678770     -0.272158324     -0.005125572      0.004739403    0.07      0.048482952
  3   -118.667214565     -0.273694119     -0.001535795      0.001902147    0.06      0.057043070
  4   -118.667594003     -0.274073558     -0.000379439      0.000566366    0.07      0.059626989
  5   -118.667638191     -0.274117745     -0.000044188      0.000155011    0.07      0.060348592
  6   -118.667646431     -0.274125985     -0.000008240      0.000058179    0.06      0.060468633
  7   -118.667646303     -0.274125857      0.000000128      0.000053345    0.06      0.060461440
  8   -118.667645585     -0.274125140      0.000000718      0.000053581    0.06      0.060450209
  9   -118.667645755     -0.274125310     -0.000000170      0.000053372    0.06      0.060447409
 10   -118.667645832     -0.274125386     -0.000000077      0.000052101    0.06      0.060447344
 11   -118.667646563     -0.274126117     -0.000000731      0.000047417    0.07      0.060460392
 12   -118.667649195     -0.274128750     -0.000002633      0.000025089    0.07      0.060689592
 13   -118.667652236     -0.274131790     -0.000003041      0.000005917    0.06      0.061082181
               --- The Coupled-Cluster iterations have converged ---

----------------------
COUPLED CLUSTER ENERGY
----------------------

E(0)                                       ...   -118.393520446
E(CORR)                                    ...     -0.274131790
E(TOT)                                     ...   -118.667652236
Singles norm <S|S>**1/2                    ...      0.061082181 ( 0.036085641, 0.024996540)  
T1 diagnostic                              ...      0.014397208                              

------------------
LARGEST AMPLITUDES
------------------
   9a-> 13a  -1a-> -1a       0.045520
   4b-> 14b  -1b-> -1b       0.028436
   5b-> 15b  -1b-> -1b       0.026853
   6b-> 16b  -1b-> -1b       0.026782
   8a-> 18a   7b-> 17b       0.026444
   7a-> 17a   6b-> 16b       0.026431
   6a-> 16a   5b-> 15b       0.026375
   5a-> 23a   4a-> 22a       0.026147
   5a-> 22a   4a-> 23a       0.026147
   7b-> 17b  -1b-> -1b       0.025793
   5a-> 15a   4b-> 14b       0.024867
   8a-> 28a   7b-> 25b       0.024027
   9a-> 12a   7b-> 11b       0.022983
   8a-> 27a   7a-> 28a       0.021710
   8a-> 28a   7a-> 27a       0.021710
   7a-> 17a   7b-> 17b       0.021396

----------------------
UHF TRIPLES CORRECTION (Algorithm 1)
----------------------

Multiplier for the singles contribution    ...      1.000000000

SPIN-CASE Alpha-Alpha-Alpha:
10% done
20% done
30% done
40% done
50% done
60% done
70% done
80% done
90% done


SPIN-CASE Beta-Beta-Beta:
10% done
20% done
30% done
40% done
50% done
60% done
70% done
80% done
90% done


SPIN-CASE Alpha-Alpha-Beta:
10% done
20% done
30% done
40% done
50% done
60% done
70% done
80% done
90% done


SPIN-CASE Beta-Beta-Alpha:
10% done
20% done
30% done
40% done
50% done
60% done
70% done
80% done
90% done


Triples Correction (T)                     ...     -0.005902912
    alpha-alpha-alpha ... -0.000413140 (  7.0%)
    alpha-alpha-beta  ... -0.003274977 ( 55.5%)
    alpha-beta -beta  ... -0.002097811 ( 35.5%)
    beta -beta -beta  ... -0.000116984 (  2.0%)
Scaling of triples based on CCSD energies (Peterson et al. Molecular Physics 113, 1551 (2015))
E(T*) = f*E(T) where f = E(F12-CCSD)/E(CCSD) 
f = CCSD (with F12)/ CCSD (without F12)    ...      1.000000000
Scaled triples correction (T)              ...     -0.005902912

Final correlation energy                   ...     -0.280034702
E(CCSD)                                    ...   -118.667652236
E(CCSD(T))                                 ...   -118.673555148



        !!!!!!!!!!!!!!!!!!!!!!!!!!!!!!!!!!!!!!!!!!!!!!!!!!!!!!!!!!!!!!!!!!!!!!!!!! 
        !  Warning: Densities are linearized densities                           !
        !!!!!!!!!!!!!!!!!!!!!!!!!!!!!!!!!!!!!!!!!!!!!!!!!!!!!!!!!!!!!!!!!!!!!!!!!! 

NORM  =      1.087202282 sqrt=     1.042689926
W(HF) =      0.919792035
------------------------------------------------------------------------------
                           ORCA POPULATION ANALYSIS
------------------------------------------------------------------------------
Input electron density              ... 78_Pt.mdcip
Input spin density                  ... 78_Pt.mdcir
BaseName (.gbw .S,...)              ... 78_Pt

                    ********************************
                    * MULLIKEN POPULATION ANALYSIS *
                    ********************************

------------------------------------------
MULLIKEN ATOMIC CHARGES AND SPIN DENSITIES
------------------------------------------
   0 Pt:   -0.000000    2.000000
Sum of atomic charges       :   -0.0000000
Sum of atomic spin densities:    2.0000000

---------------------------------------------------
MULLIKEN REDUCED ORBITAL CHARGES AND SPIN DENSITIES
---------------------------------------------------
CHARGE
  0 Pts       :     2.991851  s :     2.991851
      pz      :     2.006109  p :     6.023212
      px      :     2.006239
      py      :     2.010865
      dz2     :     1.231605  d :     8.919656
      dxz     :     1.981527
      dyz     :     1.980221
      dx2y2   :     1.746126
      dxy     :     1.980176
      f0      :     0.008079  f :     0.065281
      f+1     :     0.008335
      f-1     :     0.009242
      f+2     :     0.009921
      f-2     :     0.010312
      f+3     :     0.009695
      f-3     :     0.009698

SPIN
  0 Pts       :     0.984896  s :     0.984896
      pz      :     0.005322  p :     0.012881
      px      :     0.005232
      py      :     0.002327
      dz2     :     0.752399  d :     0.996727
      dxz     :     0.001925
      dyz     :     0.002780
      dx2y2   :     0.236810
      dxy     :     0.002813
      f0      :     0.002119  f :     0.005496
      f+1     :     0.001706
      f-1     :     0.000947
      f+2     :     0.000101
      f-2     :    -0.000349
      f+3     :     0.000488
      f-3     :     0.000483


                     *******************************
                     * LOEWDIN POPULATION ANALYSIS *
                     *******************************

-----------------------------------------
LOEWDIN ATOMIC CHARGES AND SPIN DENSITIES
-----------------------------------------
   0 Pt:   -0.000000    2.000000

--------------------------------------------------
LOEWDIN REDUCED ORBITAL CHARGES AND SPIN DENSITIES
--------------------------------------------------
CHARGE
  0 Pts       :     2.991851  s :     2.991851
      pz      :     2.006109  p :     6.023212
      px      :     2.006239
      py      :     2.010865
      dz2     :     1.231605  d :     8.919656
      dxz     :     1.981527
      dyz     :     1.980221
      dx2y2   :     1.746126
      dxy     :     1.980176
      f0      :     0.008079  f :     0.065281
      f+1     :     0.008335
      f-1     :     0.009242
      f+2     :     0.009921
      f-2     :     0.010312
      f+3     :     0.009695
      f-3     :     0.009698

SPIN
  0 Pts       :     0.984896  s :     0.984896
      pz      :     0.005322  p :     0.012881
      px      :     0.005232
      py      :     0.002327
      dz2     :     0.752399  d :     0.996727
      dxz     :     0.001925
      dyz     :     0.002780
      dx2y2   :     0.236810
      dxy     :     0.002813
      f0      :     0.002119  f :     0.005496
      f+1     :     0.001706
      f-1     :     0.000947
      f+2     :     0.000101
      f-2     :    -0.000349
      f+3     :     0.000488
      f-3     :     0.000483


                      *****************************
                      * MAYER POPULATION ANALYSIS *
                      *****************************

  NA   - Mulliken gross atomic population
  ZA   - Total nuclear charge
  QA   - Mulliken gross atomic charge
  VA   - Mayer's total valence
  BVA  - Mayer's bonded valence
  FA   - Mayer's free valence

  ATOM       NA         ZA         QA         VA         BVA        FA
  0 Pt    18.0000    18.0000    -0.0000     2.5651     0.0000     2.5651





------------------------------------------------------------------------------- 
                                     TIMINGS                                   
------------------------------------------------------------------------------- 


Total execution time                   ...        4.768 sec

Fock Matrix Formation                  ...        0.059 sec (  1.2%)
Initial Guess                          ...        0.005 sec (  0.1%)
DIIS Solver                            ...        0.095 sec (  2.0%)
State Vector Update                    ...        0.008 sec (  0.2%)
Sigma-vector construction              ...        0.785 sec ( 16.5%)
  <D|H|D>(0-ext Fock)                  ...        0.002 sec (  0.2% of sigma)
  <D|H|D>(0-ext)                       ...        0.004 sec (  0.5% of sigma)
  <D|H|D>(2-ext)                       ...        0.017 sec (  2.2% of sigma)
  <D|H|D>(4-ext)                       ...        0.209 sec ( 26.6% of sigma)
  <S|H|0>                              ...        0.022 sec (  2.8% of sigma)
  <D|H|S>(1-ext)                       ...        0.010 sec (  1.3% of sigma)
  Fock-dressing                        ...        0.220 sec ( 28.0% of sigma)
  (ik|jl)-dressing                     ...        0.008 sec (  1.0% of sigma)
  (ij|ab),(ia|jb)-dressing             ...        0.216 sec ( 27.5% of sigma)
  Pair energies                        ...        0.002 sec (  0.3% of sigma)
Total Time for computing (T)           ...        0.028 sec (  0.6% of ALL)
  I/O of integral and amplitudes       ...        0.004 sec ( 14.8% of (T))
  External N**7 contributions          ...        0.002 sec (  7.8% of (T))
  Internal N**7 contributions          ...        0.001 sec (  4.0% of (T))
  N**6 triples energy contributions    ...        0.008 sec ( 28.0% of (T))


-------------------------   --------------------
FINAL SINGLE POINT ENERGY      -118.673555148112
-------------------------   --------------------


                            ***************************************
                            *     ORCA property calculations      *
                            ***************************************

                                    ---------------------
                                    Active property flags
                                    ---------------------
   (+) Dipole Moment


------------------------------------------------------------------------------
                       ORCA ELECTRIC PROPERTIES CALCULATION
------------------------------------------------------------------------------

Dipole Moment Calculation                       ... on
Quadrupole Moment Calculation                   ... off
Polarizability Calculation                      ... off
GBWName                                         ... 78_Pt.gbw
Electron density file                           ... 78_Pt.scfp
The origin for moment calculation is the CENTER OF MASS  = ( 0.000000,  0.000000  0.000000)

-------------
DIPOLE MOMENT
-------------
                                X             Y             Z
Electronic contribution:     -0.00000       0.00000      -0.00000
Nuclear contribution   :      0.00000       0.00000       0.00000
                        -----------------------------------------
Total Dipole Moment    :     -0.00000       0.00000      -0.00000
                        -----------------------------------------
Magnitude (a.u.)       :      0.00000
Magnitude (Debye)      :      0.00000



--------------------
Rotational spectrum 
--------------------
 
Rotational constants in cm-1:     0.000000     0.000000     0.000000 
Rotational constants in MHz :     0.000000     0.000000     0.000000 

 Dipole components along the rotational axes: 
x,y,z [a.u.] :    -0.000000     0.000000    -0.000000 
x,y,z [Debye]:    -0.000000     0.000000    -0.000000 

 

                           *** MDCI DENSITY ***

------------------------------------------------------------------------------
                       ORCA ELECTRIC PROPERTIES CALCULATION
------------------------------------------------------------------------------

Dipole Moment Calculation                       ... on
Quadrupole Moment Calculation                   ... off
Polarizability Calculation                      ... off
GBWName                                         ... 78_Pt.gbw
Electron density file                           ... 78_Pt.mdcip
The origin for moment calculation is the CENTER OF MASS  = ( 0.000000,  0.000000  0.000000)

-------------
DIPOLE MOMENT
-------------
                                X             Y             Z
Electronic contribution:     -0.00000      -0.00000      -0.00000
Nuclear contribution   :      0.00000       0.00000       0.00000
                        -----------------------------------------
Total Dipole Moment    :     -0.00000      -0.00000      -0.00000
                        -----------------------------------------
Magnitude (a.u.)       :      0.00000
Magnitude (Debye)      :      0.00000



--------------------
Rotational spectrum 
--------------------
 
Rotational constants in cm-1:     0.000000     0.000000     0.000000 
Rotational constants in MHz :     0.000000     0.000000     0.000000 

 Dipole components along the rotational axes: 
x,y,z [a.u.] :    -0.000000    -0.000000    -0.000000 
x,y,z [Debye]:    -0.000000    -0.000000    -0.000000 

 

Timings for individual modules:

Sum of individual times         ...       18.880 sec (=   0.315 min)
GTO integral calculation        ...        0.826 sec (=   0.014 min)   4.4 %
SCF iterations                  ...       12.860 sec (=   0.214 min)  68.1 %
MDCI module                     ...        5.193 sec (=   0.087 min)  27.5 %
                             ****ORCA TERMINATED NORMALLY****
TOTAL RUN TIME: 0 days 0 hours 0 minutes 19 seconds 883 msec
