
                                 *****************
                                 * O   R   C   A *
                                 *****************

           --- An Ab Initio, DFT and Semiempirical electronic structure package ---

                  #######################################################
                  #                        -***-                        #
                  #          Department of theory and spectroscopy      #
                  #               Directorship: Frank Neese             #
                  #        Max Planck Institute fuer Kohlenforschung    #
                  #                Kaiser Wilhelm Platz 1               #
                  #                 D-45470 Muelheim/Ruhr               #
                  #                      Germany                        #
                  #                                                     #
                  #                  All rights reserved                #
                  #                        -***-                        #
                  #######################################################


                         Program Version 4.2.0 -  RELEASE  -


 With contributions from (in alphabetic order):
   Daniel Aravena         : Magnetic Suceptibility
   Michael Atanasov       : Ab Initio Ligand Field Theory (pilot matlab implementation)
   Alexander A. Auer      : GIAO ZORA, VPT2
   Ute Becker             : Parallelization
   Giovanni Bistoni       : ED, misc. LED, open-shell LED, HFLED
   Martin Brehm           : Molecular dynamics
   Dmytro Bykov           : SCF Hessian
   Vijay G. Chilkuri      : MRCI spin determinant printing, contributions to CSF-ICE
   Dipayan Datta          : RHF DLPNO-CCSD density
   Achintya Kumar Dutta   : EOM-CC, STEOM-CC
   Dmitry Ganyushin       : Spin-Orbit,Spin-Spin,Magnetic field MRCI
   Miquel Garcia          : C-PCM Hessian, Gaussian charge scheme
   Yang Guo               : DLPNO-NEVPT2, CIM, IAO-localization
   Andreas Hansen         : Spin unrestricted coupled pair/coupled cluster methods
   Benjamin Helmich-Paris : CASSCF linear response (MC-RPA)
   Lee Huntington         : MR-EOM, pCC
   Robert Izsak           : Overlap fitted RIJCOSX, COSX-SCS-MP3, EOM
   Christian Kollmar      : KDIIS, OOCD, Brueckner-CCSD(T), CCSD density
   Simone Kossmann        : Meta GGA functionals, TD-DFT gradient, OOMP2, MP2 Hessian
   Martin Krupicka        : AUTO-CI
   Lucas Lang             : DCDCAS
   Dagmar Lenk            : GEPOL surface, SMD
   Dimitrios Liakos       : Extrapolation schemes; Compound Job, initial MDCI parallelization
   Dimitrios Manganas     : Further ROCIS development; embedding schemes
   Dimitrios Pantazis     : SARC Basis sets
   Taras Petrenko         : DFT Hessian,TD-DFT gradient, ASA, ECA, R-Raman, ABS, FL, XAS/XES, NRVS
   Peter Pinski           : DLPNO-MP2, DLPNO-MP2 Gradient
   Christoph Reimann      : Effective Core Potentials
   Marius Retegan         : Local ZFS, SOC
   Christoph Riplinger    : Optimizer, TS searches, QM/MM, DLPNO-CCSD(T), (RO)-DLPNO pert. Triples
   Tobias Risthaus        : Range-separated hybrids, TD-DFT gradient, RPA, STAB
   Michael Roemelt        : Original ROCIS implementation
   Masaaki Saitow         : Open-shell DLPNO-CCSD energy and density
   Barbara Sandhoefer     : DKH picture change effects
   Avijit Sen             : IP-ROCIS
   Kantharuban Sivalingam : CASSCF convergence, NEVPT2, FIC-MRCI
   Bernardo de Souza      : ESD, SOC TD-DFT
   Georgi Stoychev        : AutoAux, RI-MP2 NMR
   Willem Van den Heuvel  : Paramagnetic NMR
   Boris Wezisla          : Elementary symmetry handling
   Frank Wennmohs         : Technical directorship


 We gratefully acknowledge several colleagues who have allowed us to
 interface, adapt or use parts of their codes:
   Stefan Grimme, W. Hujo, H. Kruse,             : VdW corrections, initial TS optimization,
                  C. Bannwarth                     DFT functionals, gCP, sTDA/sTD-DF
   Ed Valeev, F. Pavosevic, A. Kumar             : LibInt (2-el integral package), F12 methods
   Garnet Chan, S. Sharma, J. Yang, R. Olivares  : DMRG
   Ulf Ekstrom                                   : XCFun DFT Library
   Mihaly Kallay                                 : mrcc  (arbitrary order and MRCC methods)
   Andreas Klamt, Michael Diedenhofen            : otool_cosmo (COSMO solvation model)
   Jiri Pittner, Ondrej Demel                    : Mk-CCSD
   Frank Weinhold                                : gennbo (NPA and NBO analysis)
   Christopher J. Cramer and Donald G. Truhlar   : smd solvation model
   Lars Goerigk                                  : TD-DFT with DH, B97 family of functionals
   V. Asgeirsson, H. Jonsson                     : NEB implementation
   FAccTs GmbH                                   : IRC, NEB, NEB-TS, Multilevel, MM, QM/MM, CI optimization
   S Lehtola, MJT Oliveira, MAL Marques          : LibXC Library


 Your calculation uses the libint2 library for the computation of 2-el integrals
 For citations please refer to: http://libint.valeyev.net

 Your ORCA version has been built with support for libXC version: 4.2.3
 For citations please refer to: https://tddft.org/programs/libxc/

 This ORCA versions uses:
   CBLAS   interface :  Fast vector & matrix operations
   LAPACKE interface :  Fast linear algebra routines
   SCALAPACK package :  Parallel linear algebra routines


----- Orbital basis set information -----
Your calculation utilizes the basis: def2-SVP
   F. Weigend and R. Ahlrichs, Phys. Chem. Chem. Phys. 7, 3297 (2005).

----- AuxJ basis set information -----
Your calculation utilizes the auxiliary basis: def2/J
   F. Weigend, Phys. Chem. Chem. Phys. 8, 1057 (2006).

================================================================================
                                        WARNINGS
                       Please study these warnings very carefully!
================================================================================


INFO   : the flag for use of LIBINT has been found!

================================================================================
                                       INPUT FILE
================================================================================
NAME = 80_Hg_atom80.inp
|  1> # input to generate an atomic fitting density for Hg
|  2> # this file is use internally by ORCA
|  3> #
|  4> # atomic ground state (S=1): 1s2 2s2 2p6 3s2 3p6 4s2 3d10 4p6 5s2 4d10 5p6 6s2 4f14 5d10 
|  5> #
|  6> ! RHF AllowRHF def2-SVP def2/J  NoMulliken NoLoewdin NoMayer NoPrintMOs 
|  7> 
|  8> %output print[p_atomdensfit] 2 end
|  9> 
| 10> %scf
| 11>   guess hcore
| 12>   maxiter 1000
| 13>   maxdisk 500000
| 14>   SCFMode Conventional
| 15>   lshift 1.000000
| 16>   hftyp rohf
| 17>   rohf_case sahf
| 18>   rohf_numop   2
| 19>   rohf_norb[1] 5
| 20>   rohf_nel[1]  10
| 21> end
| 22> 
| 23> %basis
| 24>   NewECP 80
| 25>     N_core 60
| 26>     lmax f
| 27>     s 3
| 28>       1      12.9815487000    275.7372117000  2
| 29>       2       6.4907744000     49.0892125000  2
| 30>       3       3.8857911000    -30.3649964000  2
| 31>     p 3
| 32>       1      10.5380958000    241.5400740000  2
| 33>       2       5.2690479000     27.3965908000  2
| 34>       3       3.8857911000    -30.3649964000  2
| 35>     d 3
| 36>       1       8.1017205000    127.8670076000  2
| 37>       2       4.0508603000     16.6083115000  2
| 38>       3       3.8857911000    -30.3649964000  2
| 39>     f 1
| 40>       1       3.8857911000     30.3649964000  2
| 41>   end
| 42>   NewGTO 80
| 43>     s 2 
| 44>      1      26.8420490000     -0.0337639468
| 45>      2      10.3209090000      1.0284638332
| 46>     s 1 
| 47>      1       6.3656242291      1.0000000000
| 48>     s 1 
| 49>      1       1.3898932095      1.0000000000
| 50>     s 1 
| 51>      1       0.6370674270      1.0000000000
| 52>     s 1 
| 53>      1       0.1604772510      1.0000000000
| 54>     s 1 
| 55>      1       0.0564104235      1.0000000000
| 56>     p 4 
| 57>      1       9.7729900000      0.2280750691
| 58>      2       7.1690950000     -0.4734024420
| 59>      3       1.7559567931      0.6280260986
| 60>      4       0.8314567042      0.5307509833
| 61>     p 1 
| 62>      1       0.3449491766      1.0000000000
| 63>     p 1 
| 64>      1       0.0700000000      1.0000000000
| 65>     d 4 
| 66>      1       4.2800000000     -0.3524097817
| 67>      2       3.4800000000      0.4152829297
| 68>      3       1.2535869926      0.5318287562
| 69>      4       0.5084136686      0.4784860850
| 70>     d 1 
| 71>      1       0.1850159939      1.0000000000
| 72>   end
| 73>   NewAuxGTO 80
| 74>     S 1
| 75>      1 1310.72 1.0
| 76>     S 1
| 77>      1  655.36 1.0
| 78>     S 1
| 79>      1  327.68 1.0
| 80>     S 1
| 81>      1  163.84 1.0
| 82>     S 1
| 83>      1   81.82 1.0
| 84>     S 1
| 85>      1   40.96 1.0
| 86>     S 1
| 87>      1   20.48 1.0
| 88>     S 1
| 89>      1   10.24 1.0
| 90>     S 1
| 91>      1    5.12 1.0
| 92>     S 1
| 93>      1    2.56 1.0
| 94>     S 1
| 95>      1    1.28 1.0
| 96>     S 1
| 97>      1    0.64 1.0
| 98>     S 1
| 99>      1    0.32 1.0
|100>     S 1
|101>      1    0.16 1.0
|102>     S 1
|103>      1    0.08 1.0
|104>     S 1
|105>      1    0.04 1.0
|106>     S 1
|107>      1    0.02 1.0
|108>     S 1
|109>      1    0.01 1.0
|110>   end
|111> end
|112> 
|113> * xyz 0 1
|114> 80  0.0 0.0 0.0
|115> *
|116> 
|117> 
|118>                          ****END OF INPUT****
================================================================================

                       ****************************
                       * Single Point Calculation *
                       ****************************

---------------------------------
CARTESIAN COORDINATES (ANGSTROEM)
---------------------------------
  Hg     0.000000    0.000000    0.000000

----------------------------
CARTESIAN COORDINATES (A.U.)
----------------------------
  NO LB      ZA    FRAG     MASS         X           Y           Z
   0 Hg   20.0000*   0   200.590    0.000000    0.000000    0.000000
* core charge reduced due to ECP

--------------------------------
INTERNAL COORDINATES (ANGSTROEM)
--------------------------------
 Hg     0   0   0     0.000000000000     0.00000000     0.00000000

---------------------------
INTERNAL COORDINATES (A.U.)
---------------------------
 Hg     0   0   0     0.000000000000     0.00000000     0.00000000

---------------------
BASIS SET INFORMATION
---------------------
There are 1 groups of distinct atoms

 Group   1 Type Hg  : 7s6p5d contracted to 6s3p2d pattern {211111/411/41}

Atom   0Hg   basis set group =>   1
---------------------------------
AUXILIARY/J BASIS SET INFORMATION
---------------------------------
There are 1 groups of distinct atoms

 Group   1 Type Hg  : 18s contracted to 18s pattern {111111111111111111}

Atom   0Hg   basis set group =>   1
-------------------------
ECP PARAMETER INFORMATION
-------------------------

 Group 1, Type Hg ECP (replacing 60 core electrons, lmax=3)

Atom   0Hg   ECP group =>   1

------------------------------------------------------------------------------
                           ORCA GTO INTEGRAL CALCULATION
------------------------------------------------------------------------------

                         BASIS SET STATISTICS AND STARTUP INFO

 # of primitive gaussian shells          ...   18
 # of primitive gaussian functions       ...   50
 # of contracted shells                  ...   11
 # of contracted basis functions         ...   25
 Highest angular momentum                ...    2
 Maximum contraction depth               ...    4
 Integral package used                   ... LIBINT
 Integral threshhold            Thresh   ...  1.000e-10
 Primitive cut-off              TCut     ...  1.000e-11
 Storage cut-off                TCutStore... -1.000e+00
 Buffer length                           ... 1048576 integrals/buffer
 Generate file with integrals 4 distinct ...false


------------------------------ INTEGRAL EVALUATION ----------------------------


 * One electron integrals 

   ECP integrals                         ... done
 Pre-screening matrix                    ... done
 Shell pair data                         ... done (   0.000 sec)
 Statistics run                          ... done
 Maximum amount of storage needed        ...     0 MB
 Maximum amount of storage dedicated     ... 500000 MB
 Beginning two electron integral evaluation:
 Starting repulsion integrals
  <ss|ss>  ...          231 b.         0 skpd (  0.0%)     0.000 s. (  0.000 ms/b)
  <ss|sp>  ...          378 b.         0 skpd (  0.0%)     0.000 s. (  0.000 ms/b)
  <ss|sd>  ...          252 b.         0 skpd (  0.0%)     0.000 s. (  0.000 ms/b)
  <ss|pp>  ...          126 b.         0 skpd (  0.0%)     0.000 s. (  0.001 ms/b)
  <ss|pd>  ...          126 b.         0 skpd (  0.0%)     0.000 s. (  0.001 ms/b)
  <ss|dd>  ...           63 b.         0 skpd (  0.0%)     0.000 s. (  0.002 ms/b)
  <sp|sp>  ...          171 b.         0 skpd (  0.0%)     0.000 s. (  0.001 ms/b)
  <sp|sd>  ...          216 b.         0 skpd (  0.0%)     0.000 s. (  0.001 ms/b)
  <sp|pp>  ...          108 b.         0 skpd (  0.0%)     0.000 s. (  0.002 ms/b)
  <sp|pd>  ...          108 b.         0 skpd (  0.0%)     0.000 s. (  0.003 ms/b)
  <sp|dd>  ...           54 b.         0 skpd (  0.0%)     0.000 s. (  0.007 ms/b)
  <sd|sd>  ...           78 b.         0 skpd (  0.0%)     0.000 s. (  0.002 ms/b)
  <sd|pp>  ...           72 b.         0 skpd (  0.0%)     0.000 s. (  0.004 ms/b)
  <sd|pd>  ...           72 b.         0 skpd (  0.0%)     0.001 s. (  0.008 ms/b)
  <sd|dd>  ...           36 b.         0 skpd (  0.0%)     0.001 s. (  0.020 ms/b)
  <pp|pp>  ...           21 b.         0 skpd (  0.0%)     0.000 s. (  0.008 ms/b)
  <pp|pd>  ...           36 b.         0 skpd (  0.0%)     0.000 s. (  0.013 ms/b)
  <pp|dd>  ...           18 b.         0 skpd (  0.0%)     0.001 s. (  0.033 ms/b)
  <pd|pd>  ...           21 b.         0 skpd (  0.0%)     0.001 s. (  0.038 ms/b)
  <pd|dd>  ...           18 b.         0 skpd (  0.0%)     0.001 s. (  0.082 ms/b)
  <dd|dd>  ...            6 b.         0 skpd (  0.0%)     0.002 s. (  0.276 ms/b)


                                      INTEGRAL STATISTICS

Integral type statistics:
 Number of integrals retained            ...      52975 
 One   Center Integrals retained         ...      52975 (100.0%)
 Two   Center Integrals retained         ...          0 (  0.0%)
 Three Center Integrals retained         ...          0 (  0.0%)
 Four  Center Integrals retained         ...          0 (  0.0%)

Storage statistics:
 Number of char integrals                ...          0 (  0.0%)
 Number of short int integrals           ...          0 (  0.0%)
 Number of double/float integrals        ...      52975 (100.0%)
 Amount of memory used                   ...          0 MB
 Amount of memory estimated              ...          0 MB ( 92.8%)

Prescreening statistics:
 Total number of shell quadruples        ...       2211 
 Number of skipped shell quadruples      ...          0 (  0.0%)
 # of negligible batches done            ...          0 (  0.0%)

Timings:
 Total evaluation time               ...     0.183 sec (   0.003 min)
 One electron matrix time            ...     0.023 sec (   0.000 min) = 12.8%
 Schwartz matrix evaluation time     ...     0.070 sec (   0.001 min) = 38.1%
 Statistics run                      ...     0.000 sec (   0.000 min) =  0.3%
 Repulsion integral time             ...     0.009 sec (   0.000 min) =  4.8%

-------------------------------------------------------------------------------
                                 ORCA SCF
-------------------------------------------------------------------------------

------------
SCF SETTINGS
------------
Hamiltonian:
 Ab initio Hamiltonian  Method          .... Hartree-Fock(GTOs)


General Settings:
 Integral files         IntName         .... 80_Hg_atom80
 Hartree-Fock type      HFTyp           .... ROHF
 Total Charge           Charge          ....    0
 Multiplicity           Mult            ....    1
 Number of Electrons    NEL             ....   20
 Basis Dimension        Dim             ....   25
 Nuclear Repulsion      ENuc            ....      0.0000000000 Eh

Convergence Acceleration:
 DIIS                   CNVDIIS         .... on
   Start iteration      DIISMaxIt       ....    12
   Startup error        DIISStart       ....  0.200000
   # of expansion vecs  DIISMaxEq       ....     5
   Bias factor          DIISBfac        ....   1.050
   Max. coefficient     DIISMaxC        ....  10.000
 Newton-Raphson         CNVNR           .... off
 SOSCF                  CNVSOSCF        .... off
 Level Shifting         CNVShift        .... on
   Level shift para.    LevelShift      ....    1.0000
   Turn off err/grad.   ShiftErr        ....    0.0010
 Zerner damping         CNVZerner       .... off
 Static damping         CNVDamp         .... on
   Fraction old density DampFac         ....    0.7000
   Max. Damping (<1)    DampMax         ....    0.9800
   Min. Damping (>=0)   DampMin         ....    0.0000
   Turn off err/grad.   DampErr         ....    0.1000
 Fernandez-Rico         CNVRico         .... off

SCF Procedure:
 Maximum # iterations   MaxIter         ....  1000
 SCF integral mode      SCFMode         .... Conventional
 Integral Threshold     Thresh          ....  1.000e-10 Eh
 Primitive CutOff       TCut            ....  1.000e-11 Eh
 Integral Buffer length BufferLength    .... 1048576
 Integral index format  IndFormat       ....     0
 Integral value format  ValFormat       ....     0
 Integral Storage       Thresh          ....  1.000e-10 Eh

Convergence Tolerance:
 Convergence Check Mode ConvCheckMode   .... Total+1el-Energy
 Convergence forced     ConvForced      .... 0
 Energy Change          TolE            ....  1.000e-06 Eh
 1-El. energy change                    ....  1.000e-03 Eh
 DIIS Error             TolErr          ....  1.000e-06


Diagonalization of the overlap matrix:
Smallest eigenvalue                        ... 1.055e-02
Time for diagonalization                   ...    0.000 sec
Threshold for overlap eigenvalues          ... 1.000e-08
Number of eigenvalues below threshold      ... 0
Time for construction of square roots      ...    0.002 sec
Total time needed                          ...    0.002 sec

--------------------
INITIAL GUESS: HCORE
--------------------
AVERAGE-CONFIGURATION (SAHF) CASE FOUND

-------------------
FINAL ROHF SETTINGS
-------------------
Number of operators             ... 2
  operator   0:   5 orbitals  10 electrons n(mue)= 2.000
  operator   1:   5 orbitals  10 electrons n(mue)= 2.000
Vector coupling coefficients a and b (Zerner convention):
   1.000    1.000           1.000    1.000 
   1.000    1.000           1.000    1.000 

                      -----------------
                      INTIAL GUESS DONE 
                      -----------------

 InCore treatment chosen:
   Memory dedicated               ...    1024 MB
   Memory needed                  ...      0 MB
   Number of tiny    integrals    ...       0
   Number of small   integrals    ...       0
   Number of regular integrals    ...   52975

--------------
SCF ITERATIONS
--------------
ITER       Energy         Delta-E        Max-DP      RMS-DP      [F,P]     Damp
  0   -146.7588941538   0.000000000000 2.33305559  0.11672735  1.1951911 0.7000
  1   -150.0757747929  -3.316880639099 1.88360023  0.09196731  0.7011309 0.7000
  2   -151.1458397527  -1.070064959767 1.38338250  0.06632390  0.2289396 0.7000
                            ****Activating DIIS****
  3   -151.5644994896  -0.418659736926 3.27443874  0.15546391  0.0976749 0.0000
  4   -152.4111418853  -0.846642395711 0.00355078  0.00025273  0.1513608 0.7000
  5   -152.3988376558   0.012304229557 0.00413451  0.00026442  0.1606388 0.7000
  6   -152.3954687971   0.003368858688 0.00315680  0.00019576  0.1620040 0.7000
  7   -152.3937096432   0.001759153930 0.00288280  0.00013579  0.1627463 0.7000
  8   -152.4028038571  -0.009094213984 0.02988134  0.00259431  0.1555922 0.7000
  9   -152.4938517425  -0.091047885329 0.14425212  0.00956821  0.0494646 0.0000
 10   -152.5307294625  -0.036877720050 0.02748690  0.00196218  0.0526609 0.0000
 11   -152.5382595639  -0.007530101336 0.05940369  0.00269132  0.0397786 0.0000
 12   -152.5435124635  -0.005252899616 0.11771158  0.00459992  0.0304293 0.0000
 13   -152.5485102421  -0.004997778627 0.06978236  0.00255825  0.0164482 0.0000
 14   -152.5498696901  -0.001359448029 0.04091026  0.00151953  0.0087279 0.0000
 15   -152.5502734441  -0.000403753932 0.02034063  0.00076366  0.0042397 0.0000
 16   -152.5503702813  -0.000096837267 0.01235406  0.00046947  0.0019229 0.0000
 17   -152.5503963118  -0.000026030440 0.00454474  0.00017592  0.0007628 0.0000
 18   -152.5503992964  -0.000002984622 0.00034835  0.00002447  0.0002836 0.0000
                 **** Energy Check signals convergence ****

               *****************************************************
               *                     SUCCESS                       *
               *           SCF CONVERGED AFTER  19 CYCLES          *
               *****************************************************


----------------
TOTAL SCF ENERGY
----------------

Total Energy       :         -152.55039954 Eh           -4151.10741 eV

Components:
Nuclear Repulsion  :            0.00000000 Eh               0.00000 eV
Electronic Energy  :         -152.55039954 Eh           -4151.10741 eV
One Electron Energy:         -270.13983934 Eh           -7350.87874 eV
Two Electron Energy:          117.58943980 Eh            3199.77133 eV

Virial components:
Potential Energy   :         -203.62741305 Eh           -5540.98361 eV
Kinetic Energy     :           51.07701350 Eh            1389.87620 eV
Virial Ratio       :            3.98667422


---------------
SCF CONVERGENCE
---------------

  Last Energy change         ...   -2.4792e-07  Tolerance :   1.0000e-06
  Last MAX-Density change    ...    3.2236e-04  Tolerance :   1.0000e-05
  Last RMS-Density change    ...    1.3797e-05  Tolerance :   1.0000e-06
  Last DIIS Error            ...    7.6991e-05  Tolerance :   1.0000e-06

             **** THE GBW FILE WAS UPDATED (80_Hg_atom80.gbw) ****
             **** DENSITY FILE WAS UPDATED (80_Hg_atom80.scfp) ****
             **** ENERGY FILE WAS UPDATED (80_Hg_atom80.en.tmp) ****
             **** THE GBW FILE WAS UPDATED (80_Hg_atom80.gbw) ****
             **** DENSITY FILE WAS UPDATED (80_Hg_atom80.scfp) ****
----------------
ORBITAL ENERGIES
----------------

  NO   OCC          E(Eh)            E(eV) 
   0   2.0000      -4.879291      -132.7723 
   1   2.0000      -3.031245       -82.4844 
   2   2.0000      -3.031245       -82.4844 
   3   2.0000      -3.031245       -82.4844 
   4   2.0000      -0.603471       -16.4213 
   5   2.0000      -0.603475       -16.4214 
   6   2.0000      -0.603473       -16.4213 
   7   2.0000      -0.603473       -16.4213 
   8   2.0000      -0.603472       -16.4213 
   9   2.0000      -0.490484       -13.3468 
  10   0.0000       0.083041         2.2597 
  11   0.0000       0.083041         2.2597 
  12   0.0000       0.083041         2.2597 
  13   0.0000       0.263687         7.1753 
  14   0.0000       0.658371        17.9152 
  15   0.0000       0.658372        17.9152 
  16   0.0000       0.658372        17.9152 
  17   0.0000       0.658372        17.9152 
  18   0.0000       0.658373        17.9152 
  19   0.0000       1.062009        28.8987 
  20   0.0000       1.062009        28.8987 
  21   0.0000       1.062009        28.8987 
  22   0.0000       2.344321        63.7922 
  23   0.0000      33.613002       914.6563 
  24   0.0000     121.686379      3311.2547 
--------------------------
ATOM BASIS FOR ELEMENT Hg
--------------------------
 NewGTO Hg
 S 7
    1         26.842049000000         0.016630809157
    2         10.320909000000        -0.506581349502
    3          6.365624229100         1.074735906898
    4          1.389893209500        -1.067592493902
    5          0.637067427000        -0.387402095504
    6          0.160477251000         0.114298486666
    7          0.056410423500         0.102364275119
 S 7
    1         26.842049000000         0.002634182643
    2         10.320909000000        -0.080238296615
    3          6.365624229100         0.188623201595
    4          1.389893209500        -0.365547100774
    5          0.637067427000        -0.116477284135
    6          0.160477251000         0.651375269253
    7          0.056410423500         0.532135155621
 S 7
    1         26.842049000000         0.003929402098
    2         10.320909000000        -0.119691218808
    3          6.365624229100         0.272073230682
    4          1.389893209500        -0.269533354134
    5          0.637067427000        -0.667037476107
    6          0.160477251000         2.352385797153
    7          0.056410423500        -1.899650584675
 S 7
    1         26.842049000000         0.022270428141
    2         10.320909000000        -0.678366484493
    3          6.365624229100         1.508417301138
    4          1.389893209500        -4.085178582307
    5          0.637067427000         4.543256373093
    6          0.160477251000        -2.168056565914
    7          0.056410423500         0.802846810459
 S 7
    1         26.842049000000        -0.125985629763
    2         10.320909000000         3.837574572721
    3          6.365624229100        -5.297651637819
    4          1.389893209500         2.520905746450
    5          0.637067427000        -1.672609322074
    6          0.160477251000         0.530145764634
    7          0.056410423500        -0.190719714406
 S 7
    1         26.842049000000        -0.113827816495
    2         10.320909000000         3.467242534487
    3          6.365624229100        -2.951569536417
    4          1.389893209500         0.880660095177
    5          0.637067427000        -0.554134456395
    6          0.160477251000         0.173090237483
    7          0.056410423500        -0.062422100420
 P 6
    1          9.772990000000        -0.212153974407
    2          7.169095000000         0.440355931757
    3          1.755956793100        -0.584185870797
    4          0.831456704200        -0.493701179054
    5          0.344949176600        -0.098358092154
    6          0.070000000000        -0.001132332349
 P 6
    1          9.772990000000        -0.048418101719
    2          7.169095000000         0.100498698439
    3          1.755956793100        -0.133323785210
    4          0.831456704200        -0.112673231662
    5          0.344949176600         0.012856512800
    6          0.070000000000         1.007850391007
 P 6
    1          9.772990000000        -0.238256677767
    2          7.169095000000         0.494535827711
    3          1.755956793100        -0.656062113206
    4          0.831456704200        -0.554444492779
    5          0.344949176600         1.593468448029
    6          0.070000000000        -0.623318657153
 D 5
    1          4.280000000000         0.320325159623
    2          3.480000000000        -0.377474115795
    3          1.253586992600        -0.483409201640
    4          0.508413668600        -0.434923034246
    5          0.185015993900        -0.174713718847
 D 5
    1          4.280000000000         0.230893039221
    2          3.480000000000        -0.272086482142
    3          1.253586992600        -0.348445373088
    4          0.508413668600        -0.313496140368
    5          0.185015993900         1.106771120427
 end
  // -----------------------------------------------
  // The basis set
  // -----------------------------------------------
  BAS[ATNO] = new BFNGauss[NSH];
  // Basis function   1 L = s
  InitBFNGauss(BAS[ATNO][  0]);
  BAS[ATNO][  0].l  = 0;
  BAS[ATNO][  0].ng = 7;
  BAS[ATNO][  0].a[  0] =        26.842049000000;     BAS[ATNO][  0].d[  0] =         0.016630809157;
  BAS[ATNO][  0].a[  1] =        10.320909000000;     BAS[ATNO][  0].d[  1] =        -0.506581349502;
  BAS[ATNO][  0].a[  2] =         6.365624229100;     BAS[ATNO][  0].d[  2] =         1.074735906898;
  BAS[ATNO][  0].a[  3] =         1.389893209500;     BAS[ATNO][  0].d[  3] =        -1.067592493902;
  BAS[ATNO][  0].a[  4] =         0.637067427000;     BAS[ATNO][  0].d[  4] =        -0.387402095504;
  BAS[ATNO][  0].a[  5] =         0.160477251000;     BAS[ATNO][  0].d[  5] =         0.114298486666;
  BAS[ATNO][  0].a[  6] =         0.056410423500;     BAS[ATNO][  0].d[  6] =         0.102364275119;

  // Basis function   2 L = s
  InitBFNGauss(BAS[ATNO][  1]);
  BAS[ATNO][  1].l  = 0;
  BAS[ATNO][  1].ng = 7;
  BAS[ATNO][  1].a[  0] =        26.842049000000;     BAS[ATNO][  1].d[  0] =         0.002634182643;
  BAS[ATNO][  1].a[  1] =        10.320909000000;     BAS[ATNO][  1].d[  1] =        -0.080238296615;
  BAS[ATNO][  1].a[  2] =         6.365624229100;     BAS[ATNO][  1].d[  2] =         0.188623201595;
  BAS[ATNO][  1].a[  3] =         1.389893209500;     BAS[ATNO][  1].d[  3] =        -0.365547100774;
  BAS[ATNO][  1].a[  4] =         0.637067427000;     BAS[ATNO][  1].d[  4] =        -0.116477284135;
  BAS[ATNO][  1].a[  5] =         0.160477251000;     BAS[ATNO][  1].d[  5] =         0.651375269253;
  BAS[ATNO][  1].a[  6] =         0.056410423500;     BAS[ATNO][  1].d[  6] =         0.532135155621;

  // Basis function   3 L = s
  InitBFNGauss(BAS[ATNO][  2]);
  BAS[ATNO][  2].l  = 0;
  BAS[ATNO][  2].ng = 7;
  BAS[ATNO][  2].a[  0] =        26.842049000000;     BAS[ATNO][  2].d[  0] =         0.003929402098;
  BAS[ATNO][  2].a[  1] =        10.320909000000;     BAS[ATNO][  2].d[  1] =        -0.119691218808;
  BAS[ATNO][  2].a[  2] =         6.365624229100;     BAS[ATNO][  2].d[  2] =         0.272073230682;
  BAS[ATNO][  2].a[  3] =         1.389893209500;     BAS[ATNO][  2].d[  3] =        -0.269533354134;
  BAS[ATNO][  2].a[  4] =         0.637067427000;     BAS[ATNO][  2].d[  4] =        -0.667037476107;
  BAS[ATNO][  2].a[  5] =         0.160477251000;     BAS[ATNO][  2].d[  5] =         2.352385797153;
  BAS[ATNO][  2].a[  6] =         0.056410423500;     BAS[ATNO][  2].d[  6] =        -1.899650584675;

  // Basis function   4 L = s
  InitBFNGauss(BAS[ATNO][  3]);
  BAS[ATNO][  3].l  = 0;
  BAS[ATNO][  3].ng = 7;
  BAS[ATNO][  3].a[  0] =        26.842049000000;     BAS[ATNO][  3].d[  0] =         0.022270428141;
  BAS[ATNO][  3].a[  1] =        10.320909000000;     BAS[ATNO][  3].d[  1] =        -0.678366484493;
  BAS[ATNO][  3].a[  2] =         6.365624229100;     BAS[ATNO][  3].d[  2] =         1.508417301138;
  BAS[ATNO][  3].a[  3] =         1.389893209500;     BAS[ATNO][  3].d[  3] =        -4.085178582307;
  BAS[ATNO][  3].a[  4] =         0.637067427000;     BAS[ATNO][  3].d[  4] =         4.543256373093;
  BAS[ATNO][  3].a[  5] =         0.160477251000;     BAS[ATNO][  3].d[  5] =        -2.168056565914;
  BAS[ATNO][  3].a[  6] =         0.056410423500;     BAS[ATNO][  3].d[  6] =         0.802846810459;

  // Basis function   5 L = s
  InitBFNGauss(BAS[ATNO][  4]);
  BAS[ATNO][  4].l  = 0;
  BAS[ATNO][  4].ng = 7;
  BAS[ATNO][  4].a[  0] =        26.842049000000;     BAS[ATNO][  4].d[  0] =         0.125985629763;
  BAS[ATNO][  4].a[  1] =        10.320909000000;     BAS[ATNO][  4].d[  1] =        -3.837574572721;
  BAS[ATNO][  4].a[  2] =         6.365624229100;     BAS[ATNO][  4].d[  2] =         5.297651637819;
  BAS[ATNO][  4].a[  3] =         1.389893209500;     BAS[ATNO][  4].d[  3] =        -2.520905746450;
  BAS[ATNO][  4].a[  4] =         0.637067427000;     BAS[ATNO][  4].d[  4] =         1.672609322074;
  BAS[ATNO][  4].a[  5] =         0.160477251000;     BAS[ATNO][  4].d[  5] =        -0.530145764634;
  BAS[ATNO][  4].a[  6] =         0.056410423500;     BAS[ATNO][  4].d[  6] =         0.190719714406;

  // Basis function   6 L = s
  InitBFNGauss(BAS[ATNO][  5]);
  BAS[ATNO][  5].l  = 0;
  BAS[ATNO][  5].ng = 7;
  BAS[ATNO][  5].a[  0] =        26.842049000000;     BAS[ATNO][  5].d[  0] =        -0.113827816495;
  BAS[ATNO][  5].a[  1] =        10.320909000000;     BAS[ATNO][  5].d[  1] =         3.467242534487;
  BAS[ATNO][  5].a[  2] =         6.365624229100;     BAS[ATNO][  5].d[  2] =        -2.951569536417;
  BAS[ATNO][  5].a[  3] =         1.389893209500;     BAS[ATNO][  5].d[  3] =         0.880660095177;
  BAS[ATNO][  5].a[  4] =         0.637067427000;     BAS[ATNO][  5].d[  4] =        -0.554134456395;
  BAS[ATNO][  5].a[  5] =         0.160477251000;     BAS[ATNO][  5].d[  5] =         0.173090237483;
  BAS[ATNO][  5].a[  6] =         0.056410423500;     BAS[ATNO][  5].d[  6] =        -0.062422100420;

  // Basis function   7 L = p
  InitBFNGauss(BAS[ATNO][  6]);
  BAS[ATNO][  6].l  = 1;
  BAS[ATNO][  6].ng = 6;
  BAS[ATNO][  6].a[  0] =         9.772990000000;     BAS[ATNO][  6].d[  0] =         0.212153974407;
  BAS[ATNO][  6].a[  1] =         7.169095000000;     BAS[ATNO][  6].d[  1] =        -0.440355931757;
  BAS[ATNO][  6].a[  2] =         1.755956793100;     BAS[ATNO][  6].d[  2] =         0.584185870797;
  BAS[ATNO][  6].a[  3] =         0.831456704200;     BAS[ATNO][  6].d[  3] =         0.493701179054;
  BAS[ATNO][  6].a[  4] =         0.344949176600;     BAS[ATNO][  6].d[  4] =         0.098358092154;
  BAS[ATNO][  6].a[  5] =         0.070000000000;     BAS[ATNO][  6].d[  5] =         0.001132332349;

  // Basis function   8 L = p
  InitBFNGauss(BAS[ATNO][  7]);
  BAS[ATNO][  7].l  = 1;
  BAS[ATNO][  7].ng = 6;
  BAS[ATNO][  7].a[  0] =         9.772990000000;     BAS[ATNO][  7].d[  0] =        -0.048418101719;
  BAS[ATNO][  7].a[  1] =         7.169095000000;     BAS[ATNO][  7].d[  1] =         0.100498698439;
  BAS[ATNO][  7].a[  2] =         1.755956793100;     BAS[ATNO][  7].d[  2] =        -0.133323785210;
  BAS[ATNO][  7].a[  3] =         0.831456704200;     BAS[ATNO][  7].d[  3] =        -0.112673231662;
  BAS[ATNO][  7].a[  4] =         0.344949176600;     BAS[ATNO][  7].d[  4] =         0.012856512800;
  BAS[ATNO][  7].a[  5] =         0.070000000000;     BAS[ATNO][  7].d[  5] =         1.007850391007;

  // Basis function   9 L = p
  InitBFNGauss(BAS[ATNO][  8]);
  BAS[ATNO][  8].l  = 1;
  BAS[ATNO][  8].ng = 6;
  BAS[ATNO][  8].a[  0] =         9.772990000000;     BAS[ATNO][  8].d[  0] =        -0.238256677767;
  BAS[ATNO][  8].a[  1] =         7.169095000000;     BAS[ATNO][  8].d[  1] =         0.494535827711;
  BAS[ATNO][  8].a[  2] =         1.755956793100;     BAS[ATNO][  8].d[  2] =        -0.656062113206;
  BAS[ATNO][  8].a[  3] =         0.831456704200;     BAS[ATNO][  8].d[  3] =        -0.554444492779;
  BAS[ATNO][  8].a[  4] =         0.344949176600;     BAS[ATNO][  8].d[  4] =         1.593468448029;
  BAS[ATNO][  8].a[  5] =         0.070000000000;     BAS[ATNO][  8].d[  5] =        -0.623318657153;

  // Basis function  10 L = d
  InitBFNGauss(BAS[ATNO][  9]);
  BAS[ATNO][  9].l  = 2;
  BAS[ATNO][  9].ng = 5;
  BAS[ATNO][  9].a[  0] =         4.280000000000;     BAS[ATNO][  9].d[  0] =        -0.320325159623;
  BAS[ATNO][  9].a[  1] =         3.480000000000;     BAS[ATNO][  9].d[  1] =         0.377474115795;
  BAS[ATNO][  9].a[  2] =         1.253586992600;     BAS[ATNO][  9].d[  2] =         0.483409201640;
  BAS[ATNO][  9].a[  3] =         0.508413668600;     BAS[ATNO][  9].d[  3] =         0.434923034246;
  BAS[ATNO][  9].a[  4] =         0.185015993900;     BAS[ATNO][  9].d[  4] =         0.174713718847;

  // Basis function  11 L = d
  InitBFNGauss(BAS[ATNO][ 10]);
  BAS[ATNO][ 10].l  = 2;
  BAS[ATNO][ 10].ng = 5;
  BAS[ATNO][ 10].a[  0] =         4.280000000000;     BAS[ATNO][ 10].d[  0] =         0.230893039221;
  BAS[ATNO][ 10].a[  1] =         3.480000000000;     BAS[ATNO][ 10].d[  1] =        -0.272086482142;
  BAS[ATNO][ 10].a[  2] =         1.253586992600;     BAS[ATNO][ 10].d[  2] =        -0.348445373088;
  BAS[ATNO][ 10].a[  3] =         0.508413668600;     BAS[ATNO][ 10].d[  3] =        -0.313496140368;
  BAS[ATNO][ 10].a[  4] =         0.185015993900;     BAS[ATNO][ 10].d[  4] =         1.106771120427;

-------------------------------------------
RADIAL EXPECTATION VALUES <R**-3> TO <R**3>
-------------------------------------------
   0 :     0.000000     1.542066     1.186391     0.946613     1.102133     1.924320
   1 :     0.000000     0.191159     0.405537     2.833383     9.198514    34.074621
   2 :     0.000000     0.152238     0.307955     4.300117    21.483013   116.941218
   3 :     0.000000     0.808650     0.758247     1.936177     5.501415    21.710754
   4 :     0.000000     6.493864     2.203278     0.590920     0.606433     1.441734
   5 :     0.000000    60.345852     6.186959     0.228087     0.100326     0.162871
   6 :     1.446516     1.161564     1.027407     1.071897     1.267234     1.655288
   7 :     1.446516     1.161564     1.027407     1.071897     1.267234     1.655288
   8 :     1.446516     1.161564     1.027407     1.071897     1.267234     1.655288
   9 :     0.055218     0.100298     0.281628     4.054471    18.095904    87.493344
  10 :     0.055218     0.100298     0.281628     4.054471    18.095905    87.493354
  11 :     0.055218     0.100298     0.281628     4.054470    18.095899    87.493318
  12 :     0.438999     0.417132     0.551203     2.451305     7.997004    33.258822
  13 :     0.438999     0.417132     0.551203     2.451305     7.997002    33.258811
  14 :     0.438999     0.417132     0.551203     2.451306     7.997008    33.258847
  15 :     0.715674     0.698146     0.779226     1.485487     2.569512    25.938074
  16 :     0.715681     0.698152     0.779230     1.485475     2.569465    25.937236
  17 :     0.715675     0.698147     0.779227     1.485485     2.569505    25.937955
  18 :     0.715676     0.698148     0.779227     1.485483     2.569498    25.937821
  19 :     0.715674     0.698146     0.779226     1.485487     2.569512    25.938066
  20 :     0.242704     0.266742     0.429047     2.936126     9.700598   171.448334
  21 :     0.242696     0.266736     0.429043     2.936137     9.700645   171.449171
  22 :     0.242703     0.266741     0.429046     2.936127     9.700604   171.448452
  23 :     0.242701     0.266740     0.429046     2.936129     9.700612   171.448587
  24 :     0.242704     0.266742     0.429047     2.936126     9.700598   171.448341
Making the total density                ... o.k.
o.k.
Initializing the integrals              ... done
Making exponents                        ... done
Making rho(0)                           ... done (         0.000255160)
Integral calculation                    ... Two index integrals                     ... done
Solving the equation system             ... done
atomic density will be written to file 80_Hg_atom80.adf

-------
TIMINGS
-------

Total SCF time: 0 days 0 hours 0 min 0 sec 

Total time                  ....       0.550 sec
Sum of individual times     ....       0.201 sec  ( 36.4%)

Fock matrix formation       ....       0.143 sec  ( 26.0%)
Diagonalization             ....       0.023 sec  (  4.2%)
Density matrix formation    ....       0.000 sec  (  0.0%)
Population analysis         ....       0.000 sec  (  0.0%)
Initial guess               ....       0.000 sec  (  0.1%)
Orbital Transformation      ....       0.000 sec  (  0.0%)
Orbital Orthonormalization  ....       0.000 sec  (  0.0%)
DIIS solution               ....       0.033 sec  (  6.1%)

-------------------------   --------------------
FINAL SINGLE POINT ENERGY      -152.550399544317
-------------------------   --------------------


                            ***************************************
                            *     ORCA property calculations      *
                            ***************************************

                                    ---------------------
                                    Active property flags
                                    ---------------------
   (+) Dipole Moment


------------------------------------------------------------------------------
                       ORCA ELECTRIC PROPERTIES CALCULATION
------------------------------------------------------------------------------

Dipole Moment Calculation                       ... on
Quadrupole Moment Calculation                   ... off
Polarizability Calculation                      ... off
GBWName                                         ... 80_Hg_atom80.gbw
Electron density file                           ... 80_Hg_atom80.scfp
The origin for moment calculation is the CENTER OF MASS  = ( 0.000000,  0.000000  0.000000)

-------------
DIPOLE MOMENT
-------------
                                X             Y             Z
Electronic contribution:      0.00000      -0.00000       0.00000
Nuclear contribution   :      0.00000       0.00000       0.00000
                        -----------------------------------------
Total Dipole Moment    :      0.00000      -0.00000       0.00000
                        -----------------------------------------
Magnitude (a.u.)       :      0.00000
Magnitude (Debye)      :      0.00000



--------------------
Rotational spectrum 
--------------------
 
Rotational constants in cm-1:     0.000000     0.000000     0.000000 
Rotational constants in MHz :     0.000000     0.000000     0.000000 

 Dipole components along the rotational axes: 
x,y,z [a.u.] :     0.000000    -0.000000     0.000000 
x,y,z [Debye]:     0.000000    -0.000000     0.000000 

 

Timings for individual modules:

Sum of individual times         ...        0.804 sec (=   0.013 min)
GTO integral calculation        ...        0.234 sec (=   0.004 min)  29.1 %
SCF iterations                  ...        0.570 sec (=   0.010 min)  70.9 %
                             ****ORCA TERMINATED NORMALLY****
TOTAL RUN TIME: 0 days 0 hours 0 minutes 0 seconds 984 msec
