
                                 *****************
                                 * O   R   C   A *
                                 *****************

           --- An Ab Initio, DFT and Semiempirical electronic structure package ---

                  #######################################################
                  #                        -***-                        #
                  #          Department of theory and spectroscopy      #
                  #               Directorship: Frank Neese             #
                  #        Max Planck Institute fuer Kohlenforschung    #
                  #                Kaiser Wilhelm Platz 1               #
                  #                 D-45470 Muelheim/Ruhr               #
                  #                      Germany                        #
                  #                                                     #
                  #                  All rights reserved                #
                  #                        -***-                        #
                  #######################################################


                         Program Version 4.2.0 -  RELEASE  -


 With contributions from (in alphabetic order):
   Daniel Aravena         : Magnetic Suceptibility
   Michael Atanasov       : Ab Initio Ligand Field Theory (pilot matlab implementation)
   Alexander A. Auer      : GIAO ZORA, VPT2
   Ute Becker             : Parallelization
   Giovanni Bistoni       : ED, misc. LED, open-shell LED, HFLED
   Martin Brehm           : Molecular dynamics
   Dmytro Bykov           : SCF Hessian
   Vijay G. Chilkuri      : MRCI spin determinant printing, contributions to CSF-ICE
   Dipayan Datta          : RHF DLPNO-CCSD density
   Achintya Kumar Dutta   : EOM-CC, STEOM-CC
   Dmitry Ganyushin       : Spin-Orbit,Spin-Spin,Magnetic field MRCI
   Miquel Garcia          : C-PCM Hessian, Gaussian charge scheme
   Yang Guo               : DLPNO-NEVPT2, CIM, IAO-localization
   Andreas Hansen         : Spin unrestricted coupled pair/coupled cluster methods
   Benjamin Helmich-Paris : CASSCF linear response (MC-RPA)
   Lee Huntington         : MR-EOM, pCC
   Robert Izsak           : Overlap fitted RIJCOSX, COSX-SCS-MP3, EOM
   Christian Kollmar      : KDIIS, OOCD, Brueckner-CCSD(T), CCSD density
   Simone Kossmann        : Meta GGA functionals, TD-DFT gradient, OOMP2, MP2 Hessian
   Martin Krupicka        : AUTO-CI
   Lucas Lang             : DCDCAS
   Dagmar Lenk            : GEPOL surface, SMD
   Dimitrios Liakos       : Extrapolation schemes; Compound Job, initial MDCI parallelization
   Dimitrios Manganas     : Further ROCIS development; embedding schemes
   Dimitrios Pantazis     : SARC Basis sets
   Taras Petrenko         : DFT Hessian,TD-DFT gradient, ASA, ECA, R-Raman, ABS, FL, XAS/XES, NRVS
   Peter Pinski           : DLPNO-MP2, DLPNO-MP2 Gradient
   Christoph Reimann      : Effective Core Potentials
   Marius Retegan         : Local ZFS, SOC
   Christoph Riplinger    : Optimizer, TS searches, QM/MM, DLPNO-CCSD(T), (RO)-DLPNO pert. Triples
   Tobias Risthaus        : Range-separated hybrids, TD-DFT gradient, RPA, STAB
   Michael Roemelt        : Original ROCIS implementation
   Masaaki Saitow         : Open-shell DLPNO-CCSD energy and density
   Barbara Sandhoefer     : DKH picture change effects
   Avijit Sen             : IP-ROCIS
   Kantharuban Sivalingam : CASSCF convergence, NEVPT2, FIC-MRCI
   Bernardo de Souza      : ESD, SOC TD-DFT
   Georgi Stoychev        : AutoAux, RI-MP2 NMR
   Willem Van den Heuvel  : Paramagnetic NMR
   Boris Wezisla          : Elementary symmetry handling
   Frank Wennmohs         : Technical directorship


 We gratefully acknowledge several colleagues who have allowed us to
 interface, adapt or use parts of their codes:
   Stefan Grimme, W. Hujo, H. Kruse,             : VdW corrections, initial TS optimization,
                  C. Bannwarth                     DFT functionals, gCP, sTDA/sTD-DF
   Ed Valeev, F. Pavosevic, A. Kumar             : LibInt (2-el integral package), F12 methods
   Garnet Chan, S. Sharma, J. Yang, R. Olivares  : DMRG
   Ulf Ekstrom                                   : XCFun DFT Library
   Mihaly Kallay                                 : mrcc  (arbitrary order and MRCC methods)
   Andreas Klamt, Michael Diedenhofen            : otool_cosmo (COSMO solvation model)
   Jiri Pittner, Ondrej Demel                    : Mk-CCSD
   Frank Weinhold                                : gennbo (NPA and NBO analysis)
   Christopher J. Cramer and Donald G. Truhlar   : smd solvation model
   Lars Goerigk                                  : TD-DFT with DH, B97 family of functionals
   V. Asgeirsson, H. Jonsson                     : NEB implementation
   FAccTs GmbH                                   : IRC, NEB, NEB-TS, Multilevel, MM, QM/MM, CI optimization
   S Lehtola, MJT Oliveira, MAL Marques          : LibXC Library


 Your calculation uses the libint2 library for the computation of 2-el integrals
 For citations please refer to: http://libint.valeyev.net

 Your ORCA version has been built with support for libXC version: 4.2.3
 For citations please refer to: https://tddft.org/programs/libxc/

 This ORCA versions uses:
   CBLAS   interface :  Fast vector & matrix operations
   LAPACKE interface :  Fast linear algebra routines
   SCALAPACK package :  Parallel linear algebra routines


----- Orbital basis set information -----
Your calculation utilizes the basis: def2-SVP
   F. Weigend and R. Ahlrichs, Phys. Chem. Chem. Phys. 7, 3297 (2005).

cite the ECPs for Tl [Def2-ECP] as follows:
Ce-Yb(ecp-28): M. Dolg, H. Stoll, H.Preuss, J. Chem. Phys., 1989, 90, 1730-1734.
Y-Cd(ecp-28), Hf-Hg(ecp-46): D. Andrae,U. Haeussermann, M. Dolg, H. Stoll, H. Preuss, Theor. Chim. Acta, 1990, 77, 123-141.
In-Sb(ecp-28), Tl-Bi(ecp-46): B. Metz, H. Stoll, M. Dolg, J. Chem. Phys., 2000, 113, 2563-2569.
Te-Xe(ecp-28), Po-Rn(ecp-46): K. A. Peterson, D. Figgen, E. Goll, H. Stoll, M. Dolg, J. Chem. Phys., 2003, 119, 11113-11123.
Rb(ecp-28), Cs(ecp-46): T. Leininger, A. Nicklass, W. Kuechle, H. Stoll, M. Dolg, A. Bergner, Chem. Phys. Lett., 1996, 255, 274-280.
Sr(ecp-28), Ba(ecp-46): M. Kaupp, P. V. Schleyer, H. Stoll and H. Preuss, J. Chem. Phys., 1991, 94, 1360-1366.
La(ecp-46): M. Dolg, H. Stoll, A. Savin, H. Preuss, Theor. Chim. Acta, 1989, 75, 173-194.
Lu(ecp-28): X. Cao, M. Dolg, J. Chem. Phys., 2001, 115, 7348-7355.

ECP parameters for Tl [Def2-ECP] have been obtained from:
TURBOMOLE (7.0.2)

================================================================================
                                        WARNINGS
                       Please study these warnings very carefully!
================================================================================


WARNING: your system is open-shell and RHF/RKS was chosen
  ===> : WILL SWITCH to UHF/UKS


WARNING: MDCI localization with Augmented Hessian Foster-Boys
  ===> : Switching off randomization!

WARNING: Post HF methods need fully converged wavefunctions
  ===> : Setting SCFConvForced true
         You can overwrite this default with %scf ConvForced false 


INFO   : the flag for use of LIBINT has been found!

================================================================================
                                       INPUT FILE
================================================================================
NAME = 81_Tl.in
|  1> #
|  2> # 81_Tl CCSD(T)/Def2-SVP
|  3> #
|  4> ! CCSD(T) Def2-SVP tightscf
|  5> 
|  6> *xyz 0 2
|  7>  Tl 0.0 0.0 0.0
|  8> *
|  9> 
| 10> %maxcore 5000 
| 11> 
| 12> %pal
| 13> nprocs 24
| 14> end
| 15> 
| 16> 
| 17>                          ****END OF INPUT****
================================================================================

                       ****************************
                       * Single Point Calculation *
                       ****************************

---------------------------------
CARTESIAN COORDINATES (ANGSTROEM)
---------------------------------
  Tl     0.000000    0.000000    0.000000

----------------------------
CARTESIAN COORDINATES (A.U.)
----------------------------
  NO LB      ZA    FRAG     MASS         X           Y           Z
   0 Tl   21.0000*   0   204.370    0.000000    0.000000    0.000000
* core charge reduced due to ECP

--------------------------------
INTERNAL COORDINATES (ANGSTROEM)
--------------------------------
 Tl     0   0   0     0.000000000000     0.00000000     0.00000000

---------------------------
INTERNAL COORDINATES (A.U.)
---------------------------
 Tl     0   0   0     0.000000000000     0.00000000     0.00000000

---------------------
BASIS SET INFORMATION
---------------------
There are 1 groups of distinct atoms

 Group   1 Type Tl  : 10s7p6d contracted to 4s4p2d pattern {6211/4111/51}

Atom   0Tl   basis set group =>   1
-------------------------
ECP PARAMETER INFORMATION
-------------------------

 Group 1, Type Tl ECP Def2-ECP (replacing 60 core electrons, lmax=3)

Atom   0Tl   ECP group =>   1



           ************************************************************
           *        Program running with 24 parallel MPI-processes    *
           *              working on a common directory               *
           ************************************************************
------------------------------------------------------------------------------
                           ORCA GTO INTEGRAL CALCULATION
------------------------------------------------------------------------------

                         BASIS SET STATISTICS AND STARTUP INFO

 # of primitive gaussian shells          ...   23
 # of primitive gaussian functions       ...   61
 # of contracted shells                  ...   10
 # of contracted basis functions         ...   26
 Highest angular momentum                ...    2
 Maximum contraction depth               ...    6
 Integral package used                   ... LIBINT
 Integral threshhold            Thresh   ...  2.500e-11
 Primitive cut-off              TCut     ...  2.500e-12


------------------------------ INTEGRAL EVALUATION ----------------------------


 * One electron integrals 

   ECP integrals                         ... done
 Pre-screening matrix                    ... done
 Shell pair data                         ... done (   0.000 sec)



           ************************************************************
           *        Program running with 24 parallel MPI-processes    *
           *              working on a common directory               *
           ************************************************************
-------------------------------------------------------------------------------
                                 ORCA SCF
-------------------------------------------------------------------------------

------------
SCF SETTINGS
------------
Hamiltonian:
 Ab initio Hamiltonian  Method          .... Hartree-Fock(GTOs)


General Settings:
 Integral files         IntName         .... 81_Tl
 Hartree-Fock type      HFTyp           .... UHF
 Total Charge           Charge          ....    0
 Multiplicity           Mult            ....    2
 Number of Electrons    NEL             ....   21
 Basis Dimension        Dim             ....   26
 Nuclear Repulsion      ENuc            ....      0.0000000000 Eh

Convergence Acceleration:
 DIIS                   CNVDIIS         .... on
   Start iteration      DIISMaxIt       ....    12
   Startup error        DIISStart       ....  0.200000
   # of expansion vecs  DIISMaxEq       ....     5
   Bias factor          DIISBfac        ....   1.050
   Max. coefficient     DIISMaxC        ....  10.000
 Newton-Raphson         CNVNR           .... off
 SOSCF                  CNVSOSCF        .... off
 Level Shifting         CNVShift        .... on
   Level shift para.    LevelShift      ....    0.2500
   Turn off err/grad.   ShiftErr        ....    0.0010
 Zerner damping         CNVZerner       .... off
 Static damping         CNVDamp         .... on
   Fraction old density DampFac         ....    0.7000
   Max. Damping (<1)    DampMax         ....    0.9800
   Min. Damping (>=0)   DampMin         ....    0.0000
   Turn off err/grad.   DampErr         ....    0.1000
 Fernandez-Rico         CNVRico         .... off

SCF Procedure:
 Maximum # iterations   MaxIter         ....   125
 SCF integral mode      SCFMode         .... Direct
   Integral package                     .... LIBINT
 Reset frequency        DirectResetFreq ....    20
 Integral Threshold     Thresh          ....  2.500e-11 Eh
 Primitive CutOff       TCut            ....  2.500e-12 Eh

Convergence Tolerance:
 Convergence Check Mode ConvCheckMode   .... Total+1el-Energy
 Convergence forced     ConvForced      .... 1
 Energy Change          TolE            ....  1.000e-08 Eh
 1-El. energy change                    ....  1.000e-05 Eh
 DIIS Error             TolErr          ....  5.000e-07


Diagonalization of the overlap matrix:
Smallest eigenvalue                        ... 3.684e-02
Time for diagonalization                   ...    0.001 sec
Threshold for overlap eigenvalues          ... 1.000e-08
Number of eigenvalues below threshold      ... 0
Time for construction of square roots      ...    0.010 sec
Total time needed                          ...    0.011 sec

-------------------
DFT GRID GENERATION
-------------------

General Integration Accuracy     IntAcc      ...  4.340
Radial Grid Type                 RadialGrid  ... Gauss-Chebyshev
Angular Grid (max. acc.)         AngularGrid ... Lebedev-110
Angular grid pruning method      GridPruning ... 3 (G Style)
Weight generation scheme         WeightScheme... Becke
Basis function cutoff            BFCut       ...    1.0000e-11
Integration weight cutoff        WCut        ...    1.0000e-14
Grids for H and He will be reduced by one unit

# of grid points (after initial pruning)     ...   3552 (   0.0 sec)
# of grid points (after weights+screening)   ...   3552 (   0.0 sec)
Grid point division into batches done        ...    0.0 sec
Reduced shell lists constructed in    0.0 sec

Total number of grid points                  ...     3552
Total number of batches                      ...       56
Average number of points per batch           ...       63
Average number of grid points per atom       ...     3552
Average number of shells per batch           ...     3.25 (32.50%)
Average number of basis functions per batch  ...     9.25 (35.58%)
Average number of large shells per batch     ...     1.75 (53.85%)
Average number of large basis fcns per batch ...     4.25 (45.95%)
Maximum spatial batch extension              ...  24.96, 38.92, 38.92 au
Average spatial batch extension              ...   1.30,  1.85,  2.08 au

Time for grid setup =    0.057 sec

------------------------------
INITIAL GUESS: MODEL POTENTIAL
------------------------------
Loading Hartree-Fock densities                     ... done
  calling /sw/apps/orca/orca_4_2_0_linux_x86-64_openmpi314/orca 81_Tl_atom81.inp > 81_Tl_atom81.out in order to generate an atomic fitting density for atom 0 (Tl with ECP) on-the-fly... 
    atom 0 (Tl), assumed electronic state with S=2: 1s2 2s2 2p6 3s2 3p6 4s2 3d10 4p6 5s2 4d10 5p6 6s2 4f14 5d10 6p1           ... done
Calculating cut-offs                               ... done
Setting up the integral package                    ... done
Initializing the effective Hamiltonian             ... done
Starting the Coulomb interaction                   ... done (   0.0 sec)
Reading the grid                                   ... done
Mapping shells                                     ... done
Starting the XC term evaluation                    ... done (   0.0 sec)
Transforming the Hamiltonian                       ... done (   0.0 sec)
Diagonalizing the Hamiltonian                      ... done (   0.0 sec)
Back transforming the eigenvectors                 ... done (   0.0 sec)
Now organizing SCF variables                       ... done
                      ------------------
                      INITIAL GUESS DONE (   1.5 sec)
                      ------------------
--------------
SCF ITERATIONS
--------------
ITER       Energy         Delta-E        Max-DP      RMS-DP      [F,P]     Damp
               ***  Starting incremental Fock matrix formation  ***
  0   -170.1057577323   0.000000000000 0.52532153  0.02675491  1.4482131 0.7000
  1   -170.5065424365  -0.400784704209 0.49004674  0.02449128  0.9881705 0.7000
  2   -170.8025629863  -0.296020549771 0.36926977  0.01846946  0.6576480 0.7000
  3   -171.0104301052  -0.207867118901 0.26316496  0.01327088  0.4363884 0.7000
  4   -171.1571660006  -0.146735895443 0.18948490  0.00944756  0.2903254 0.7000
                               ***Turning on DIIS***
  5   -171.2611539620  -0.103987961407 0.13709858  0.00675262  0.1939034 0.7000
  6   -171.7131079959  -0.451954033896 0.10396064  0.00499156  0.1300233 0.7000
  7   -171.7339774538  -0.020869457863 0.26324672  0.01247329  0.0903263 0.0000
  8   -171.5127795424   0.221197911418 0.02340425  0.00113409  0.0079754 0.0000
  9   -171.5362758709  -0.023496328509 0.02003869  0.00095524  0.0049353 0.0000
 10   -171.5227462068   0.013529664104 0.00970730  0.00043398  0.0024189 0.0000
 11   -171.5210353183   0.001710888453 0.00571438  0.00025951  0.0012170 0.0000
 12   -171.5167291692   0.004306149112 0.00401230  0.00017691  0.0005263 0.0000
 13   -171.5136271773   0.003101991870 0.00027315  0.00001426  0.0000323 0.0000
 14   -171.5134314613   0.000195716035 0.00008557  0.00000324  0.0000070 0.0000
 15   -171.5133938999   0.000037561413 0.00004175  0.00000172  0.0000012 0.0000
                            ***DIIS convergence achieved***

               *****************************************************
               *                     SUCCESS                       *
               *           SCF CONVERGED AFTER  16 CYCLES          *
               *****************************************************


----------------
TOTAL SCF ENERGY
----------------

Total Energy       :         -171.51339761 Eh           -4667.11682 eV

Components:
Nuclear Repulsion  :            0.00000000 Eh               0.00000 eV
Electronic Energy  :         -171.51339761 Eh           -4667.11682 eV
One Electron Energy:         -301.44625598 Eh           -8202.76965 eV
Two Electron Energy:          129.93285837 Eh            3535.65283 eV

Virial components:
Potential Energy   :         -228.10320883 Eh           -6207.00387 eV
Kinetic Energy     :           56.58981122 Eh            1539.88705 eV
Virial Ratio       :            4.03081763


---------------
SCF CONVERGENCE
---------------

  Last Energy change         ...   -3.7062e-06  Tolerance :   1.0000e-08
  Last MAX-Density change    ...    8.8710e-06  Tolerance :   1.0000e-07
  Last RMS-Density change    ...    4.1813e-07  Tolerance :   5.0000e-09
  Last DIIS Error            ...    1.7628e-07  Tolerance :   5.0000e-07

             **** THE GBW FILE WAS UPDATED (81_Tl.gbw) ****
             **** DENSITY FILE WAS UPDATED (81_Tl.scfp) ****
             **** ENERGY FILE WAS UPDATED (81_Tl.en.tmp) ****
----------------------
UHF SPIN CONTAMINATION
----------------------

Expectation value of <S**2>     :     0.757542
Ideal value S*(S+1) for S=0.5   :     0.750000
Deviation                       :     0.007542

             **** THE GBW FILE WAS UPDATED (81_Tl.gbw) ****
             **** DENSITY FILE WAS UPDATED (81_Tl.scfp) ****
----------------
ORBITAL ENERGIES
----------------
                 SPIN UP ORBITALS
  NO   OCC          E(Eh)            E(eV) 
   0   1.0000      -5.643298      -153.5620 
   1   1.0000      -3.469479       -94.4093 
   2   1.0000      -3.469479       -94.4093 
   3   1.0000      -3.463518       -94.2471 
   4   1.0000      -0.847002       -23.0481 
   5   1.0000      -0.847002       -23.0481 
   6   1.0000      -0.838857       -22.8264 
   7   1.0000      -0.838857       -22.8264 
   8   1.0000      -0.836301       -22.7569 
   9   1.0000      -0.472798       -12.8655 
  10   1.0000      -0.191144        -5.2013 
  11   0.0000       0.020945         0.5699 
  12   0.0000       0.020945         0.5699 
  13   0.0000       0.267862         7.2889 
  14   0.0000       0.286469         7.7952 
  15   0.0000       0.306391         8.3373 
  16   0.0000       0.306391         8.3373 
  17   0.0000       0.447954        12.1895 
  18   0.0000       0.450881        12.2691 
  19   0.0000       0.450881        12.2691 
  20   0.0000       0.463716        12.6183 
  21   0.0000       0.463716        12.6183 
  22   0.0000      19.227871       523.2170 
  23   0.0000      19.227871       523.2170 
  24   0.0000      19.230228       523.2811 
  25   0.0000      57.101217      1553.8031 

                 SPIN DOWN ORBITALS
  NO   OCC          E(Eh)            E(eV) 
   0   1.0000      -5.642402      -153.5376 
   1   1.0000      -3.471330       -94.4597 
   2   1.0000      -3.471330       -94.4597 
   3   1.0000      -3.459337       -94.1333 
   4   1.0000      -0.847425       -23.0596 
   5   1.0000      -0.847425       -23.0596 
   6   1.0000      -0.834957       -22.7203 
   7   1.0000      -0.834957       -22.7203 
   8   1.0000      -0.831244       -22.6193 
   9   1.0000      -0.422402       -11.4942 
  10   0.0000       0.033467         0.9107 
  11   0.0000       0.033467         0.9107 
  12   0.0000       0.064816         1.7637 
  13   0.0000       0.284543         7.7428 
  14   0.0000       0.311034         8.4637 
  15   0.0000       0.311034         8.4637 
  16   0.0000       0.339584         9.2406 
  17   0.0000       0.468235        12.7413 
  18   0.0000       0.468235        12.7413 
  19   0.0000       0.493110        13.4182 
  20   0.0000       0.493110        13.4182 
  21   0.0000       0.502623        13.6771 
  22   0.0000      19.227771       523.2142 
  23   0.0000      19.227771       523.2142 
  24   0.0000      19.238013       523.4930 
  25   0.0000      57.101565      1553.8126 

                    ********************************
                    * MULLIKEN POPULATION ANALYSIS *
                    ********************************

--------------------------------------------
MULLIKEN ATOMIC CHARGES AND SPIN POPULATIONS
--------------------------------------------
   0 Tl:   -0.000000    1.000000
Sum of atomic charges         :   -0.0000000
Sum of atomic spin populations:    1.0000000

-----------------------------------------------------
MULLIKEN REDUCED ORBITAL CHARGES AND SPIN POPULATIONS
-----------------------------------------------------
CHARGE
  0 Tls       :     3.997279  s :     3.997279
      pz      :     2.000007  p :     7.000000
      px      :     2.999990
      py      :     2.000003
      dz2     :     2.000680  d :    10.002721
      dxz     :     2.000000
      dyz     :     2.000000
      dx2y2   :     2.002041
      dxy     :     2.000000

SPIN
  0 Tls       :    -0.000596  s :    -0.000596
      pz      :     0.000007  p :     1.000000
      px      :     0.999990
      py      :     0.000003
      dz2     :     0.000149  d :     0.000596
      dxz     :     0.000000
      dyz     :     0.000000
      dx2y2   :     0.000447
      dxy     :     0.000000


                     *******************************
                     * LOEWDIN POPULATION ANALYSIS *
                     *******************************

-------------------------------------------
LOEWDIN ATOMIC CHARGES AND SPIN POPULATIONS
-------------------------------------------
   0 Tl:   -0.000000    1.000000

----------------------------------------------------
LOEWDIN REDUCED ORBITAL CHARGES AND SPIN POPULATIONS
----------------------------------------------------
CHARGE
  0 Tls       :     3.997279  s :     3.997279
      pz      :     2.000007  p :     7.000000
      px      :     2.999990
      py      :     2.000003
      dz2     :     2.000680  d :    10.002721
      dxz     :     2.000000
      dyz     :     2.000000
      dx2y2   :     2.002041
      dxy     :     2.000000

SPIN
  0 Tls       :    -0.000596  s :    -0.000596
      pz      :     0.000007  p :     1.000000
      px      :     0.999990
      py      :     0.000003
      dz2     :     0.000149  d :     0.000596
      dxz     :     0.000000
      dyz     :     0.000000
      dx2y2   :     0.000447
      dxy     :     0.000000


                      *****************************
                      * MAYER POPULATION ANALYSIS *
                      *****************************

  NA   - Mulliken gross atomic population
  ZA   - Total nuclear charge
  QA   - Mulliken gross atomic charge
  VA   - Mayer's total valence
  BVA  - Mayer's bonded valence
  FA   - Mayer's free valence

  ATOM       NA         ZA         QA         VA         BVA        FA
  0 Tl    21.0000    21.0000    -0.0000     1.0151     0.0000     1.0151

  Mayer bond orders larger than 0.100000


-------
TIMINGS
-------

Total SCF time: 0 days 0 hours 0 min 4 sec 

Total time                  ....       4.801 sec
Sum of individual times     ....       4.263 sec  ( 88.8%)

Fock matrix formation       ....       2.234 sec  ( 46.5%)
Diagonalization             ....       0.058 sec  (  1.2%)
Density matrix formation    ....       0.001 sec  (  0.0%)
Population analysis         ....       0.358 sec  (  7.5%)
Initial guess               ....       1.413 sec  ( 29.4%)
Orbital Transformation      ....       0.000 sec  (  0.0%)
Orbital Orthonormalization  ....       0.000 sec  (  0.0%)
DIIS solution               ....       0.142 sec  (  3.0%)


           ************************************************************
           *        Program running with 24 parallel MPI-processes    *
           *              working on a common directory               *
           ************************************************************


------------------------------------------------------------------------------- 
                              ORCA-MATRIX DRIVEN CI                            
------------------------------------------------------------------------------- 

--------------------------------
AUTOMATIC CHOICE OF INCORE LEVEL
--------------------------------

Memory available                           ...   2500.00 MB
Memory needed for S+T                      ...      0.14 MB
Memory needed for J+K                      ...      0.29 MB
Memory needed for DIIS                     ...      2.02 MB
Memory needed for 3-ext                    ...      0.18 MB
Memory needed for 4-ext                    ...      0.21 MB
Memory needed for triples                  ...      0.13 MB
 -> Final InCoreLevel    ... 5
 -> check shows that triples correction can be computed


Wavefunction type
-----------------
Correlation treatment                      ...      CCSD     
Single excitations                         ... ON
Orbital optimization                       ... OFF
Calculation of Z vector                    ... OFF
Calculation of Brueckner orbitals          ... OFF
Perturbative triple excitations            ... ON
Calculation of F12 correction              ... OFF
Frozen core treatment                      ... chemical core (8 el)
Reference Wavefunction                     ... UHF
  Alpha-MOs occ    :     4 ...   10 (  7 MO's/  7 electrons)
  Beta-MOs occ     :     4 ...    9 (  6 MO's/  6 electrons)
  Alpha-MOs virt   :    11 ...   25 ( 15 MO's              )
  Beta-MOs virt    :    10 ...   25 ( 16 MO's              )
Number of AO's                             ...     26
Number of electrons                        ...     21
Number of correlated electrons             ...     13

Algorithmic settings
--------------------
Integral transformation                    ... AO direct full transformation
K(C) Formation                             ... FULL-MO TRAFO
Maximum number of iterations               ...        50
Convergence tolerance (max. residuum)      ... 1.000e-05
Level shift for amplitude update           ... 2.000e-01
Maximum number of DIIS vectors             ...         7
DIIS turned on at iteration                ...         0
Damping before turning on DIIS             ...     0.500
Damping after turning on DIIS              ...     0.000
Pair specific amplitude update             ... OFF
Natural orbital iterations                 ... OFF
Perturbative natural orbital generation    ... OFF
Printlevel                                 ... 2

Memory handling:
----------------
Maximum memory for working arrays          ...   2500 MB
Data storage in matrix containers          ... UNCOMPRESSED
Data type for integral storage             ... DOUBLE
In-Core Storage of quantities:
   Amplitudes+Sigma Vector      ... YES
   J+K operators                ... YES
   DIIS vectors                 ... YES
   3-external integrals         ... YES
   4-external integrals         ... YES


Initializing the integral package          ... done
Warning: reference  - re-canonicalizations have been set to INT 1 VIRT 1

--------------------------
UNRESTRICTED FOCK OPERATOR
--------------------------

<ss|ss>:           55 b            0 skpd (  0.0%)    0.000 s ( 0.002 ms/b)
<ss|sp>:          160 b            0 skpd (  0.0%)    0.000 s ( 0.001 ms/b)
<ss|sd>:           80 b            0 skpd (  0.0%)    0.000 s ( 0.004 ms/b)
<ss|pp>:          100 b            0 skpd (  0.0%)    0.000 s ( 0.001 ms/b)
<ss|pd>:           80 b            0 skpd (  0.0%)    0.000 s ( 0.004 ms/b)
<ss|dd>:           30 b            0 skpd (  0.0%)    0.001 s ( 0.023 ms/b)
<sp|sp>:          136 b            0 skpd (  0.0%)    0.000 s ( 0.002 ms/b)
<sp|sd>:          128 b            0 skpd (  0.0%)    0.001 s ( 0.004 ms/b)
<sp|pp>:          160 b            0 skpd (  0.0%)    0.000 s ( 0.001 ms/b)
<sp|pd>:          128 b            0 skpd (  0.0%)    0.001 s ( 0.006 ms/b)
<sp|dd>:           48 b            0 skpd (  0.0%)    0.001 s ( 0.030 ms/b)
<sd|sd>:           36 b            0 skpd (  0.0%)    0.001 s ( 0.024 ms/b)
<sd|pp>:           80 b            0 skpd (  0.0%)    0.000 s ( 0.004 ms/b)
<sd|pd>:           64 b            0 skpd (  0.0%)    0.001 s ( 0.020 ms/b)
<sd|dd>:           24 b            0 skpd (  0.0%)    0.003 s ( 0.117 ms/b)
<pp|pp>:           55 b            0 skpd (  0.0%)    0.000 s ( 0.003 ms/b)
<pp|pd>:           80 b            0 skpd (  0.0%)    0.001 s ( 0.010 ms/b)
<pp|dd>:           30 b            0 skpd (  0.0%)    0.002 s ( 0.060 ms/b)
<pd|pd>:           36 b            0 skpd (  0.0%)    0.002 s ( 0.057 ms/b)
<pd|dd>:           24 b            0 skpd (  0.0%)    0.005 s ( 0.193 ms/b)
<dd|dd>:            6 b            0 skpd (  0.0%)    0.006 s ( 1.081 ms/b)
Recanonicalizing the internal orbitals
Recanonicalizing the virtual orbitals
Time needed for Fock operator              ...            0.163 sec
Reference energy                           ...   -171.513399526
Warning: for UHF the TrafoType has to be JK
Warning: for UHF the K(C)-option cannot be MO but must be AOX

-------------------------------
PARTIAL EXCHANGE TRANSFORMATION
-------------------------------

Transformation type                        ... two-operators
Generation of integrals (i,mue|j,nue)      ... ON
Generation of integrals (mue,kappa|nue,tau)... ON
Generation of integrals (i,mue|a,nue)      ... ON
Dimension of the basis                     ...   26
Number of internal alpha-MOs               ...    7 (   4-  10)
Number of internal beta-MOs                ...    6 (   4-   9)
Number of external alpha-MOs               ...   15 (  11-  25)
Number of external beta-MOs                ...   16 (  10-  25)
Pair cutoff                                ... 0.000e+00 Eh
Number of AO pairs in the trafo            ...  351
Total Number of distinct AO pairs          ...  351
Memory devoted for trafo                   ... 2500.0 MB 
Max. Number of MO pairs treated together   ... 484733      
Number Format for Storage                  ... Double (8 Byte)
Integral package used                      ... LIBINT

Starting integral evaluation:
    ... done with AO integral generation
Closing buffer AOK[aa] ( 0.00 GB; CompressionRatio= 0.00)
Closing buffer AOK[bb] ( 0.00 GB; CompressionRatio= 0.00)
Closing buffer AOK[ab] ( 0.00 GB; CompressionRatio= 0.00)
Closing buffer AOK[ba] ( 0.00 GB; CompressionRatio= 0.00)
Collecting buffer AOK 
Closing buffer IAAO1[aa] ( 0.00 GB; CompressionRatio= 0.00)
Closing buffer IAAO1[bb] ( 0.00 GB; CompressionRatio= 0.00)
Closing buffer IAAO1[ab] ( 0.00 GB; CompressionRatio= 0.00)
Closing buffer IAAO1[ba] ( 0.00 GB; CompressionRatio= 0.00)
Closing buffer IAAO2[aa] ( 0.00 GB; CompressionRatio= 0.00)
Closing buffer IAAO2[bb] ( 0.00 GB; CompressionRatio= 0.00)
Closing buffer IAAO2[ab] ( 0.00 GB; CompressionRatio= 0.00)
Closing buffer IAAO2[ba] ( 0.00 GB; CompressionRatio= 0.00)
Collecting buffer IAAO 
Closing buffer PRQS    ( 0.00 GB; CompressionRatio= 0.00)
Collecting buffer PRQS 
Number of alpha/alpha MO pairs in trafo    ...   28
Number of beta /beta  MO pairs in trafo    ...   21
Number of alpha/ beta MO pairs in trafo    ...   42
------------------------
SORTING OF (i,mue|j,nue)
------------------------

SORTING OF ALPHA/ALPHA PAIRS
IBATCH = 1 of  1
Closing buffer KAO[aa] ( 0.00 GB; CompressionRatio= 1.00)
Collecting buffer KAO 
SORTING OF BETA /BETA  PAIRS
IBATCH = 1 of  1
Closing buffer KAO[bb] ( 0.00 GB; CompressionRatio= 1.00)
Collecting buffer KAO 
SORTING OF ALPHA/BETA  PAIRS
IBATCH = 1 of  1
Closing buffer KAO[ab] ( 0.00 GB; CompressionRatio= 0.997785977860)
Collecting buffer KAO[ab] 
------------------------
SORTING OF (i,mue|a,nue)
------------------------

Number of alpha/alpha (i,a) pairs in trafo  ...  105
Number of beta /beta  (i,a) pairs in trafo  ...   96
Number of alpha/ beta (i,a) pairs in trafo  ...  112
Number of beta /alpha (i,a) pairs in trafo  ...   90
Setting up the alpha/alpha list             ... done
Setting up the beta /beta  list             ... done
Setting up the alpha/beta  list             ... done
Setting up the beta /alpha list             ... done
    ... Now sorting (i,mue|a,nue)integrals
    ... Integrals (i,b|a,c) will be made on the fly
SORTING OF ALPHA/ALPHA PAIRS
IBATCH = 1 of  1
Closing buffer IPAQ[aa]  0.00 GB; CompressionRatio= 1.00)
SORTING OF BETA /BETA  PAIRS
IBATCH = 1 of  1
Closing buffer IPAQ[bb]( 0.00 GB; CompressionRatio= 1.00)
SORTING OF ALPHA/BETA  PAIRS (NMatSort_ab=5)
IBATCH = 1 of  1
Closing buffer IPAQ[ab]( 0.00 GB; CompressionRatio= 1.00)
SORTING OF BETA/ALPHA  PAIRS
IBATCH = 1 of  1
Closing buffer IPAQ[ba]( 0.00 GB; CompressionRatio= 1.00)
N(AO-Batches) Done                         ...         0 
N(AO-Batches) Skipped                      ...         0 
N(IJ)-pairs Skipped                        ...         0 
TOTAL TIME for half transformation         ...     1.270 sec
AO-integral generation                     ...     0.000 sec
Half transformation                        ...     0.000 sec
K-integral sorting                         ...     0.590 sec
<ss|**>: 
------------------------------
PARTIAL COULOMB TRANSFORMATION
------------------------------

Transformation type                        ... two-operators
Dimension of the basis                     ...   26
Number of internal alpha-MOs               ...    7 (4-10)
Number of internal beta-MOs                ...    6 (4-9)
Pair cutoff                                ... 0.000e+00 Eh
Number of AO pairs included in the trafo   ...  351
Total Number of distinct AO pairs          ...  351
Memory devoted for trafo                   ... 2500.0 MB 
Max. Number of MO pairs treated together   ... 933561      
Max. Number of MOs treated per batch       ... 35906      
Number Format for Storage                  ... Double (8 Byte)
AO-integral source                         ... DIRECT
Integral package used                      ... LIBINT

Starting integral evaluation:
<sp|**>:          550 b        0 skpd     0.002 s (  0.004 ms/b)
<sd|**>:          880 b        0 skpd     0.007 s (  0.008 ms/b)
<pp|**>:          440 b        0 skpd     0.007 s (  0.016 ms/b)
<pd|**>:          550 b        0 skpd     0.012 s (  0.022 ms/b)
<dd|**>:          440 b        0 skpd     0.019 s (  0.044 ms/b)
         165 b        0 skpd     0.018 s (  0.106 ms/b)
Closing buffer AOJ[aa] ( 0.00 GB; CompressionRatio= 0.95)
Closing buffer AOJ[bb] ( 0.00 GB; CompressionRatio= 0.00)
Collecting buffer AOJ 
    ... done with AO integral generation
Number of Alpha-MO pairs included          ...   28
Number of Beta-MO pairs included           ...   21
    ... Now sorting integrals
SORTING ALPHA/ALPHA PAIRS
IBATCH = 1 of  1
Closing buffer JAO[aa] ( 0.00 GB; CompressionRatio= 1.00)
SORTING BETA/BETA PAIRS
IBATCH = 1 of  1
Closing buffer JAO[bb] ( 0.00 GB; CompressionRatio= 1.00)
Collecting buffer JAO 
TOTAL TIME for half transformation         ...     0.187 sec
AO-integral generation                     ...     0.030 sec
Half transformation                        ...     0.036 sec
J-integral sorting                         ...     0.075 sec

-------------------------- SECOND HALF TRANSFORMATION -------------------------
Formation of (ij|kl),(ij|ka), (ij|ab)      ... ok (     0.107 sec)
Formation of (ik|jl),(ik|ja), (ia|jb)      ... ok (     0.164 sec)


-----------------------
SPIN UNRESTRICTED GUESS
-----------------------

Entering MDCI_UHF_Guess, Tailored=0
Spin-components of the MP2 energy:
EMP2(aa)=     -0.007747956
EMP2(bb)=     -0.003677976
EMP2(ab)=     -0.040366993

Initial guess performed in     0.002 sec
E(0)                                       ...   -171.513399526
E(MP2)                                     ...     -0.051792925
Initial E(tot)                             ...   -171.565192451
<T|T>                                      ...      0.031887448
Number of pairs included                   ... 78

------------------------------------------------
                  UHF COUPLED CLUSTER ITERATIONS
------------------------------------------------

Number of amplitudes to be optimized       ...        14452

Iter       E(tot)           E(Corr)          Delta-E          Residual     Time      <S|S>**1/2
  0   -171.565192451     -0.051792925     -0.000000000      0.012844073    0.06      0.000000707
                           *** Turning on DIIS ***
  1   -171.572860362     -0.059460836     -0.007667911      0.006274349    0.04      0.015934523
  2   -171.578117565     -0.064718039     -0.005257203      0.001887326    0.04      0.023622818
  3   -171.578794760     -0.065395234     -0.000677196      0.000465734    0.04      0.025219612
  4   -171.578858732     -0.065459206     -0.000063972      0.000071602    0.03      0.025525550
  5   -171.578868125     -0.065468599     -0.000009393      0.000019668    0.03      0.025531312
  6   -171.578867153     -0.065467628      0.000000971      0.000008565    0.03      0.025525219
               --- The Coupled-Cluster iterations have converged ---

----------------------
COUPLED CLUSTER ENERGY
----------------------

E(0)                                       ...   -171.513399526
E(CORR)                                    ...     -0.065467628
E(TOT)                                     ...   -171.578867153
Singles norm <S|S>**1/2                    ...      0.025525219 ( 0.015259172, 0.010266047)  
T1 diagnostic                              ...      0.007079422                              

------------------
LARGEST AMPLITUDES
------------------
   9a-> 11a   9b-> 10b       0.060783
   9a-> 12a   9b-> 11b       0.060783
  10a-> 17a   9b-> 12b       0.047989
   9a-> 11a   9b-> 14b       0.045385
   9a-> 12a   9b-> 15b       0.045385
   9a-> 15a   9b-> 10b       0.045059
   9a-> 16a   9b-> 11b       0.045059
  10a-> 18a   9b-> 10b       0.039091
  10a-> 19a   9b-> 11b       0.039091
  10a-> 17a   9b-> 16b       0.032822
   9a-> 14a   9b-> 16b       0.031381
  10a-> 14a   9b-> 13b       0.029746
   9a-> 14a   9b-> 12b       0.028599
   9a-> 15a   9b-> 14b       0.027551
   9a-> 16a   9b-> 15b       0.027551
   9a-> 11a   9b-> 11b       0.026963

----------------------
UHF TRIPLES CORRECTION (Algorithm 1)
----------------------

Multiplier for the singles contribution    ...      1.000000000

SPIN-CASE Alpha-Alpha-Alpha:
10% done
20% done
30% done
40% done
50% done
60% done
70% done
80% done
90% done


SPIN-CASE Beta-Beta-Beta:
10% done
20% done
30% done
40% done
50% done
60% done
70% done
80% done
90% done


SPIN-CASE Alpha-Alpha-Beta:
10% done
20% done
30% done
40% done
50% done
60% done
70% done
80% done
90% done


SPIN-CASE Beta-Beta-Alpha:
10% done
20% done
30% done
40% done
50% done
60% done
70% done
80% done
90% done


Triples Correction (T)                     ...     -0.001881935
    alpha-alpha-alpha ... -0.000092774 (  4.9%)
    alpha-alpha-beta  ... -0.001049932 ( 55.8%)
    alpha-beta -beta  ... -0.000692210 ( 36.8%)
    beta -beta -beta  ... -0.000047019 (  2.5%)
Scaling of triples based on CCSD energies (Peterson et al. Molecular Physics 113, 1551 (2015))
E(T*) = f*E(T) where f = E(F12-CCSD)/E(CCSD) 
f = CCSD (with F12)/ CCSD (without F12)    ...      1.000000000
Scaled triples correction (T)              ...     -0.001881935

Final correlation energy                   ...     -0.067349562
E(CCSD)                                    ...   -171.578867153
E(CCSD(T))                                 ...   -171.580749088



        !!!!!!!!!!!!!!!!!!!!!!!!!!!!!!!!!!!!!!!!!!!!!!!!!!!!!!!!!!!!!!!!!!!!!!!!!! 
        !  Warning: Densities are linearized densities                           !
        !!!!!!!!!!!!!!!!!!!!!!!!!!!!!!!!!!!!!!!!!!!!!!!!!!!!!!!!!!!!!!!!!!!!!!!!!! 

NORM  =      1.059445016 sqrt=     1.029293455
W(HF) =      0.943890419
------------------------------------------------------------------------------
                           ORCA POPULATION ANALYSIS
------------------------------------------------------------------------------
Input electron density              ... 81_Tl.mdcip
Input spin density                  ... 81_Tl.mdcir
BaseName (.gbw .S,...)              ... 81_Tl

                    ********************************
                    * MULLIKEN POPULATION ANALYSIS *
                    ********************************

------------------------------------------
MULLIKEN ATOMIC CHARGES AND SPIN DENSITIES
------------------------------------------
   0 Tl:   -0.000000    1.000000
Sum of atomic charges       :   -0.0000000
Sum of atomic spin densities:    1.0000000

---------------------------------------------------
MULLIKEN REDUCED ORBITAL CHARGES AND SPIN DENSITIES
---------------------------------------------------
CHARGE
  0 Tls       :     3.932676  s :     3.932676
      pz      :     2.033928  p :     7.067281
      px      :     2.999429
      py      :     2.033923
      dz2     :     1.998146  d :    10.000044
      dxz     :     2.001889
      dyz     :     1.996318
      dx2y2   :     2.001802
      dxy     :     2.001889

SPIN
  0 Tls       :     0.011073  s :     0.011073
      pz      :    -0.000387  p :     0.978930
      px      :     0.979709
      py      :    -0.000392
      dz2     :     0.000997  d :     0.009997
      dxz     :     0.003007
      dyz     :     0.000007
      dx2y2   :     0.002979
      dxy     :     0.003007


                     *******************************
                     * LOEWDIN POPULATION ANALYSIS *
                     *******************************

-----------------------------------------
LOEWDIN ATOMIC CHARGES AND SPIN DENSITIES
-----------------------------------------
   0 Tl:   -0.000000    1.000000

--------------------------------------------------
LOEWDIN REDUCED ORBITAL CHARGES AND SPIN DENSITIES
--------------------------------------------------
CHARGE
  0 Tls       :     3.932676  s :     3.932676
      pz      :     2.033928  p :     7.067281
      px      :     2.999429
      py      :     2.033923
      dz2     :     1.998146  d :    10.000044
      dxz     :     2.001889
      dyz     :     1.996318
      dx2y2   :     2.001802
      dxy     :     2.001889

SPIN
  0 Tls       :     0.011073  s :     0.011073
      pz      :    -0.000387  p :     0.978930
      px      :     0.979709
      py      :    -0.000392
      dz2     :     0.000997  d :     0.009997
      dxz     :     0.003007
      dyz     :     0.000007
      dx2y2   :     0.002979
      dxy     :     0.003007


                      *****************************
                      * MAYER POPULATION ANALYSIS *
                      *****************************

  NA   - Mulliken gross atomic population
  ZA   - Total nuclear charge
  QA   - Mulliken gross atomic charge
  VA   - Mayer's total valence
  BVA  - Mayer's bonded valence
  FA   - Mayer's free valence

  ATOM       NA         ZA         QA         VA         BVA        FA
  0 Tl    21.0000    21.0000    -0.0000     1.4179     0.0000     1.4179





------------------------------------------------------------------------------- 
                                     TIMINGS                                   
------------------------------------------------------------------------------- 


Total execution time                   ...        2.618 sec

Fock Matrix Formation                  ...        0.163 sec (  6.2%)
Initial Guess                          ...        0.002 sec (  0.1%)
DIIS Solver                            ...        0.014 sec (  0.5%)
State Vector Update                    ...        0.002 sec (  0.1%)
Sigma-vector construction              ...        0.257 sec (  9.8%)
  <D|H|D>(2-ext)                       ...        0.002 sec (  0.9% of sigma)
  <D|H|D>(4-ext)                       ...        0.064 sec ( 25.0% of sigma)
  <S|H|0>                              ...        0.002 sec (  0.8% of sigma)
  <D|H|S>(1-ext)                       ...        0.002 sec (  0.7% of sigma)
  Fock-dressing                        ...        0.127 sec ( 49.3% of sigma)
  (ij|ab),(ia|jb)-dressing             ...        0.040 sec ( 15.5% of sigma)
Total Time for computing (T)           ...        0.003 sec (  0.1% of ALL)


-------------------------   --------------------
FINAL SINGLE POINT ENERGY      -171.580749088119
-------------------------   --------------------


                            ***************************************
                            *     ORCA property calculations      *
                            ***************************************

                                    ---------------------
                                    Active property flags
                                    ---------------------
   (+) Dipole Moment


------------------------------------------------------------------------------
                       ORCA ELECTRIC PROPERTIES CALCULATION
------------------------------------------------------------------------------

Dipole Moment Calculation                       ... on
Quadrupole Moment Calculation                   ... off
Polarizability Calculation                      ... off
GBWName                                         ... 81_Tl.gbw
Electron density file                           ... 81_Tl.scfp
The origin for moment calculation is the CENTER OF MASS  = ( 0.000000,  0.000000  0.000000)

-------------
DIPOLE MOMENT
-------------
                                X             Y             Z
Electronic contribution:      0.00000      -0.00000       0.00000
Nuclear contribution   :      0.00000       0.00000       0.00000
                        -----------------------------------------
Total Dipole Moment    :      0.00000      -0.00000       0.00000
                        -----------------------------------------
Magnitude (a.u.)       :      0.00000
Magnitude (Debye)      :      0.00000



--------------------
Rotational spectrum 
--------------------
 
Rotational constants in cm-1:     0.000000     0.000000     0.000000 
Rotational constants in MHz :     0.000000     0.000000     0.000000 

 Dipole components along the rotational axes: 
x,y,z [a.u.] :     0.000000    -0.000000     0.000000 
x,y,z [Debye]:     0.000000    -0.000000     0.000000 

 

                           *** MDCI DENSITY ***

------------------------------------------------------------------------------
                       ORCA ELECTRIC PROPERTIES CALCULATION
------------------------------------------------------------------------------

Dipole Moment Calculation                       ... on
Quadrupole Moment Calculation                   ... off
Polarizability Calculation                      ... off
GBWName                                         ... 81_Tl.gbw
Electron density file                           ... 81_Tl.mdcip
The origin for moment calculation is the CENTER OF MASS  = ( 0.000000,  0.000000  0.000000)

-------------
DIPOLE MOMENT
-------------
                                X             Y             Z
Electronic contribution:     -0.00000      -0.00000      -0.00000
Nuclear contribution   :      0.00000       0.00000       0.00000
                        -----------------------------------------
Total Dipole Moment    :     -0.00000      -0.00000      -0.00000
                        -----------------------------------------
Magnitude (a.u.)       :      0.00000
Magnitude (Debye)      :      0.00000



--------------------
Rotational spectrum 
--------------------
 
Rotational constants in cm-1:     0.000000     0.000000     0.000000 
Rotational constants in MHz :     0.000000     0.000000     0.000000 

 Dipole components along the rotational axes: 
x,y,z [a.u.] :    -0.000000    -0.000000    -0.000000 
x,y,z [Debye]:    -0.000000    -0.000000    -0.000000 

 

Timings for individual modules:

Sum of individual times         ...        9.268 sec (=   0.154 min)
GTO integral calculation        ...        0.948 sec (=   0.016 min)  10.2 %
SCF iterations                  ...        5.239 sec (=   0.087 min)  56.5 %
MDCI module                     ...        3.081 sec (=   0.051 min)  33.2 %
                             ****ORCA TERMINATED NORMALLY****
TOTAL RUN TIME: 0 days 0 hours 0 minutes 10 seconds 132 msec
