
                                 *****************
                                 * O   R   C   A *
                                 *****************

           --- An Ab Initio, DFT and Semiempirical electronic structure package ---

                  #######################################################
                  #                        -***-                        #
                  #          Department of theory and spectroscopy      #
                  #               Directorship: Frank Neese             #
                  #        Max Planck Institute fuer Kohlenforschung    #
                  #                Kaiser Wilhelm Platz 1               #
                  #                 D-45470 Muelheim/Ruhr               #
                  #                      Germany                        #
                  #                                                     #
                  #                  All rights reserved                #
                  #                        -***-                        #
                  #######################################################


                         Program Version 4.2.0 -  RELEASE  -


 With contributions from (in alphabetic order):
   Daniel Aravena         : Magnetic Suceptibility
   Michael Atanasov       : Ab Initio Ligand Field Theory (pilot matlab implementation)
   Alexander A. Auer      : GIAO ZORA, VPT2
   Ute Becker             : Parallelization
   Giovanni Bistoni       : ED, misc. LED, open-shell LED, HFLED
   Martin Brehm           : Molecular dynamics
   Dmytro Bykov           : SCF Hessian
   Vijay G. Chilkuri      : MRCI spin determinant printing, contributions to CSF-ICE
   Dipayan Datta          : RHF DLPNO-CCSD density
   Achintya Kumar Dutta   : EOM-CC, STEOM-CC
   Dmitry Ganyushin       : Spin-Orbit,Spin-Spin,Magnetic field MRCI
   Miquel Garcia          : C-PCM Hessian, Gaussian charge scheme
   Yang Guo               : DLPNO-NEVPT2, CIM, IAO-localization
   Andreas Hansen         : Spin unrestricted coupled pair/coupled cluster methods
   Benjamin Helmich-Paris : CASSCF linear response (MC-RPA)
   Lee Huntington         : MR-EOM, pCC
   Robert Izsak           : Overlap fitted RIJCOSX, COSX-SCS-MP3, EOM
   Christian Kollmar      : KDIIS, OOCD, Brueckner-CCSD(T), CCSD density
   Simone Kossmann        : Meta GGA functionals, TD-DFT gradient, OOMP2, MP2 Hessian
   Martin Krupicka        : AUTO-CI
   Lucas Lang             : DCDCAS
   Dagmar Lenk            : GEPOL surface, SMD
   Dimitrios Liakos       : Extrapolation schemes; Compound Job, initial MDCI parallelization
   Dimitrios Manganas     : Further ROCIS development; embedding schemes
   Dimitrios Pantazis     : SARC Basis sets
   Taras Petrenko         : DFT Hessian,TD-DFT gradient, ASA, ECA, R-Raman, ABS, FL, XAS/XES, NRVS
   Peter Pinski           : DLPNO-MP2, DLPNO-MP2 Gradient
   Christoph Reimann      : Effective Core Potentials
   Marius Retegan         : Local ZFS, SOC
   Christoph Riplinger    : Optimizer, TS searches, QM/MM, DLPNO-CCSD(T), (RO)-DLPNO pert. Triples
   Tobias Risthaus        : Range-separated hybrids, TD-DFT gradient, RPA, STAB
   Michael Roemelt        : Original ROCIS implementation
   Masaaki Saitow         : Open-shell DLPNO-CCSD energy and density
   Barbara Sandhoefer     : DKH picture change effects
   Avijit Sen             : IP-ROCIS
   Kantharuban Sivalingam : CASSCF convergence, NEVPT2, FIC-MRCI
   Bernardo de Souza      : ESD, SOC TD-DFT
   Georgi Stoychev        : AutoAux, RI-MP2 NMR
   Willem Van den Heuvel  : Paramagnetic NMR
   Boris Wezisla          : Elementary symmetry handling
   Frank Wennmohs         : Technical directorship


 We gratefully acknowledge several colleagues who have allowed us to
 interface, adapt or use parts of their codes:
   Stefan Grimme, W. Hujo, H. Kruse,             : VdW corrections, initial TS optimization,
                  C. Bannwarth                     DFT functionals, gCP, sTDA/sTD-DF
   Ed Valeev, F. Pavosevic, A. Kumar             : LibInt (2-el integral package), F12 methods
   Garnet Chan, S. Sharma, J. Yang, R. Olivares  : DMRG
   Ulf Ekstrom                                   : XCFun DFT Library
   Mihaly Kallay                                 : mrcc  (arbitrary order and MRCC methods)
   Andreas Klamt, Michael Diedenhofen            : otool_cosmo (COSMO solvation model)
   Jiri Pittner, Ondrej Demel                    : Mk-CCSD
   Frank Weinhold                                : gennbo (NPA and NBO analysis)
   Christopher J. Cramer and Donald G. Truhlar   : smd solvation model
   Lars Goerigk                                  : TD-DFT with DH, B97 family of functionals
   V. Asgeirsson, H. Jonsson                     : NEB implementation
   FAccTs GmbH                                   : IRC, NEB, NEB-TS, Multilevel, MM, QM/MM, CI optimization
   S Lehtola, MJT Oliveira, MAL Marques          : LibXC Library


 Your calculation uses the libint2 library for the computation of 2-el integrals
 For citations please refer to: http://libint.valeyev.net

 Your ORCA version has been built with support for libXC version: 4.2.3
 For citations please refer to: https://tddft.org/programs/libxc/

 This ORCA versions uses:
   CBLAS   interface :  Fast vector & matrix operations
   LAPACKE interface :  Fast linear algebra routines
   SCALAPACK package :  Parallel linear algebra routines


----- Orbital basis set information -----
Your calculation utilizes the basis: def2-SVP
   F. Weigend and R. Ahlrichs, Phys. Chem. Chem. Phys. 7, 3297 (2005).

----- AuxJ basis set information -----
Your calculation utilizes the auxiliary basis: def2/J
   F. Weigend, Phys. Chem. Chem. Phys. 8, 1057 (2006).

================================================================================
                                        WARNINGS
                       Please study these warnings very carefully!
================================================================================


INFO   : the flag for use of LIBINT has been found!

================================================================================
                                       INPUT FILE
================================================================================
NAME = 83_Bi_atom83.inp
|  1> # input to generate an atomic fitting density for Bi
|  2> # this file is use internally by ORCA
|  3> #
|  4> # atomic ground state (S=4): 1s2 2s2 2p6 3s2 3p6 4s2 3d10 4p6 5s2 4d10 5p6 6s2 4f14 5d10 6p3 
|  5> #
|  6> ! RHF AllowRHF def2-SVP def2/J  NoMulliken NoLoewdin NoMayer NoPrintMOs 
|  7> 
|  8> %output print[p_atomdensfit] 2 end
|  9> 
| 10> %scf
| 11>   guess hcore
| 12>   maxiter 1000
| 13>   maxdisk 500000
| 14>   SCFMode Conventional
| 15>   lshift 1.000000
| 16>   hftyp rohf
| 17>   rohf_case sahf
| 18>   rohf_numop   2
| 19>   rohf_norb[1] 3
| 20>   rohf_nel[1]  3
| 21> end
| 22> 
| 23> %basis
| 24>   NewECP 83
| 25>     N_core 60
| 26>     lmax f
| 27>     s 4
| 28>       1      13.0430900000    283.2642270000  2
| 29>       2       8.2216820000     62.4719590000  2
| 30>       3       4.2145460000    -13.7133830000  2
| 31>       4       4.1334000000    -18.1943080000  2
| 32>     p 6
| 33>       1      10.4677770000     72.0014990000  2
| 34>       2       9.1189010000    144.0022770000  2
| 35>       3       6.7547910000      5.0079450000  2
| 36>       4       6.2525920000      9.9915500000  2
| 37>       5       4.2145460000    -13.7133830000  2
| 38>       6       4.1334000000    -18.1943080000  2
| 39>     d 6
| 40>       1       8.0814740000     36.3962590000  2
| 41>       2       7.8905950000     54.5976640000  2
| 42>       3       4.9555560000      9.9842940000  2
| 43>       4       4.7045590000     14.9814850000  2
| 44>       5       4.2145460000    -13.7133830000  2
| 45>       6       4.1334000000    -18.1943080000  2
| 46>     f 2
| 47>       1       4.2145460000     13.7133830000  2
| 48>       2       4.1334000000     18.1943080000  2
| 49>   end
| 50>   NewGTO 83
| 51>     s 6 
| 52>      1     175.1963210200      0.0008208004
| 53>      2      19.8201477830     -0.1495258070
| 54>      3      14.9601101020      0.3827564059
| 55>      4       6.7065785571     -0.7001236927
| 56>      5       1.7391967524      0.9300829625
| 57>      6       0.9450473059      0.3956399006
| 58>     s 2 
| 59>      1       8.4636832909     -0.0670785911
| 60>      2       1.5317838545      1.0396101938
| 61>     s 1 
| 62>      1       0.2340539150      1.0000000000
| 63>     s 1 
| 64>      1       0.0902688146      1.0000000000
| 65>     p 4 
| 66>      1      10.6720462930      0.2217763909
| 67>      2       7.1992185915     -0.5855156447
| 68>      3       1.5359697528      0.8208866281
| 69>      4       0.7220127573      0.3550222911
| 70>     p 1 
| 71>      1       2.8508661858      1.0000000000
| 72>     p 1 
| 73>      1       0.2376941873      1.0000000000
| 74>     p 1 
| 75>      1       0.0787681405      1.0000000000
| 76>   end
| 77>   NewAuxGTO 83
| 78>     S 1
| 79>      1 1310.72 1.0
| 80>     S 1
| 81>      1  655.36 1.0
| 82>     S 1
| 83>      1  327.68 1.0
| 84>     S 1
| 85>      1  163.84 1.0
| 86>     S 1
| 87>      1   81.82 1.0
| 88>     S 1
| 89>      1   40.96 1.0
| 90>     S 1
| 91>      1   20.48 1.0
| 92>     S 1
| 93>      1   10.24 1.0
| 94>     S 1
| 95>      1    5.12 1.0
| 96>     S 1
| 97>      1    2.56 1.0
| 98>     S 1
| 99>      1    1.28 1.0
|100>     S 1
|101>      1    0.64 1.0
|102>     S 1
|103>      1    0.32 1.0
|104>     S 1
|105>      1    0.16 1.0
|106>     S 1
|107>      1    0.08 1.0
|108>     S 1
|109>      1    0.04 1.0
|110>     S 1
|111>      1    0.02 1.0
|112>     S 1
|113>      1    0.01 1.0
|114>   end
|115> end
|116> 
|117> * xyz 0 4
|118> 83  0.0 0.0 0.0
|119> *
|120> 
|121> 
|122>                          ****END OF INPUT****
================================================================================

                       ****************************
                       * Single Point Calculation *
                       ****************************

---------------------------------
CARTESIAN COORDINATES (ANGSTROEM)
---------------------------------
  Bi     0.000000    0.000000    0.000000

----------------------------
CARTESIAN COORDINATES (A.U.)
----------------------------
  NO LB      ZA    FRAG     MASS         X           Y           Z
   0 Bi   23.0000*   0   208.980    0.000000    0.000000    0.000000
* core charge reduced due to ECP

--------------------------------
INTERNAL COORDINATES (ANGSTROEM)
--------------------------------
 Bi     0   0   0     0.000000000000     0.00000000     0.00000000

---------------------------
INTERNAL COORDINATES (A.U.)
---------------------------
 Bi     0   0   0     0.000000000000     0.00000000     0.00000000

---------------------
BASIS SET INFORMATION
---------------------
There are 1 groups of distinct atoms

 Group   1 Type Bi  : 10s7p contracted to 4s4p pattern {6211/4111}

Atom   0Bi   basis set group =>   1
---------------------------------
AUXILIARY/J BASIS SET INFORMATION
---------------------------------
There are 1 groups of distinct atoms

 Group   1 Type Bi  : 18s contracted to 18s pattern {111111111111111111}

Atom   0Bi   basis set group =>   1
-------------------------
ECP PARAMETER INFORMATION
-------------------------

 Group 1, Type Bi ECP (replacing 60 core electrons, lmax=3)

Atom   0Bi   ECP group =>   1

------------------------------------------------------------------------------
                           ORCA GTO INTEGRAL CALCULATION
------------------------------------------------------------------------------

                         BASIS SET STATISTICS AND STARTUP INFO

 # of primitive gaussian shells          ...   17
 # of primitive gaussian functions       ...   31
 # of contracted shells                  ...    8
 # of contracted basis functions         ...   16
 Highest angular momentum                ...    1
 Maximum contraction depth               ...    6
 Integral package used                   ... LIBINT
 Integral threshhold            Thresh   ...  1.000e-10
 Primitive cut-off              TCut     ...  1.000e-11
 Storage cut-off                TCutStore... -1.000e+00
 Buffer length                           ... 1048576 integrals/buffer
 Generate file with integrals 4 distinct ...false


------------------------------ INTEGRAL EVALUATION ----------------------------


 * One electron integrals 

   ECP integrals                         ... done
 Pre-screening matrix                    ... done
 Shell pair data                         ... done (   0.000 sec)
 Statistics run                          ... done
 Maximum amount of storage needed        ...     0 MB
 Maximum amount of storage dedicated     ... 500000 MB
 Beginning two electron integral evaluation:
 Starting repulsion integrals
  <ss|ss>  ...           55 b.         0 skpd (  0.0%)     0.000 s. (  0.001 ms/b)
  <ss|sp>  ...          160 b.         0 skpd (  0.0%)     0.000 s. (  0.001 ms/b)
  <ss|pp>  ...          100 b.         0 skpd (  0.0%)     0.000 s. (  0.003 ms/b)
  <sp|sp>  ...          136 b.         0 skpd (  0.0%)     0.000 s. (  0.002 ms/b)
  <sp|pp>  ...          160 b.         0 skpd (  0.0%)     0.000 s. (  0.003 ms/b)
  <pp|pp>  ...           55 b.         0 skpd (  0.0%)     0.000 s. (  0.006 ms/b)


                                      INTEGRAL STATISTICS

Integral type statistics:
 Number of integrals retained            ...       9316 
 One   Center Integrals retained         ...       9316 (100.0%)
 Two   Center Integrals retained         ...          0 (  0.0%)
 Three Center Integrals retained         ...          0 (  0.0%)
 Four  Center Integrals retained         ...          0 (  0.0%)

Storage statistics:
 Number of char integrals                ...          0 (  0.0%)
 Number of short int integrals           ...          0 (  0.0%)
 Number of double/float integrals        ...       9316 (100.0%)
 Amount of memory used                   ...          0 MB
 Amount of memory estimated              ...          0 MB ( 94.3%)

Prescreening statistics:
 Total number of shell quadruples        ...        666 
 Number of skipped shell quadruples      ...          0 (  0.0%)
 # of negligible batches done            ...          0 (  0.0%)

Timings:
 Total evaluation time               ...     0.203 sec (   0.003 min)
 One electron matrix time            ...     0.018 sec (   0.000 min) =  8.9%
 Schwartz matrix evaluation time     ...     0.081 sec (   0.001 min) = 39.8%
 Statistics run                      ...     0.000 sec (   0.000 min) =  0.1%
 Repulsion integral time             ...     0.002 sec (   0.000 min) =  0.8%

-------------------------------------------------------------------------------
                                 ORCA SCF
-------------------------------------------------------------------------------

------------
SCF SETTINGS
------------
Hamiltonian:
 Ab initio Hamiltonian  Method          .... Hartree-Fock(GTOs)


General Settings:
 Integral files         IntName         .... 83_Bi_atom83
 Hartree-Fock type      HFTyp           .... ROHF
 Total Charge           Charge          ....    0
 Multiplicity           Mult            ....    4
 Number of Electrons    NEL             ....   23
 Basis Dimension        Dim             ....   16
 Nuclear Repulsion      ENuc            ....      0.0000000000 Eh

Convergence Acceleration:
 DIIS                   CNVDIIS         .... on
   Start iteration      DIISMaxIt       ....    12
   Startup error        DIISStart       ....  0.200000
   # of expansion vecs  DIISMaxEq       ....     5
   Bias factor          DIISBfac        ....   1.050
   Max. coefficient     DIISMaxC        ....  10.000
 Newton-Raphson         CNVNR           .... off
 SOSCF                  CNVSOSCF        .... off
 Level Shifting         CNVShift        .... on
   Level shift para.    LevelShift      ....    1.0000
   Turn off err/grad.   ShiftErr        ....    0.0010
 Zerner damping         CNVZerner       .... off
 Static damping         CNVDamp         .... on
   Fraction old density DampFac         ....    0.7000
   Max. Damping (<1)    DampMax         ....    0.9800
   Min. Damping (>=0)   DampMin         ....    0.0000
   Turn off err/grad.   DampErr         ....    0.1000
 Fernandez-Rico         CNVRico         .... off

SCF Procedure:
 Maximum # iterations   MaxIter         ....  1000
 SCF integral mode      SCFMode         .... Conventional
 Integral Threshold     Thresh          ....  1.000e-10 Eh
 Primitive CutOff       TCut            ....  1.000e-11 Eh
 Integral Buffer length BufferLength    .... 1048576
 Integral index format  IndFormat       ....     0
 Integral value format  ValFormat       ....     0
 Integral Storage       Thresh          ....  1.000e-10 Eh

Convergence Tolerance:
 Convergence Check Mode ConvCheckMode   .... Total+1el-Energy
 Convergence forced     ConvForced      .... 0
 Energy Change          TolE            ....  1.000e-06 Eh
 1-El. energy change                    ....  1.000e-03 Eh
 DIIS Error             TolErr          ....  1.000e-06


Diagonalization of the overlap matrix:
Smallest eigenvalue                        ... 3.730e-02
Time for diagonalization                   ...    0.000 sec
Threshold for overlap eigenvalues          ... 1.000e-08
Number of eigenvalues below threshold      ... 0
Time for construction of square roots      ...    0.002 sec
Total time needed                          ...    0.003 sec

--------------------
INITIAL GUESS: HCORE
--------------------
AVERAGE-CONFIGURATION (SAHF) CASE FOUND

-------------------
FINAL ROHF SETTINGS
-------------------
Number of operators             ... 2
  operator   0:  10 orbitals  20 electrons n(mue)= 2.000
  operator   1:   3 orbitals   3 electrons n(mue)= 1.000
Vector coupling coefficients a and b (Zerner convention):
   1.000    1.000           1.000    1.000 
   1.000    1.000           1.000    2.000 

                      -----------------
                      INTIAL GUESS DONE 
                      -----------------

 InCore treatment chosen:
   Memory dedicated               ...    1024 MB
   Memory needed                  ...      0 MB
   Number of tiny    integrals    ...       0
   Number of small   integrals    ...       0
   Number of regular integrals    ...    9316

--------------
SCF ITERATIONS
--------------
ITER       Energy         Delta-E        Max-DP      RMS-DP      [F,P]     Damp
  0   -171.6012775843   0.000000000000 0.05564287  0.00950624  1.8374442 0.7000
  1   -172.4281145500  -0.826836965678 0.05379214  0.00901897  0.4338068 0.7000
  2   -172.6277527308  -0.199638180762 0.04564703  0.00769696  0.2162424 0.7000
                            ****Activating DIIS****
  3   -172.7495698084  -0.121817077577 0.04631924  0.00715780  0.1073234 0.7000
  4   -172.8330259413  -0.083456132925 0.12015031  0.01760423  0.0226838 0.0000
  5   -173.0153551749  -0.182329233598 0.00085571  0.00010228  0.0239452 0.0000
  6   -173.0153201865   0.000034988380 0.00014930  0.00001805  0.0239222 0.0000
  7   -173.0153257516  -0.000005565056 0.00011425  0.00001374  0.0239263 0.0000
  8   -173.0153303243  -0.000004572729 0.00020905  0.00002807  0.0239295 0.0000
  9   -173.0153350376  -0.000004713328 0.01217155  0.00145575  0.0239348 0.0000
 10   -173.0157607870  -0.000425749350 0.01276139  0.00153344  0.0242659 0.0000
 11   -173.0160496028  -0.000288815863 0.00582908  0.00071602  0.0246373 0.0000
 12   -173.0161347551  -0.000085152269 0.00218932  0.00030654  0.0248322 0.0000
 13   -173.0161615643  -0.000026809170 0.00181433  0.00023275  0.0249304 0.0000
 14   -173.0161770914  -0.000015527168 0.00190849  0.00023999  0.0250096 0.0000
 15   -173.0161919986  -0.000014907138 0.00197570  0.00028057  0.0250919 0.0000
 16   -173.0162100435  -0.000018044948 0.00048581  0.00005791  0.0251831 0.0000
 17   -173.0162124122  -0.000002368637 0.00027809  0.00003485  0.0251906 0.0000
 18   -173.0162142922  -0.000001879991 0.00084212  0.00011215  0.0252006 0.0000
 19   -173.0162199745  -0.000005682334 0.00130186  0.00016786  0.0252389 0.0000
 20   -173.0162279212  -0.000007946720 0.00118263  0.00015507  0.0252964 0.0000
 21   -173.0162348210  -0.000006899757 0.00049907  0.00006457  0.0253494 0.0000
 22   -173.0162375486  -0.000002727653 0.00062970  0.00007708  0.0253715 0.0000
 23   -173.0162406788  -0.000003130176 0.00094585  0.00011221  0.0253977 0.0000
 24   -173.0162450663  -0.000004387497 0.00111100  0.00012921  0.0254357 0.0000
 25   -173.0162499383  -0.000004871986 0.00100180  0.00011459  0.0254792 0.0000
 26   -173.0162541303  -0.000004191987 0.00080766  0.00009081  0.0255173 0.0000
 27   -173.0162573793  -0.000003249003 0.00088950  0.00009917  0.0255471 0.0000
 28   -173.0162608753  -0.000003495991 0.00101607  0.00011249  0.0255794 0.0000
 29   -173.0162647902  -0.000003914973 0.00105752  0.00011630  0.0256157 0.0000
 30   -173.0162687929  -0.000004002711 0.00101080  0.00011050  0.0256528 0.0000
 31   -173.0162725644  -0.000003771410 0.00097287  0.00010588  0.0256876 0.0000
 32   -173.0162761575  -0.000003593115 0.00101200  0.00010985  0.0257205 0.0000
 33   -173.0162798705  -0.000003713045 0.00105739  0.00011455  0.0257544 0.0000
 34   -173.0162837307  -0.000003860211 0.00106928  0.00011563  0.0257895 0.0000
 35   -173.0162876192  -0.000003888424 0.00105813  0.00011426  0.0258246 0.0000
 36   -173.0162914563  -0.000003837139 0.00105550  0.00011387  0.0258590 0.0000
 37   -173.0162952770  -0.000003820713 0.00107185  0.00011555  0.0258931 0.0000
 38   -173.0162991528  -0.000003875780 0.00108803  0.00011724  0.0259274 0.0000
 39   -173.0163030847  -0.000003931956 0.00109368  0.00011781  0.0259621 0.0000
 40   -173.0163070361  -0.000003951376 0.00109356  0.00011777  0.0259967 0.0000
 41   -173.0163109871  -0.000003950990 0.00109622  0.00011803  0.0260312 0.0000
 42   -173.0163149486  -0.000003961502 0.00110315  0.00011877  0.0260657 0.0000
 43   -173.0163189367  -0.000003988054 0.00110957  0.00011946  0.0261002 0.0000
 44   -173.0163229499  -0.000004013217 0.00111300  0.00011983  0.0261348 0.0000
 45   -173.0163269778  -0.000004027905 0.00111490  0.00012003  0.0261694 0.0000
 46   -173.0163310151  -0.000004037278 0.00111741  0.00012031  0.0262040 0.0000
 47   -173.0163350641  -0.000004049050 0.00112077  0.00012068  0.0262386 0.0000
 48   -173.0163391282  -0.000004064046 0.00112385  0.00012103  0.0262732 0.0000
 49   -173.0163432063  -0.000004078158 0.00112610  0.00012128  0.0263078 0.0000
 50   -173.0163472956  -0.000004089302 0.00112790  0.00012149  0.0263425 0.0000
 51   -173.0163513945  -0.000004098848 0.00112976  0.00012170  0.0263771 0.0000
 52   -173.0163555032  -0.000004108685 0.00113175  0.00012193  0.0264118 0.0000
 53   -173.0163596222  -0.000004119006 0.00113361  0.00012215  0.0264465 0.0000
 54   -173.0163637510  -0.000004128887 0.00113522  0.00012234  0.0264812 0.0000
 55   -173.0163678889  -0.000004137873 0.00113668  0.00012251  0.0265159 0.0000
 56   -173.0163720352  -0.000004146313 0.00113811  0.00012269  0.0265507 0.0000
 57   -173.0163761899  -0.000004154670 0.00113953  0.00012286  0.0265854 0.0000
 58   -173.0163803529  -0.000004163009 0.00114090  0.00012303  0.0266202 0.0000
 59   -173.0163845240  -0.000004171135 0.00114218  0.00012318  0.0266549 0.0000
 60   -173.0163887030  -0.000004178957 0.00114341  0.00012334  0.0266897 0.0000
 61   -173.0163928896  -0.000004186566 0.00114461  0.00012348  0.0267245 0.0000
 62   -173.0163970836  -0.000004194079 0.00114578  0.00012363  0.0267593 0.0000
 63   -173.0164012852  -0.000004201521 0.00114693  0.00012378  0.0267941 0.0000
 64   -173.0164054940  -0.000004208857 0.00114805  0.00012392  0.0268290 0.0000
 65   -173.0164097101  -0.000004216073 0.00114914  0.00012406  0.0268638 0.0000
 66   -173.0164139333  -0.000004223192 0.00115021  0.00012419  0.0268987 0.0000
 67   -173.0164181635  -0.000004230248 0.00115127  0.00012433  0.0269335 0.0000
 68   -173.0164224008  -0.000004237251 0.00115232  0.00012447  0.0269684 0.0000
 69   -173.0164266450  -0.000004244197 0.00115335  0.00012460  0.0270033 0.0000
 70   -173.0164308961  -0.000004251085 0.00115436  0.00012473  0.0270381 0.0000
 71   -173.0164351540  -0.000004257923 0.00115536  0.00012486  0.0270730 0.0000
 72   -173.0164394187  -0.000004264721 0.00115636  0.00012499  0.0271080 0.0000
 73   -173.0164436902  -0.000004271483 0.00115735  0.00012512  0.0271429 0.0000
 74   -173.0164479684  -0.000004278210 0.00115832  0.00012525  0.0271778 0.0000
 75   -173.0164522533  -0.000004284903 0.00115929  0.00012538  0.0272127 0.0000
 76   -173.0164565449  -0.000004291565 0.00116026  0.00012551  0.0272477 0.0000
 77   -173.0164608431  -0.000004298199 0.00116121  0.00012564  0.0272826 0.0000
 78   -173.0164651479  -0.000004304808 0.00116216  0.00012577  0.0273176 0.0000
 79   -173.0164694593  -0.000004311391 0.00116310  0.00012590  0.0273526 0.0000
 80   -173.0164737772  -0.000004317949 0.00116404  0.00012602  0.0273875 0.0000
 81   -173.0164781017  -0.000004324484 0.00116497  0.00012615  0.0274225 0.0000
 82   -173.0164824327  -0.000004330997 0.00116590  0.00012628  0.0274575 0.0000
 83   -173.0164867702  -0.000004337488 0.00116682  0.00012640  0.0274925 0.0000
 84   -173.0164911141  -0.000004343958 0.00116774  0.00012653  0.0275275 0.0000
 85   -173.0164954646  -0.000004350408 0.00116865  0.00012665  0.0275625 0.0000
 86   -173.0164998214  -0.000004356837 0.00116956  0.00012678  0.0275975 0.0000
 87   -173.0165041846  -0.000004363246 0.00117046  0.00012690  0.0276326 0.0000
 88   -173.0165085543  -0.000004369636 0.00117136  0.00012703  0.0276676 0.0000
 89   -173.0165129303  -0.000004376005 0.00117225  0.00012715  0.0277027 0.0000
 90   -173.0165173126  -0.000004382355 0.00117314  0.00012728  0.0277377 0.0000
 91   -173.0165217013  -0.000004388686 0.00117402  0.00012740  0.0277728 0.0000
 92   -173.0165260963  -0.000004394997 0.00117490  0.00012753  0.0278078 0.0000
 93   -173.0165304976  -0.000004401288 0.00117578  0.00012765  0.0278429 0.0000
 94   -173.0165349052  -0.000004407561 0.00117665  0.00012778  0.0278780 0.0000
 95   -173.0165393190  -0.000004413813 0.00117752  0.00012790  0.0279130 0.0000
 96   -173.0165437390  -0.000004420046 0.00117838  0.00012802  0.0279481 0.0000
 97   -173.0165481653  -0.000004426260 0.00117924  0.00012815  0.0279832 0.0000
 98   -173.0165525977  -0.000004432454 0.00118009  0.00012827  0.0280183 0.0000
 99   -173.0165570364  -0.000004438627 0.00118094  0.00012839  0.0280534 0.0000
100   -173.0165614811  -0.000004444781 0.00118178  0.00012852  0.0280885 0.0000
101   -173.0165659321  -0.000004450915 0.00118262  0.00012864  0.0281236 0.0000
102   -173.0165703891  -0.000004457028 0.00118346  0.00012876  0.0281587 0.0000
103   -173.0165748522  -0.000004463122 0.00118429  0.00012889  0.0281938 0.0000
104   -173.0165793214  -0.000004469194 0.00118512  0.00012901  0.0282290 0.0000
105   -173.0165837967  -0.000004475246 0.00118594  0.00012913  0.0282641 0.0000
106   -173.0165882779  -0.000004481277 0.00118676  0.00012925  0.0282992 0.0000
107   -173.0165927652  -0.000004487287 0.00118757  0.00012937  0.0283343 0.0000
108   -173.0165972585  -0.000004493276 0.00118838  0.00012950  0.0283695 0.0000
109   -173.0166017577  -0.000004499244 0.00118918  0.00012962  0.0284046 0.0000
110   -173.0166062629  -0.000004505190 0.00118998  0.00012974  0.0284398 0.0000
111   -173.0166107740  -0.000004511115 0.00119077  0.00012986  0.0284749 0.0000
112   -173.0166152911  -0.000004517017 0.00119156  0.00012998  0.0285101 0.0000
113   -173.0166198140  -0.000004522898 0.00119235  0.00013010  0.0285452 0.0000
114   -173.0166243427  -0.000004528757 0.00119313  0.00013022  0.0285804 0.0000
115   -173.0166288773  -0.000004534593 0.00119390  0.00013034  0.0286155 0.0000
116   -173.0166334177  -0.000004540407 0.00119467  0.00013046  0.0286507 0.0000
117   -173.0166379639  -0.000004546198 0.00119544  0.00013058  0.0286858 0.0000
118   -173.0166425159  -0.000004551966 0.00119620  0.00013070  0.0287210 0.0000
119   -173.0166470736  -0.000004557711 0.00119696  0.00013082  0.0287561 0.0000
120   -173.0166516370  -0.000004563433 0.00119771  0.00013094  0.0287913 0.0000
121   -173.0166562062  -0.000004569131 0.00119846  0.00013106  0.0288265 0.0000
122   -173.0166607810  -0.000004574806 0.00119920  0.00013118  0.0288616 0.0000
123   -173.0166653614  -0.000004580458 0.00119993  0.00013130  0.0288968 0.0000
124   -173.0166699475  -0.000004586085 0.00120067  0.00013142  0.0289319 0.0000
125   -173.0166745392  -0.000004591688 0.00120139  0.00013154  0.0289671 0.0000
126   -173.0166791365  -0.000004597267 0.00120211  0.00013166  0.0290023 0.0000
127   -173.0166837393  -0.000004602821 0.00120283  0.00013178  0.0290374 0.0000
128   -173.0166883476  -0.000004608351 0.00120354  0.00013189  0.0290726 0.0000
129   -173.0166929615  -0.000004613856 0.00120425  0.00013201  0.0291078 0.0000
130   -173.0166975808  -0.000004619336 0.00120495  0.00013213  0.0291429 0.0000
131   -173.0167022056  -0.000004624790 0.00120565  0.00013225  0.0291781 0.0000
132   -173.0167068358  -0.000004630219 0.00120634  0.00013236  0.0292133 0.0000
133   -173.0167114715  -0.000004635623 0.00120702  0.00013248  0.0292484 0.0000
134   -173.0167161125  -0.000004641001 0.00120771  0.00013260  0.0292836 0.0000
135   -173.0167207588  -0.000004646353 0.00120838  0.00013271  0.0293187 0.0000
136   -173.0167254105  -0.000004651679 0.00120905  0.00013283  0.0293539 0.0000
137   -173.0167300675  -0.000004656978 0.00120972  0.00013295  0.0293890 0.0000
138   -173.0167347297  -0.000004662252 0.00121038  0.00013306  0.0294242 0.0000
139   -173.0167393972  -0.000004667498 0.00121103  0.00013318  0.0294593 0.0000
140   -173.0167440699  -0.000004672718 0.00121168  0.00013329  0.0294945 0.0000
141   -173.0167487478  -0.000004677910 0.00121233  0.00013341  0.0295296 0.0000
142   -173.0167534309  -0.000004683076 0.00121296  0.00013352  0.0295648 0.0000
143   -173.0167581191  -0.000004688214 0.00121360  0.00013364  0.0295999 0.0000
144   -173.0167628125  -0.000004693324 0.00121422  0.00013375  0.0296350 0.0000
145   -173.0167675109  -0.000004698407 0.00121485  0.00013387  0.0296701 0.0000
146   -173.0167722143  -0.000004703462 0.00121546  0.00013398  0.0297053 0.0000
147   -173.0167769228  -0.000004708488 0.00121608  0.00013410  0.0297404 0.0000
148   -173.0167816363  -0.000004713487 0.00121668  0.00013421  0.0297755 0.0000
149   -173.0167863548  -0.000004718456 0.00121728  0.00013432  0.0298106 0.0000
150   -173.0167910782  -0.000004723398 0.00121788  0.00013444  0.0298457 0.0000
151   -173.0167958065  -0.000004728310 0.00121847  0.00013455  0.0298808 0.0000
152   -173.0168005397  -0.000004733194 0.00121905  0.00013466  0.0299159 0.0000
153   -173.0168052777  -0.000004738048 0.00121963  0.00013477  0.0299510 0.0000
154   -173.0168100206  -0.000004742872 0.00122020  0.00013489  0.0299861 0.0000
155   -173.0168147682  -0.000004747668 0.00122077  0.00013500  0.0300212 0.0000
156   -173.0168195207  -0.000004752433 0.00122133  0.00013511  0.0300563 0.0000
157   -173.0168242778  -0.000004757168 0.00122188  0.00013522  0.0300913 0.0000
158   -173.0168290397  -0.000004761874 0.00122243  0.00013533  0.0301264 0.0000
159   -173.0168338063  -0.000004766549 0.00122297  0.00013544  0.0301615 0.0000
160   -173.0168385775  -0.000004771193 0.00122351  0.00013555  0.0301965 0.0000
161   -173.0168433533  -0.000004775808 0.00122404  0.00013567  0.0302316 0.0000
162   -173.0168481337  -0.000004780391 0.00122457  0.00013578  0.0302666 0.0000
163   -173.0168529186  -0.000004784943 0.00122509  0.00013589  0.0303016 0.0000
164   -173.0168577081  -0.000004789464 0.00122561  0.00013600  0.0303367 0.0000
165   -173.0168625020  -0.000004793953 0.00122611  0.00013610  0.0303717 0.0000
166   -173.0168673004  -0.000004798412 0.00122662  0.00013621  0.0304067 0.0000
167   -173.0168721033  -0.000004802838 0.00122711  0.00013632  0.0304417 0.0000
168   -173.0168769105  -0.000004807232 0.00122760  0.00013643  0.0304767 0.0000
169   -173.0168817221  -0.000004811595 0.00122809  0.00013654  0.0305116 0.0000
170   -173.0168865380  -0.000004815925 0.00122857  0.00013665  0.0305466 0.0000
171   -173.0168913582  -0.000004820222 0.00122904  0.00013676  0.0305816 0.0000
172   -173.0168961827  -0.000004824487 0.00122951  0.00013686  0.0306165 0.0000
173   -173.0169010115  -0.000004828719 0.00122997  0.00013697  0.0306515 0.0000
174   -173.0169058444  -0.000004832919 0.00123042  0.00013708  0.0306864 0.0000
175   -173.0169106815  -0.000004837084 0.00123087  0.00013718  0.0307214 0.0000
176   -173.0169155227  -0.000004841218 0.00123131  0.00013729  0.0307563 0.0000
177   -173.0169203680  -0.000004845317 0.00123175  0.00013740  0.0307912 0.0000
178   -173.0169252174  -0.000004849382 0.00123218  0.00013750  0.0308261 0.0000
179   -173.0169300708  -0.000004853414 0.00123260  0.00013761  0.0308610 0.0000
180   -173.0169349282  -0.000004857412 0.00123302  0.00013771  0.0308958 0.0000
181   -173.0169397896  -0.000004861375 0.00123343  0.00013782  0.0309307 0.0000
182   -173.0169446549  -0.000004865304 0.00123383  0.00013792  0.0309656 0.0000
183   -173.0169495241  -0.000004869199 0.00123423  0.00013803  0.0310004 0.0000
184   -173.0169543971  -0.000004873058 0.00123462  0.00013813  0.0310352 0.0000
185   -173.0169592740  -0.000004876883 0.00123501  0.00013823  0.0310701 0.0000
186   -173.0169641547  -0.000004880673 0.00123539  0.00013834  0.0311049 0.0000
187   -173.0169690391  -0.000004884428 0.00123576  0.00013844  0.0311397 0.0000
188   -173.0169739273  -0.000004888147 0.00123613  0.00013854  0.0311745 0.0000
189   -173.0169788191  -0.000004891831 0.00123649  0.00013865  0.0312092 0.0000
190   -173.0169837146  -0.000004895479 0.00123684  0.00013875  0.0312440 0.0000
191   -173.0169886137  -0.000004899090 0.00123719  0.00013885  0.0312787 0.0000
192   -173.0169935163  -0.000004902666 0.00123753  0.00013895  0.0313135 0.0000
193   -173.0169984225  -0.000004906206 0.00123786  0.00013905  0.0313482 0.0000
194   -173.0170033322  -0.000004909709 0.00123819  0.00013915  0.0313829 0.0000
195   -173.0170082454  -0.000004913175 0.00123851  0.00013925  0.0314176 0.0000
196   -173.0170131620  -0.000004916605 0.00123882  0.00013935  0.0314523 0.0000
197   -173.0170180820  -0.000004919998 0.00123913  0.00013945  0.0314869 0.0000
198   -173.0170230054  -0.000004923354 0.00123943  0.00013955  0.0315216 0.0000
199   -173.0170279320  -0.000004926672 0.00123973  0.00013965  0.0315562 0.0000
200   -173.0170328620  -0.000004929953 0.00124001  0.00013975  0.0315908 0.0000
201   -173.0170377952  -0.000004933196 0.00124030  0.00013985  0.0316254 0.0000
202   -173.0170427316  -0.000004936402 0.00124057  0.00013995  0.0316600 0.0000
203   -173.0170476712  -0.000004939570 0.00124084  0.00014005  0.0316946 0.0000
204   -173.0170526139  -0.000004942699 0.00124110  0.00014014  0.0317291 0.0000
205   -173.0170575597  -0.000004945790 0.00124135  0.00014024  0.0317637 0.0000
206   -173.0170625085  -0.000004948843 0.00124160  0.00014034  0.0317982 0.0000
207   -173.0170674604  -0.000004951858 0.00124184  0.00014044  0.0318327 0.0000
208   -173.0170724152  -0.000004954833 0.00124207  0.00014053  0.0318672 0.0000
209   -173.0170773730  -0.000004957770 0.00124230  0.00014063  0.0319017 0.0000
210   -173.0170823336  -0.000004960668 0.00124252  0.00014072  0.0319361 0.0000
211   -173.0170872972  -0.000004963526 0.00124273  0.00014082  0.0319706 0.0000
212   -173.0170922635  -0.000004966345 0.00124294  0.00014091  0.0320050 0.0000
213   -173.0170972326  -0.000004969124 0.00124314  0.00014101  0.0320394 0.0000
214   -173.0171022045  -0.000004971864 0.00124333  0.00014110  0.0320738 0.0000
215   -173.0171071791  -0.000004974564 0.00124352  0.00014119  0.0321082 0.0000
216   -173.0171121563  -0.000004977224 0.00124369  0.00014129  0.0321425 0.0000
217   -173.0171171361  -0.000004979844 0.00124387  0.00014138  0.0321769 0.0000
218   -173.0171221185  -0.000004982423 0.00124403  0.00014147  0.0322112 0.0000
219   -173.0171271035  -0.000004984962 0.00124419  0.00014156  0.0322455 0.0000
220   -173.0171320910  -0.000004987460 0.00124434  0.00014166  0.0322797 0.0000
221   -173.0171370809  -0.000004989918 0.00124448  0.00014175  0.0323140 0.0000
222   -173.0171420732  -0.000004992335 0.00124462  0.00014184  0.0323482 0.0000
223   -173.0171470679  -0.000004994710 0.00124474  0.00014193  0.0323825 0.0000
224   -173.0171520650  -0.000004997045 0.00124487  0.00014202  0.0324167 0.0000
225   -173.0171570643  -0.000004999338 0.00124498  0.00014211  0.0324508 0.0000
226   -173.0171620659  -0.000005001589 0.00124509  0.00014220  0.0324850 0.0000
227   -173.0171670697  -0.000005003799 0.00124519  0.00014229  0.0325191 0.0000
228   -173.0171720757  -0.000005005967 0.00124528  0.00014238  0.0325532 0.0000
229   -173.0171770838  -0.000005008093 0.00124537  0.00014247  0.0325873 0.0000
230   -173.0171820939  -0.000005010177 0.00124545  0.00014255  0.0326214 0.0000
231   -173.0171871062  -0.000005012219 0.00124552  0.00014264  0.0326554 0.0000
232   -173.0171921204  -0.000005014218 0.00124558  0.00014273  0.0326895 0.0000
233   -173.0171971366  -0.000005016175 0.00124564  0.00014281  0.0327235 0.0000
234   -173.0172021546  -0.000005018089 0.00124569  0.00014290  0.0327575 0.0000
235   -173.0172071746  -0.000005019960 0.00124573  0.00014299  0.0327914 0.0000
236   -173.0172121964  -0.000005021789 0.00124576  0.00014307  0.0328254 0.0000
237   -173.0172172200  -0.000005023574 0.00124579  0.00014316  0.0328593 0.0000
238   -173.0172222453  -0.000005025317 0.00124581  0.00014324  0.0328932 0.0000
239   -173.0172272723  -0.000005027015 0.00124583  0.00014333  0.0329270 0.0000
240   -173.0172323010  -0.000005028670 0.00124583  0.00014341  0.0329609 0.0000
241   -173.0172373312  -0.000005030283 0.00124583  0.00014349  0.0329947 0.0000
242   -173.0172423631  -0.000005031850 0.00124582  0.00014358  0.0330285 0.0000
243   -173.0172473965  -0.000005033374 0.00124580  0.00014366  0.0330623 0.0000
244   -173.0172524313  -0.000005034855 0.00124578  0.00014374  0.0330960 0.0000
245   -173.0172574676  -0.000005036290 0.00124575  0.00014382  0.0331297 0.0000
246   -173.0172625053  -0.000005037682 0.00124571  0.00014390  0.0331634 0.0000
247   -173.0172675443  -0.000005039029 0.00124566  0.00014398  0.0331971 0.0000
248   -173.0172725847  -0.000005040332 0.00124561  0.00014406  0.0332308 0.0000
249   -173.0172776263  -0.000005041590 0.00124554  0.00014414  0.0332644 0.0000
250   -173.0172826691  -0.000005042804 0.00124547  0.00014422  0.0332980 0.0000
251   -173.0172877130  -0.000005043972 0.00124540  0.00014430  0.0333316 0.0000
252   -173.0172927581  -0.000005045095 0.00124531  0.00014438  0.0333651 0.0000
253   -173.0172978043  -0.000005046174 0.00124522  0.00014446  0.0333986 0.0000
254   -173.0173028515  -0.000005047207 0.00124512  0.00014454  0.0334321 0.0000
255   -173.0173078997  -0.000005048194 0.00124501  0.00014461  0.0334656 0.0000
256   -173.0173129488  -0.000005049137 0.00124490  0.00014469  0.0334990 0.0000
257   -173.0173179989  -0.000005050033 0.00124477  0.00014477  0.0335324 0.0000
258   -173.0173230498  -0.000005050884 0.00124464  0.00014484  0.0335658 0.0000
259   -173.0173281014  -0.000005051689 0.00124451  0.00014492  0.0335992 0.0000
260   -173.0173331539  -0.000005052448 0.00124436  0.00014499  0.0336325 0.0000
261   -173.0173382071  -0.000005053161 0.00124421  0.00014507  0.0336658 0.0000
262   -173.0173432609  -0.000005053828 0.00124405  0.00014514  0.0336991 0.0000
263   -173.0173483153  -0.000005054449 0.00124388  0.00014521  0.0337323 0.0000
264   -173.0173533703  -0.000005055023 0.00124370  0.00014529  0.0337655 0.0000
265   -173.0173584259  -0.000005055551 0.00124352  0.00014536  0.0337987 0.0000
266   -173.0173634819  -0.000005056032 0.00124332  0.00014543  0.0338318 0.0000
267   -173.0173685384  -0.000005056466 0.00124312  0.00014550  0.0338650 0.0000
268   -173.0173735953  -0.000005056854 0.00124292  0.00014557  0.0338981 0.0000
269   -173.0173786524  -0.000005057195 0.00124270  0.00014564  0.0339311 0.0000
270   -173.0173837099  -0.000005057489 0.00124248  0.00014571  0.0339642 0.0000
271   -173.0173887677  -0.000005057735 0.00124225  0.00014578  0.0339972 0.0000
272   -173.0173938256  -0.000005057935 0.00124201  0.00014585  0.0340301 0.0000
273   -173.0173988837  -0.000005058087 0.00124176  0.00014592  0.0340631 0.0000
274   -173.0174039419  -0.000005058192 0.00124151  0.00014599  0.0340960 0.0000
275   -173.0174090001  -0.000005058249 0.00124124  0.00014606  0.0341289 0.0000
276   -173.0174140584  -0.000005058259 0.00124097  0.00014612  0.0341617 0.0000
277   -173.0174191166  -0.000005058221 0.00124069  0.00014619  0.0341945 0.0000
278   -173.0174241747  -0.000005058136 0.00124041  0.00014626  0.0342273 0.0000
279   -173.0174292328  -0.000005058002 0.00124011  0.00014632  0.0342601 0.0000
280   -173.0174342906  -0.000005057821 0.00123981  0.00014639  0.0342928 0.0000
281   -173.0174393482  -0.000005057592 0.00123950  0.00014645  0.0343255 0.0000
282   -173.0174444055  -0.000005057314 0.00123918  0.00014651  0.0343581 0.0000
283   -173.0174494625  -0.000005056988 0.00123886  0.00014658  0.0343907 0.0000
284   -173.0174545191  -0.000005056615 0.00123852  0.00014664  0.0344233 0.0000
285   -173.0174595753  -0.000005056192 0.00123818  0.00014670  0.0344559 0.0000
286   -173.0174646310  -0.000005055722 0.00123783  0.00014676  0.0344884 0.0000
287   -173.0174696862  -0.000005055203 0.00123748  0.00014683  0.0345209 0.0000
288   -173.0174747408  -0.000005054635 0.00123711  0.00014689  0.0345533 0.0000
289   -173.0174797949  -0.000005054019 0.00123674  0.00014695  0.0345858 0.0000
290   -173.0174848482  -0.000005053354 0.00123635  0.00014701  0.0346181 0.0000
291   -173.0174899008  -0.000005052641 0.00123597  0.00014707  0.0346505 0.0000
292   -173.0174949527  -0.000005051878 0.00123557  0.00014712  0.0346828 0.0000
293   -173.0175000038  -0.000005051067 0.00123516  0.00014718  0.0347151 0.0000
294   -173.0175050540  -0.000005050207 0.00123475  0.00014724  0.0347473 0.0000
295   -173.0175101033  -0.000005049297 0.00123433  0.00014730  0.0347795 0.0000
296   -173.0175151516  -0.000005048339 0.00123390  0.00014735  0.0348117 0.0000
297   -173.0175201990  -0.000005047331 0.00123346  0.00014741  0.0348438 0.0000
298   -173.0175252452  -0.000005046274 0.00123301  0.00014746  0.0348759 0.0000
299   -173.0175302904  -0.000005045169 0.00123256  0.00014752  0.0349080 0.0000
300   -173.0175353344  -0.000005044013 0.00123210  0.00014757  0.0349400 0.0000
301   -173.0175403772  -0.000005042809 0.00123163  0.00014763  0.0349720 0.0000
302   -173.0175454188  -0.000005041554 0.00123115  0.00014768  0.0350040 0.0000
303   -173.0175504590  -0.000005040251 0.00123066  0.00014773  0.0350359 0.0000
304   -173.0175554979  -0.000005038898 0.00123017  0.00014778  0.0350678 0.0000
305   -173.0175605354  -0.000005037495 0.00122967  0.00014784  0.0350996 0.0000
306   -173.0175655715  -0.000005036043 0.00122916  0.00014789  0.0351314 0.0000
307   -173.0175706060  -0.000005034541 0.00122864  0.00014794  0.0351632 0.0000
308   -173.0175756390  -0.000005032989 0.00122811  0.00014799  0.0351949 0.0000
309   -173.0175806704  -0.000005031388 0.00122758  0.00014804  0.0352266 0.0000
310   -173.0175857001  -0.000005029737 0.00122703  0.00014808  0.0352582 0.0000
311   -173.0175907282  -0.000005028036 0.00122648  0.00014813  0.0352898 0.0000
312   -173.0175957544  -0.000005026285 0.00122592  0.00014818  0.0353214 0.0000
313   -173.0176007789  -0.000005024484 0.00122536  0.00014823  0.0353529 0.0000
314   -173.0176058016  -0.000005022634 0.00122478  0.00014827  0.0353844 0.0000
315   -173.0176108223  -0.000005020733 0.00122420  0.00014832  0.0354159 0.0000
316   -173.0176158411  -0.000005018783 0.00122361  0.00014836  0.0354473 0.0000
317   -173.0176208579  -0.000005016782 0.00122301  0.00014841  0.0354786 0.0000
318   -173.0176258726  -0.000005014731 0.00122240  0.00014845  0.0355100 0.0000
319   -173.0176308852  -0.000005012631 0.00122178  0.00014849  0.0355413 0.0000
320   -173.0176358957  -0.000005010480 0.00122116  0.00014854  0.0355725 0.0000
321   -173.0176409040  -0.000005008280 0.00122053  0.00014858  0.0356037 0.0000
322   -173.0176459100  -0.000005006029 0.00121989  0.00014862  0.0356349 0.0000
323   -173.0176509137  -0.000005003728 0.00121924  0.00014866  0.0356660 0.0000
324   -173.0176559151  -0.000005001377 0.00121858  0.00014870  0.0356971 0.0000
325   -173.0176609141  -0.000004998975 0.00121792  0.00014874  0.0357281 0.0000
326   -173.0176659106  -0.000004996524 0.00121724  0.00014878  0.0357591 0.0000
327   -173.0176709046  -0.000004994022 0.00121656  0.00014882  0.0357901 0.0000
328   -173.0176758961  -0.000004991470 0.00121587  0.00014885  0.0358210 0.0000
329   -173.0176808850  -0.000004988869 0.00121518  0.00014889  0.0358519 0.0000
330   -173.0176858712  -0.000004986216 0.00121447  0.00014893  0.0358827 0.0000
331   -173.0176908547  -0.000004983514 0.00121376  0.00014896  0.0359135 0.0000
332   -173.0176958355  -0.000004980762 0.00121304  0.00014900  0.0359442 0.0000
333   -173.0177008134  -0.000004977959 0.00121231  0.00014903  0.0359749 0.0000
334   -173.0177057885  -0.000004975106 0.00121157  0.00014906  0.0360056 0.0000
335   -173.0177107607  -0.000004972203 0.00121082  0.00014910  0.0360362 0.0000
336   -173.0177157300  -0.000004969250 0.00121007  0.00014913  0.0360667 0.0000
337   -173.0177206962  -0.000004966247 0.00120931  0.00014916  0.0360972 0.0000
338   -173.0177256594  -0.000004963193 0.00120854  0.00014919  0.0361277 0.0000
339   -173.0177306195  -0.000004960089 0.00120776  0.00014922  0.0361582 0.0000
340   -173.0177355765  -0.000004956936 0.00120697  0.00014925  0.0361885 0.0000
341   -173.0177405302  -0.000004953732 0.00120618  0.00014928  0.0362189 0.0000
342   -173.0177454807  -0.000004950478 0.00120537  0.00014931  0.0362492 0.0000
343   -173.0177504278  -0.000004947174 0.00120456  0.00014934  0.0362794 0.0000
344   -173.0177553717  -0.000004943820 0.00120375  0.00014937  0.0363096 0.0000
345   -173.0177603121  -0.000004940416 0.00120292  0.00014939  0.0363398 0.0000
346   -173.0177652490  -0.000004936962 0.00120208  0.00014942  0.0363699 0.0000
347   -173.0177701825  -0.000004933458 0.00120124  0.00014944  0.0364000 0.0000
348   -173.0177751124  -0.000004929904 0.00120039  0.00014947  0.0364300 0.0000
349   -173.0177800387  -0.000004926300 0.00119953  0.00014949  0.0364600 0.0000
350   -173.0177849613  -0.000004922646 0.00119866  0.00014951  0.0364899 0.0000
351   -173.0177898803  -0.000004918942 0.00119779  0.00014954  0.0365198 0.0000
352   -173.0177947955  -0.000004915189 0.00119690  0.00014956  0.0365496 0.0000
353   -173.0177997069  -0.000004911386 0.00119601  0.00014958  0.0365794 0.0000
354   -173.0178046144  -0.000004907534 0.00119511  0.00014960  0.0366091 0.0000
355   -173.0178095180  -0.000004903631 0.00119420  0.00014962  0.0366388 0.0000
356   -173.0178144177  -0.000004899679 0.00119329  0.00014964  0.0366685 0.0000
357   -173.0178193134  -0.000004895677 0.00119236  0.00014966  0.0366981 0.0000
358   -173.0178242050  -0.000004891626 0.00119143  0.00014967  0.0367276 0.0000
359   -173.0178290925  -0.000004887526 0.00119049  0.00014969  0.0367571 0.0000
360   -173.0178339759  -0.000004883376 0.00118955  0.00014971  0.0367866 0.0000
361   -173.0178388551  -0.000004879176 0.00118859  0.00014972  0.0368160 0.0000
362   -173.0178437300  -0.000004874928 0.00118763  0.00014974  0.0368453 0.0000
363   -173.0178486006  -0.000004870630 0.00118665  0.00014975  0.0368746 0.0000
364   -173.0178534669  -0.000004866283 0.00118567  0.00014977  0.0369039 0.0000
365   -173.0178583288  -0.000004861886 0.00118469  0.00014978  0.0369331 0.0000
366   -173.0178631863  -0.000004857441 0.00118369  0.00014979  0.0369622 0.0000
367   -173.0178680392  -0.000004852947 0.00118269  0.00014980  0.0369913 0.0000
368   -173.0178728876  -0.000004848404 0.00118168  0.00014981  0.0370204 0.0000
369   -173.0178777314  -0.000004843812 0.00118066  0.00014982  0.0370494 0.0000
370   -173.0178825706  -0.000004839171 0.00117963  0.00014983  0.0370783 0.0000
371   -173.0178874051  -0.000004834482 0.00117860  0.00014984  0.0371072 0.0000
372   -173.0178922348  -0.000004829743 0.00117755  0.00014985  0.0371361 0.0000
373   -173.0178970598  -0.000004824957 0.00117650  0.00014985  0.0371649 0.0000
374   -173.0179018799  -0.000004820122 0.00117544  0.00014986  0.0371936 0.0000
375   -173.0179066951  -0.000004815238 0.00117438  0.00014987  0.0372223 0.0000
376   -173.0179115054  -0.000004810306 0.00117330  0.00014987  0.0372510 0.0000
377   -173.0179163108  -0.000004805327 0.00117222  0.00014988  0.0372796 0.0000
378   -173.0179211111  -0.000004800299 0.00117113  0.00014988  0.0373081 0.0000
379   -173.0179259063  -0.000004795223 0.00117003  0.00014988  0.0373366 0.0000
380   -173.0179306964  -0.000004790099 0.00116893  0.00014988  0.0373651 0.0000
381   -173.0179354813  -0.000004784927 0.00116781  0.00014988  0.0373935 0.0000
382   -173.0179402610  -0.000004779707 0.00116669  0.00014988  0.0374218 0.0000
383   -173.0179450355  -0.000004774440 0.00116556  0.00014988  0.0374501 0.0000
384   -173.0179498046  -0.000004769125 0.00116443  0.00014988  0.0374783 0.0000
385   -173.0179545683  -0.000004763763 0.00116328  0.00014988  0.0375065 0.0000
386   -173.0179593267  -0.000004758354 0.00116213  0.00014988  0.0375346 0.0000
387   -173.0179640796  -0.000004752897 0.00116097  0.00014987  0.0375627 0.0000
388   -173.0179688270  -0.000004747393 0.00115980  0.00014987  0.0375907 0.0000
389   -173.0179735688  -0.000004741842 0.00115863  0.00014987  0.0376187 0.0000
390   -173.0179783051  -0.000004736244 0.00115745  0.00014986  0.0376466 0.0000
391   -173.0179830357  -0.000004730600 0.00115626  0.00014985  0.0376744 0.0000
392   -173.0179877606  -0.000004724908 0.00115506  0.00014985  0.0377022 0.0000
393   -173.0179924798  -0.000004719171 0.00115385  0.00014984  0.0377300 0.0000
394   -173.0179971931  -0.000004713387 0.00115264  0.00014983  0.0377577 0.0000
395   -173.0180019007  -0.000004707556 0.00115142  0.00014982  0.0377853 0.0000
396   -173.0180066024  -0.000004701680 0.00115019  0.00014981  0.0378129 0.0000
397   -173.0180112981  -0.000004695757 0.00114895  0.00014980  0.0378404 0.0000
398   -173.0180159879  -0.000004689788 0.00114771  0.00014979  0.0378679 0.0000
399   -173.0180206717  -0.000004683774 0.00114646  0.00014977  0.0378953 0.0000
400   -173.0180253494  -0.000004677714 0.00114520  0.00014976  0.0379227 0.0000
401   -173.0180300210  -0.000004671608 0.00114394  0.00014975  0.0379500 0.0000
402   -173.0180346865  -0.000004665458 0.00114266  0.00014973  0.0379772 0.0000
403   -173.0180393457  -0.000004659261 0.00114138  0.00014972  0.0380044 0.0000
404   -173.0180439988  -0.000004653020 0.00114010  0.00014970  0.0380316 0.0000
405   -173.0180486455  -0.000004646734 0.00113880  0.00014968  0.0380587 0.0000
406   -173.0180532859  -0.000004640403 0.00113750  0.00014966  0.0380857 0.0000
407   -173.0180579199  -0.000004634027 0.00113619  0.00014965  0.0381127 0.0000
408   -173.0180625475  -0.000004627606 0.00113487  0.00014963  0.0381396 0.0000
409   -173.0180671687  -0.000004621142 0.00113355  0.00014961  0.0381664 0.0000
410   -173.0180717833  -0.000004614633 0.00113221  0.00014958  0.0381932 0.0000
411   -173.0180763914  -0.000004608080 0.00113087  0.00014956  0.0382200 0.0000
412   -173.0180809929  -0.000004601483 0.00112953  0.00014954  0.0382467 0.0000
413   -173.0180855877  -0.000004594842 0.00112817  0.00014952  0.0382733 0.0000
414   -173.0180901759  -0.000004588158 0.00112681  0.00014949  0.0382999 0.0000
415   -173.0180947573  -0.000004581430 0.00112545  0.00014947  0.0383264 0.0000
416   -173.0180993320  -0.000004574659 0.00112407  0.00014944  0.0383529 0.0000
417   -173.0181038998  -0.000004567845 0.00112269  0.00014941  0.0383793 0.0000
418   -173.0181084608  -0.000004560988 0.00112130  0.00014939  0.0384056 0.0000
419   -173.0181130149  -0.000004554088 0.00111990  0.00014936  0.0384319 0.0000
420   -173.0181175620  -0.000004547146 0.00111850  0.00014933  0.0384581 0.0000
421   -173.0181221022  -0.000004540161 0.00111709  0.00014930  0.0384843 0.0000
422   -173.0181266353  -0.000004533133 0.00111567  0.00014927  0.0385104 0.0000
423   -173.0181311614  -0.000004526064 0.00111425  0.00014924  0.0385365 0.0000
424   -173.0181356803  -0.000004518953 0.00111282  0.00014920  0.0385625 0.0000
425   -173.0181401921  -0.000004511800 0.00111138  0.00014917  0.0385884 0.0000
426   -173.0181446967  -0.000004504605 0.00110993  0.00014914  0.0386143 0.0000
427   -173.0181491941  -0.000004497369 0.00110848  0.00014910  0.0386401 0.0000
428   -173.0181536842  -0.000004490092 0.00110702  0.00014907  0.0386659 0.0000
429   -173.0181581670  -0.000004482774 0.00110555  0.00014903  0.0386916 0.0000
430   -173.0181626424  -0.000004475415 0.00110408  0.00014899  0.0387172 0.0000
431   -173.0181671104  -0.000004468015 0.00110260  0.00014895  0.0387428 0.0000
432   -173.0181715710  -0.000004460575 0.00110112  0.00014892  0.0387683 0.0000
433   -173.0181760241  -0.000004453095 0.00109962  0.00014888  0.0387938 0.0000
434   -173.0181804696  -0.000004445575 0.00109812  0.00014884  0.0388192 0.0000
435   -173.0181849077  -0.000004438014 0.00109662  0.00014879  0.0388445 0.0000
436   -173.0181893381  -0.000004430414 0.00109510  0.00014875  0.0388698 0.0000
437   -173.0181937608  -0.000004422775 0.00109358  0.00014871  0.0388951 0.0000
438   -173.0181981759  -0.000004415096 0.00109206  0.00014866  0.0389202 0.0000
439   -173.0182025833  -0.000004407378 0.00109052  0.00014862  0.0389453 0.0000
440   -173.0182069829  -0.000004399622 0.00108898  0.00014857  0.0389704 0.0000
441   -173.0182113748  -0.000004391827 0.00108744  0.00014853  0.0389954 0.0000
442   -173.0182157588  -0.000004383993 0.00108589  0.00014848  0.0390203 0.0000
443   -173.0182201349  -0.000004376121 0.00108433  0.00014843  0.0390451 0.0000
444   -173.0182245031  -0.000004368211 0.00108276  0.00014838  0.0390699 0.0000
445   -173.0182288634  -0.000004360264 0.00108119  0.00014833  0.0390947 0.0000
446   -173.0182332156  -0.000004352278 0.00107961  0.00014828  0.0391194 0.0000
447   -173.0182375599  -0.000004344256 0.00107803  0.00014823  0.0391440 0.0000
448   -173.0182418961  -0.000004336196 0.00107643  0.00014818  0.0391686 0.0000
449   -173.0182462242  -0.000004328099 0.00107484  0.00014813  0.0391931 0.0000
450   -173.0182505442  -0.000004319965 0.00107323  0.00014807  0.0392175 0.0000
451   -173.0182548559  -0.000004311795 0.00107162  0.00014802  0.0392419 0.0000
452   -173.0182591595  -0.000004303589 0.00107001  0.00014796  0.0392662 0.0000
453   -173.0182634549  -0.000004295347 0.00106839  0.00014791  0.0392904 0.0000
454   -173.0182677420  -0.000004287069 0.00106676  0.00014785  0.0393146 0.0000
455   -173.0182720207  -0.000004278755 0.00106512  0.00014779  0.0393388 0.0000
456   -173.0182762911  -0.000004270406 0.00106348  0.00014773  0.0393628 0.0000
457   -173.0182805531  -0.000004262021 0.00106184  0.00014767  0.0393868 0.0000
458   -173.0182848067  -0.000004253602 0.00106018  0.00014761  0.0394108 0.0000
459   -173.0182890519  -0.000004245148 0.00105852  0.00014755  0.0394346 0.0000
460   -173.0182932885  -0.000004236660 0.00105686  0.00014749  0.0394585 0.0000
461   -173.0182975167  -0.000004228137 0.00105519  0.00014742  0.0394822 0.0000
462   -173.0183017363  -0.000004219581 0.00105351  0.00014736  0.0395059 0.0000
463   -173.0183059473  -0.000004210991 0.00105183  0.00014729  0.0395296 0.0000
464   -173.0183101496  -0.000004202367 0.00105014  0.00014723  0.0395531 0.0000
465   -173.0183143433  -0.000004193710 0.00104845  0.00014716  0.0395766 0.0000
466   -173.0183185283  -0.000004185020 0.00104675  0.00014709  0.0396001 0.0000
467   -173.0183227046  -0.000004176297 0.00104504  0.00014703  0.0396235 0.0000
468   -173.0183268722  -0.000004167543 0.00104333  0.00014696  0.0396468 0.0000
469   -173.0183310309  -0.000004158755 0.00104162  0.00014689  0.0396700 0.0000
470   -173.0183351809  -0.000004149936 0.00103989  0.00014682  0.0396932 0.0000
471   -173.0183393220  -0.000004141084 0.00103817  0.00014674  0.0397164 0.0000
472   -173.0183434542  -0.000004132202 0.00103643  0.00014667  0.0397394 0.0000
473   -173.0183475775  -0.000004123288 0.00103469  0.00014660  0.0397624 0.0000
474   -173.0183516918  -0.000004114343 0.00103295  0.00014652  0.0397854 0.0000
475   -173.0183557972  -0.000004105367 0.00103120  0.00014645  0.0398083 0.0000
476   -173.0183598935  -0.000004096361 0.00102944  0.00014637  0.0398311 0.0000
477   -173.0183639808  -0.000004087324 0.00102768  0.00014630  0.0398538 0.0000
478   -173.0183680591  -0.000004078258 0.00102592  0.00014622  0.0398765 0.0000
479   -173.0183721283  -0.000004069161 0.00102414  0.00014614  0.0398991 0.0000
480   -173.0183761883  -0.000004060036 0.00102237  0.00014606  0.0399217 0.0000
481   -173.0183802392  -0.000004050881 0.00102058  0.00014598  0.0399442 0.0000
482   -173.0183842809  -0.000004041698 0.00101880  0.00014590  0.0399666 0.0000
483   -173.0183883134  -0.000004032485 0.00101701  0.00014582  0.0399890 0.0000
484   -173.0183923366  -0.000004023244 0.00101521  0.00014573  0.0400113 0.0000
485   -173.0183963506  -0.000004013975 0.00101340  0.00014565  0.0400335 0.0000
486   -173.0184003553  -0.000004004679 0.00101160  0.00014557  0.0400557 0.0000
487   -173.0184043506  -0.000003995354 0.00100978  0.00014548  0.0400778 0.0000
488   -173.0184083366  -0.000003986002 0.00100797  0.00014539  0.0400999 0.0000
489   -173.0184123132  -0.000003976624 0.00100614  0.00014531  0.0401219 0.0000
490   -173.0184162805  -0.000003967218 0.00100432  0.00014522  0.0401438 0.0000
491   -173.0184202383  -0.000003957786 0.00100248  0.00014513  0.0401657 0.0000
492   -173.0184241866  -0.000003948327 0.00100065  0.00014504  0.0401875 0.0000
493   -173.0184281254  -0.000003938843 0.00099880  0.00014495  0.0402092 0.0000
494   -173.0184320548  -0.000003929333 0.00099696  0.00014486  0.0402309 0.0000
495   -173.0184359746  -0.000003919798 0.00099511  0.00014477  0.0402525 0.0000
496   -173.0184398848  -0.000003910237 0.00099325  0.00014467  0.0402740 0.0000
497   -173.0184437854  -0.000003900652 0.00099139  0.00014458  0.0402955 0.0000
498   -173.0184476765  -0.000003891042 0.00098952  0.00014448  0.0403169 0.0000
499   -173.0184515579  -0.000003881407 0.00098765  0.00014439  0.0403382 0.0000
500   -173.0184554296  -0.000003871749 0.00098578  0.00014429  0.0403595 0.0000
501   -173.0184592917  -0.000003862067 0.00098390  0.00014420  0.0403807 0.0000
502   -173.0184631441  -0.000003852361 0.00098201  0.00014410  0.0404019 0.0000
503   -173.0184669867  -0.000003842632 0.00098013  0.00014400  0.0404230 0.0000
504   -173.0184708196  -0.000003832881 0.00097823  0.00014390  0.0404440 0.0000
505   -173.0184746427  -0.000003823107 0.00097634  0.00014380  0.0404650 0.0000
506   -173.0184784560  -0.000003813310 0.00097444  0.00014370  0.0404858 0.0000
507   -173.0184822595  -0.000003803491 0.00097253  0.00014359  0.0405067 0.0000
508   -173.0184860531  -0.000003793651 0.00097062  0.00014349  0.0405274 0.0000
509   -173.0184898369  -0.000003783789 0.00096871  0.00014339  0.0405481 0.0000
510   -173.0184936108  -0.000003773905 0.00096679  0.00014328  0.0405688 0.0000
511   -173.0184973748  -0.000003764002 0.00096487  0.00014317  0.0405894 0.0000
512   -173.0185011289  -0.000003754077 0.00096294  0.00014307  0.0406099 0.0000
513   -173.0185048730  -0.000003744132 0.00096101  0.00014296  0.0406303 0.0000
514   -173.0185086072  -0.000003734167 0.00095908  0.00014285  0.0406507 0.0000
515   -173.0185123314  -0.000003724182 0.00095714  0.00014274  0.0406710 0.0000
516   -173.0185160456  -0.000003714178 0.00095520  0.00014263  0.0406912 0.0000
517   -173.0185197497  -0.000003704155 0.00095325  0.00014252  0.0407114 0.0000
518   -173.0185234438  -0.000003694113 0.00095130  0.00014241  0.0407316 0.0000
519   -173.0185271279  -0.000003684052 0.00094935  0.00014230  0.0407516 0.0000
520   -173.0185308019  -0.000003673973 0.00094739  0.00014218  0.0407716 0.0000
521   -173.0185344657  -0.000003663876 0.00094543  0.00014207  0.0407915 0.0000
522   -173.0185381195  -0.000003653761 0.00094346  0.00014195  0.0408114 0.0000
523   -173.0185417631  -0.000003643629 0.00094150  0.00014184  0.0408312 0.0000
524   -173.0185453966  -0.000003633480 0.00093952  0.00014172  0.0408509 0.0000
525   -173.0185490199  -0.000003623313 0.00093755  0.00014160  0.0408706 0.0000
526   -173.0185526331  -0.000003613131 0.00093557  0.00014149  0.0408902 0.0000
527   -173.0185562360  -0.000003602932 0.00093359  0.00014137  0.0409097 0.0000
528   -173.0185598287  -0.000003592717 0.00093160  0.00014125  0.0409292 0.0000
529   -173.0185634112  -0.000003582487 0.00092961  0.00014113  0.0409486 0.0000
530   -173.0185669834  -0.000003572241 0.00092762  0.00014100  0.0409679 0.0000
531   -173.0185705454  -0.000003561980 0.00092564  0.00014088  0.0409872 0.0000
532   -173.0185740971  -0.000003551705 0.00092367  0.00014076  0.0410064 0.0000
533   -173.0185776385  -0.000003541415 0.00092169  0.00014063  0.0410256 0.0000
534   -173.0185811696  -0.000003531110 0.00091971  0.00014051  0.0410447 0.0000
535   -173.0185846904  -0.000003520792 0.00091773  0.00014038  0.0410637 0.0000
536   -173.0185882009  -0.000003510461 0.00091574  0.00014026  0.0410826 0.0000
537   -173.0185917010  -0.000003500116 0.00091375  0.00014013  0.0411015 0.0000
538   -173.0185951908  -0.000003489758 0.00091176  0.00014000  0.0411204 0.0000
539   -173.0185986702  -0.000003479388 0.00090976  0.00013987  0.0411391 0.0000
540   -173.0186021392  -0.000003469005 0.00090777  0.00013974  0.0411578 0.0000
541   -173.0186055978  -0.000003458610 0.00090577  0.00013961  0.0411765 0.0000
542   -173.0186090460  -0.000003448203 0.00090376  0.00013948  0.0411950 0.0000
543   -173.0186124838  -0.000003437785 0.00090175  0.00013935  0.0412135 0.0000
544   -173.0186159111  -0.000003427355 0.00089974  0.00013921  0.0412320 0.0000
545   -173.0186193280  -0.000003416915 0.00089773  0.00013908  0.0412504 0.0000
546   -173.0186227345  -0.000003406464 0.00089572  0.00013894  0.0412687 0.0000
547   -173.0186261305  -0.000003396003 0.00089370  0.00013881  0.0412869 0.0000
548   -173.0186295160  -0.000003385532 0.00089168  0.00013867  0.0413051 0.0000
549   -173.0186328911  -0.000003375051 0.00088965  0.00013853  0.0413232 0.0000
550   -173.0186362556  -0.000003364561 0.00088763  0.00013840  0.0413413 0.0000
551   -173.0186396097  -0.000003354062 0.00088560  0.00013826  0.0413593 0.0000
552   -173.0186429533  -0.000003343553 0.00088357  0.00013812  0.0413772 0.0000
553   -173.0186462863  -0.000003333037 0.00088154  0.00013798  0.0413950 0.0000
554   -173.0186496088  -0.000003322512 0.00087950  0.00013784  0.0414128 0.0000
555   -173.0186529208  -0.000003311979 0.00087746  0.00013769  0.0414306 0.0000
556   -173.0186562222  -0.000003301439 0.00087542  0.00013755  0.0414482 0.0000
557   -173.0186595131  -0.000003290891 0.00087338  0.00013741  0.0414659 0.0000
558   -173.0186627934  -0.000003280336 0.00087134  0.00013726  0.0414834 0.0000
559   -173.0186660632  -0.000003269775 0.00086929  0.00013712  0.0415009 0.0000
560   -173.0186693224  -0.000003259207 0.00086724  0.00013697  0.0415183 0.0000
561   -173.0186725711  -0.000003248632 0.00086519  0.00013683  0.0415356 0.0000
562   -173.0186758091  -0.000003238053 0.00086314  0.00013668  0.0415529 0.0000
563   -173.0186790366  -0.000003227467 0.00086108  0.00013653  0.0415702 0.0000
564   -173.0186822535  -0.000003216876 0.00085903  0.00013638  0.0415873 0.0000
565   -173.0186854597  -0.000003206280 0.00085697  0.00013623  0.0416044 0.0000
566   -173.0186886554  -0.000003195680 0.00085491  0.00013608  0.0416214 0.0000
567   -173.0186918405  -0.000003185075 0.00085284  0.00013593  0.0416384 0.0000
568   -173.0186950150  -0.000003174466 0.00085078  0.00013578  0.0416553 0.0000
569   -173.0186981788  -0.000003163853 0.00084871  0.00013562  0.0416722 0.0000
570   -173.0187013320  -0.000003153237 0.00084665  0.00013547  0.0416889 0.0000
571   -173.0187044747  -0.000003142618 0.00084458  0.00013532  0.0417057 0.0000
572   -173.0187076067  -0.000003131995 0.00084251  0.00013516  0.0417223 0.0000
573   -173.0187107280  -0.000003121370 0.00084043  0.00013501  0.0417389 0.0000
574   -173.0187138388  -0.000003110743 0.00083836  0.00013485  0.0417554 0.0000
575   -173.0187169389  -0.000003100113 0.00083628  0.00013469  0.0417719 0.0000
576   -173.0187200284  -0.000003089482 0.00083421  0.00013453  0.0417883 0.0000
577   -173.0187231072  -0.000003078849 0.00083213  0.00013438  0.0418046 0.0000
578   -173.0187261754  -0.000003068215 0.00083005  0.00013422  0.0418209 0.0000
579   -173.0187292330  -0.000003057580 0.00082902  0.00013406  0.0418371 0.0000
580   -173.0187322800  -0.000003046944 0.00082887  0.00013389  0.0418533 0.0000
581   -173.0187353163  -0.000003036308 0.00082872  0.00013373  0.0418694 0.0000
582   -173.0187383419  -0.000003025672 0.00082855  0.00013357  0.0418854 0.0000
583   -173.0187413570  -0.000003015037 0.00082837  0.00013341  0.0419013 0.0000
584   -173.0187443614  -0.000003004401 0.00082819  0.00013324  0.0419172 0.0000
585   -173.0187473551  -0.000002993766 0.00082799  0.00013308  0.0419331 0.0000
586   -173.0187503383  -0.000002983133 0.00082779  0.00013291  0.0419489 0.0000
587   -173.0187533108  -0.000002972501 0.00082757  0.00013275  0.0419646 0.0000
588   -173.0187562726  -0.000002961870 0.00082735  0.00013258  0.0419802 0.0000
589   -173.0187592239  -0.000002951241 0.00082712  0.00013241  0.0419958 0.0000
590   -173.0187621645  -0.000002940615 0.00082688  0.00013224  0.0420113 0.0000
591   -173.0187650945  -0.000002929991 0.00082663  0.00013208  0.0420268 0.0000
592   -173.0187680139  -0.000002919369 0.00082638  0.00013191  0.0420422 0.0000
593   -173.0187709226  -0.000002908751 0.00082611  0.00013174  0.0420576 0.0000
594   -173.0187738207  -0.000002898135 0.00082583  0.00013157  0.0420728 0.0000
595   -173.0187767083  -0.000002887524 0.00082555  0.00013139  0.0420881 0.0000
596   -173.0187795852  -0.000002876915 0.00082526  0.00013122  0.0421032 0.0000
597   -173.0187824515  -0.000002866312 0.00082495  0.00013105  0.0421183 0.0000
598   -173.0187853072  -0.000002855712 0.00082464  0.00013087  0.0421333 0.0000
599   -173.0187881523  -0.000002845117 0.00082432  0.00013070  0.0421483 0.0000
600   -173.0187909869  -0.000002834527 0.00082400  0.00013053  0.0421632 0.0000
601   -173.0187938108  -0.000002823942 0.00082366  0.00013035  0.0421781 0.0000
602   -173.0187966242  -0.000002813363 0.00082331  0.00013017  0.0421929 0.0000
603   -173.0187994269  -0.000002802789 0.00082296  0.00013000  0.0422076 0.0000
604   -173.0188022192  -0.000002792221 0.00082260  0.00012982  0.0422223 0.0000
605   -173.0188050008  -0.000002781659 0.00082222  0.00012964  0.0422369 0.0000
606   -173.0188077719  -0.000002771104 0.00082184  0.00012946  0.0422514 0.0000
607   -173.0188105325  -0.000002760555 0.00082146  0.00012928  0.0422659 0.0000
608   -173.0188132825  -0.000002750014 0.00082106  0.00012910  0.0422804 0.0000
609   -173.0188160220  -0.000002739479 0.00082065  0.00012892  0.0422947 0.0000
610   -173.0188187509  -0.000002728952 0.00082024  0.00012874  0.0423090 0.0000
611   -173.0188214694  -0.000002718433 0.00081981  0.00012856  0.0423233 0.0000
612   -173.0188241773  -0.000002707922 0.00081938  0.00012837  0.0423375 0.0000
613   -173.0188268747  -0.000002697419 0.00081894  0.00012819  0.0423516 0.0000
614   -173.0188295616  -0.000002686925 0.00081849  0.00012801  0.0423657 0.0000
615   -173.0188322381  -0.000002676439 0.00081804  0.00012782  0.0423797 0.0000
616   -173.0188349040  -0.000002665962 0.00081757  0.00012764  0.0423936 0.0000
617   -173.0188375595  -0.000002655495 0.00081710  0.00012745  0.0424075 0.0000
618   -173.0188402046  -0.000002645037 0.00081662  0.00012726  0.0424214 0.0000
619   -173.0188428392  -0.000002634589 0.00081613  0.00012708  0.0424351 0.0000
620   -173.0188454633  -0.000002624150 0.00081563  0.00012689  0.0424488 0.0000
621   -173.0188480770  -0.000002613722 0.00081512  0.00012670  0.0424625 0.0000
622   -173.0188506803  -0.000002603305 0.00081461  0.00012651  0.0424761 0.0000
623   -173.0188532732  -0.000002592898 0.00081408  0.00012632  0.0424896 0.0000
624   -173.0188558557  -0.000002582502 0.00081355  0.00012613  0.0425031 0.0000
625   -173.0188584278  -0.000002572117 0.00081301  0.00012594  0.0425165 0.0000
626   -173.0188609896  -0.000002561744 0.00081246  0.00012575  0.0425299 0.0000
627   -173.0188635410  -0.000002551382 0.00081191  0.00012556  0.0425432 0.0000
628   -173.0188660820  -0.000002541032 0.00081134  0.00012537  0.0425564 0.0000
629   -173.0188686127  -0.000002530694 0.00081077  0.00012517  0.0425696 0.0000
630   -173.0188711331  -0.000002520369 0.00081019  0.00012498  0.0425828 0.0000
631   -173.0188736431  -0.000002510056 0.00080960  0.00012478  0.0425958 0.0000
632   -173.0188761429  -0.000002499756 0.00080901  0.00012459  0.0426088 0.0000
633   -173.0188786323  -0.000002489469 0.00080840  0.00012439  0.0426218 0.0000
634   -173.0188811115  -0.000002479195 0.00080779  0.00012420  0.0426347 0.0000
635   -173.0188835805  -0.000002468935 0.00080717  0.00012400  0.0426475 0.0000
636   -173.0188860392  -0.000002458688 0.00080654  0.00012380  0.0426603 0.0000
637   -173.0188884876  -0.000002448456 0.00080591  0.00012361  0.0426731 0.0000
638   -173.0188909259  -0.000002438237 0.00080527  0.00012341  0.0426857 0.0000
639   -173.0188933539  -0.000002428033 0.00080462  0.00012321  0.0426983 0.0000
640   -173.0188957717  -0.000002417843 0.00080396  0.00012301  0.0427109 0.0000
641   -173.0188981794  -0.000002407668 0.00080329  0.00012281  0.0427234 0.0000
642   -173.0189005769  -0.000002397509 0.00080262  0.00012261  0.0427359 0.0000
643   -173.0189029643  -0.000002387364 0.00080194  0.00012241  0.0427482 0.0000
644   -173.0189053415  -0.000002377234 0.00080125  0.00012221  0.0427606 0.0000
645   -173.0189077086  -0.000002367121 0.00080055  0.00012201  0.0427728 0.0000
646   -173.0189100657  -0.000002357023 0.00079985  0.00012181  0.0427851 0.0000
647   -173.0189124126  -0.000002346941 0.00079913  0.00012160  0.0427972 0.0000
648   -173.0189147495  -0.000002336875 0.00079842  0.00012140  0.0428093 0.0000
649   -173.0189170763  -0.000002326827 0.00079769  0.00012120  0.0428214 0.0000
650   -173.0189193931  -0.000002316794 0.00079696  0.00012099  0.0428334 0.0000
651   -173.0189216999  -0.000002306778 0.00079621  0.00012079  0.0428453 0.0000
652   -173.0189239966  -0.000002296779 0.00079547  0.00012058  0.0428572 0.0000
653   -173.0189262834  -0.000002286798 0.00079471  0.00012038  0.0428691 0.0000
654   -173.0189285603  -0.000002276834 0.00079395  0.00012017  0.0428808 0.0000
655   -173.0189308272  -0.000002266887 0.00079318  0.00011997  0.0428926 0.0000
656   -173.0189330841  -0.000002256959 0.00079240  0.00011976  0.0429042 0.0000
657   -173.0189353312  -0.000002247048 0.00079162  0.00011955  0.0429159 0.0000
658   -173.0189375683  -0.000002237156 0.00079082  0.00011934  0.0429274 0.0000
659   -173.0189397956  -0.000002227281 0.00079003  0.00011913  0.0429389 0.0000
660   -173.0189420130  -0.000002217426 0.00078922  0.00011893  0.0429504 0.0000
661   -173.0189442206  -0.000002207589 0.00078841  0.00011872  0.0429618 0.0000
662   -173.0189464184  -0.000002197771 0.00078759  0.00011851  0.0429731 0.0000
663   -173.0189486064  -0.000002187972 0.00078676  0.00011830  0.0429844 0.0000
664   -173.0189507846  -0.000002178193 0.00078593  0.00011809  0.0429956 0.0000
665   -173.0189529530  -0.000002168432 0.00078509  0.00011788  0.0430068 0.0000
666   -173.0189551117  -0.000002158691 0.00078424  0.00011766  0.0430180 0.0000
667   -173.0189572607  -0.000002148971 0.00078339  0.00011745  0.0430290 0.0000
668   -173.0189593999  -0.000002139270 0.00078253  0.00011724  0.0430401 0.0000
669   -173.0189615295  -0.000002129589 0.00078166  0.00011703  0.0430510 0.0000
670   -173.0189636494  -0.000002119929 0.00078079  0.00011681  0.0430620 0.0000
671   -173.0189657597  -0.000002110288 0.00077991  0.00011660  0.0430728 0.0000
672   -173.0189678604  -0.000002100669 0.00077902  0.00011639  0.0430836 0.0000
673   -173.0189699515  -0.000002091070 0.00077812  0.00011617  0.0430944 0.0000
674   -173.0189720330  -0.000002081492 0.00077722  0.00011596  0.0431051 0.0000
675   -173.0189741049  -0.000002071936 0.00077632  0.00011574  0.0431158 0.0000
676   -173.0189761673  -0.000002062400 0.00077541  0.00011553  0.0431264 0.0000
677   -173.0189782202  -0.000002052886 0.00077449  0.00011531  0.0431370 0.0000
678   -173.0189802636  -0.000002043394 0.00077356  0.00011510  0.0431475 0.0000
679   -173.0189822975  -0.000002033923 0.00077263  0.00011488  0.0431579 0.0000
680   -173.0189843220  -0.000002024474 0.00077169  0.00011466  0.0431683 0.0000
681   -173.0189863370  -0.000002015047 0.00077075  0.00011445  0.0431787 0.0000
682   -173.0189883427  -0.000002005642 0.00076980  0.00011423  0.0431890 0.0000
683   -173.0189903389  -0.000001996259 0.00076884  0.00011401  0.0431992 0.0000
684   -173.0189923258  -0.000001986899 0.00076788  0.00011379  0.0432094 0.0000
685   -173.0189943034  -0.000001977562 0.00076691  0.00011357  0.0432196 0.0000
686   -173.0189962716  -0.000001968247 0.00076593  0.00011336  0.0432297 0.0000
687   -173.0189982306  -0.000001958955 0.00076495  0.00011314  0.0432397 0.0000
688   -173.0190001803  -0.000001949686 0.00076397  0.00011292  0.0432497 0.0000
689   -173.0190021207  -0.000001940440 0.00076297  0.00011270  0.0432597 0.0000
690   -173.0190040519  -0.000001931217 0.00076197  0.00011248  0.0432696 0.0000
691   -173.0190059739  -0.000001922018 0.00076097  0.00011226  0.0432794 0.0000
692   -173.0190078868  -0.000001912842 0.00075996  0.00011204  0.0432892 0.0000
693   -173.0190097905  -0.000001903690 0.00075894  0.00011182  0.0432990 0.0000
694   -173.0190116850  -0.000001894561 0.00075792  0.00011159  0.0433087 0.0000
695   -173.0190135705  -0.000001885457 0.00075690  0.00011137  0.0433183 0.0000
696   -173.0190154469  -0.000001876376 0.00075586  0.00011115  0.0433279 0.0000
697   -173.0190173142  -0.000001867320 0.00075483  0.00011093  0.0433375 0.0000
698   -173.0190191725  -0.000001858288 0.00075378  0.00011071  0.0433470 0.0000
699   -173.0190210218  -0.000001849280 0.00075273  0.00011048  0.0433565 0.0000
700   -173.0190228621  -0.000001840296 0.00075168  0.00011026  0.0433659 0.0000
701   -173.0190246934  -0.000001831337 0.00075062  0.00011004  0.0433753 0.0000
702   -173.0190265158  -0.000001822403 0.00074955  0.00010981  0.0433846 0.0000
703   -173.0190283293  -0.000001813494 0.00074848  0.00010959  0.0433938 0.0000
704   -173.0190301339  -0.000001804609 0.00074741  0.00010937  0.0434031 0.0000
705   -173.0190319297  -0.000001795750 0.00074632  0.00010914  0.0434122 0.0000
706   -173.0190337166  -0.000001786915 0.00074524  0.00010892  0.0434214 0.0000
707   -173.0190354947  -0.000001778106 0.00074415  0.00010869  0.0434305 0.0000
708   -173.0190372640  -0.000001769322 0.00074305  0.00010847  0.0434395 0.0000
709   -173.0190390246  -0.000001760564 0.00074195  0.00010824  0.0434485 0.0000
710   -173.0190407764  -0.000001751831 0.00074084  0.00010802  0.0434574 0.0000
711   -173.0190425195  -0.000001743124 0.00073973  0.00010779  0.0434663 0.0000
712   -173.0190442540  -0.000001734441 0.00073861  0.00010757  0.0434752 0.0000
713   -173.0190459797  -0.000001725786 0.00073749  0.00010734  0.0434840 0.0000
714   -173.0190476969  -0.000001717156 0.00073637  0.00010711  0.0434927 0.0000
715   -173.0190494054  -0.000001708551 0.00073524  0.00010689  0.0435014 0.0000
716   -173.0190511054  -0.000001699973 0.00073410  0.00010666  0.0435101 0.0000
717   -173.0190527968  -0.000001691422 0.00073296  0.00010643  0.0435187 0.0000
718   -173.0190544797  -0.000001682896 0.00073181  0.00010621  0.0435273 0.0000
719   -173.0190561541  -0.000001674396 0.00073066  0.00010598  0.0435358 0.0000
720   -173.0190578201  -0.000001665923 0.00072951  0.00010575  0.0435443 0.0000
721   -173.0190594775  -0.000001657476 0.00072835  0.00010553  0.0435528 0.0000
722   -173.0190611266  -0.000001649057 0.00072719  0.00010530  0.0435612 0.0000
723   -173.0190627673  -0.000001640663 0.00072602  0.00010507  0.0435695 0.0000
724   -173.0190643995  -0.000001632296 0.00072485  0.00010484  0.0435778 0.0000
725   -173.0190660235  -0.000001623956 0.00072367  0.00010461  0.0435861 0.0000
726   -173.0190676391  -0.000001615643 0.00072249  0.00010439  0.0435943 0.0000
727   -173.0190692465  -0.000001607357 0.00072131  0.00010416  0.0436025 0.0000
728   -173.0190708456  -0.000001599097 0.00072012  0.00010393  0.0436106 0.0000
729   -173.0190724365  -0.000001590865 0.00071892  0.00010370  0.0436187 0.0000
730   -173.0190740191  -0.000001582659 0.00071773  0.00010347  0.0436268 0.0000
731   -173.0190755936  -0.000001574481 0.00071652  0.00010324  0.0436348 0.0000
732   -173.0190771599  -0.000001566330 0.00071532  0.00010301  0.0436427 0.0000
733   -173.0190787181  -0.000001558206 0.00071411  0.00010278  0.0436507 0.0000
734   -173.0190802683  -0.000001550110 0.00071290  0.00010256  0.0436585 0.0000
735   -173.0190818103  -0.000001542041 0.00071168  0.00010233  0.0436664 0.0000
736   -173.0190833443  -0.000001533999 0.00071046  0.00010210  0.0436742 0.0000
737   -173.0190848703  -0.000001525985 0.00070923  0.00010187  0.0436819 0.0000
738   -173.0190863883  -0.000001517998 0.00070800  0.00010164  0.0436896 0.0000
739   -173.0190878983  -0.000001510039 0.00070677  0.00010141  0.0436973 0.0000
740   -173.0190894004  -0.000001502107 0.00070553  0.00010118  0.0437049 0.0000
741   -173.0190908946  -0.000001494203 0.00070429  0.00010095  0.0437125 0.0000
742   -173.0190923809  -0.000001486327 0.00070305  0.00010072  0.0437200 0.0000
743   -173.0190938594  -0.000001478478 0.00070180  0.00010049  0.0437275 0.0000
744   -173.0190953301  -0.000001470658 0.00070055  0.00010026  0.0437350 0.0000
745   -173.0190967930  -0.000001462865 0.00069930  0.00010003  0.0437424 0.0000
746   -173.0190982481  -0.000001455100 0.00069804  0.00009980  0.0437498 0.0000
747   -173.0190996954  -0.000001447363 0.00069678  0.00009957  0.0437571 0.0000
748   -173.0191011351  -0.000001439654 0.00069551  0.00009934  0.0437644 0.0000
749   -173.0191025670  -0.000001431972 0.00069424  0.00009911  0.0437717 0.0000
750   -173.0191039914  -0.000001424319 0.00069297  0.00009887  0.0437789 0.0000
751   -173.0191054081  -0.000001416694 0.00069170  0.00009864  0.0437861 0.0000
752   -173.0191068172  -0.000001409097 0.00069042  0.00009841  0.0437932 0.0000
753   -173.0191082187  -0.000001401528 0.00068914  0.00009818  0.0438003 0.0000
754   -173.0191096127  -0.000001393987 0.00068786  0.00009795  0.0438074 0.0000
755   -173.0191109991  -0.000001386474 0.00068657  0.00009772  0.0438144 0.0000
756   -173.0191123781  -0.000001378989 0.00068528  0.00009749  0.0438214 0.0000
757   -173.0191137497  -0.000001371532 0.00068399  0.00009726  0.0438283 0.0000
758   -173.0191151138  -0.000001364104 0.00068269  0.00009703  0.0438352 0.0000
759   -173.0191164705  -0.000001356704 0.00068139  0.00009680  0.0438421 0.0000
760   -173.0191178198  -0.000001349332 0.00068009  0.00009657  0.0438489 0.0000
761   -173.0191191618  -0.000001341988 0.00067879  0.00009634  0.0438557 0.0000
762   -173.0191204965  -0.000001334673 0.00067748  0.00009611  0.0438624 0.0000
763   -173.0191218238  -0.000001327386 0.00067617  0.00009588  0.0438692 0.0000
764   -173.0191231440  -0.000001320127 0.00067486  0.00009565  0.0438758 0.0000
765   -173.0191244569  -0.000001312896 0.00067354  0.00009542  0.0438825 0.0000
766   -173.0191257626  -0.000001305694 0.00067222  0.00009518  0.0438891 0.0000
[...]
    8          0.722012757300        -0.127291673155
    9         10.672046293000        -0.005718823091
   10          7.199218591500         0.015098362705
   11          1.535969752800        -0.021167741909
   12          0.722012757300        -0.009154760198
   13          2.850866185800         0.000256875742
   14          2.850866185800        -0.216236408830
   15          2.850866185800        -0.015551625804
   16          0.237694187300        -0.001515922430
   17          0.237694187300         1.276094112496
 P 17
    1         10.672046293000         0.014432503751
    2          7.199218591500        -0.038103500126
    3          1.535969752800         0.053420696817
    4          0.722012757300         0.023103724104
    5         10.672046293000         0.001897987891
    6          7.199218591500        -0.005010910311
    7          1.535969752800         0.007025242290
    8          0.722012757300         0.003038321649
    9         10.672046293000        -0.026152039063
   10          7.199218591500         0.069044445850
   11          1.535969752800        -0.096799569501
   12          0.722012757300        -0.041864495980
   13          2.850866185800         0.042788346785
   14          2.850866185800         0.005593908444
   15          2.850866185800        -0.077073316960
   16          0.237694187300        -0.452925601614
   17          0.237694187300        -0.059454049142
 P 17
    1         10.672046293000        -0.213900604681
    2          7.199218591500         0.564722646731
    3          1.535969752800        -0.791735068880
    4          0.722012757300        -0.342414638607
    5         10.672046293000         0.012356111506
    6          7.199218591500        -0.032621581428
    7          1.535969752800         0.045735105841
    8          0.722012757300         0.019779810638
    9         10.672046293000        -0.175337748616
   10          7.199218591500         0.462912190538
   11          1.535969752800        -0.648997905755
   12          0.722012757300        -0.280682758779
   13          2.850866185800         0.956523706628
   14          2.850866185800        -0.055256755831
   15          2.850866185800         0.784112885369
   16          0.237694187300         0.485887925943
   17          0.237694187300        -0.028043279375
 S 10
    1        175.196321020000        -0.002815847676
    2         19.820147783000         0.512965023036
    3         14.960110102000        -1.313088706954
    4          6.706578557100         2.401852719338
    5          1.739196752400        -3.190753742494
    6          0.945047305900        -1.357286978063
    7          8.463683290900        -0.228763333995
    8          1.531783854500         3.545463464411
    9          0.234053915000         0.655300111476
   10          0.090268814600        -0.296963036019
 end
  // -----------------------------------------------
  // The basis set
  // -----------------------------------------------
  BAS[ATNO] = new BFNGauss[NSH];
  // Basis function   1 L = s
  InitBFNGauss(BAS[ATNO][  0]);
  BAS[ATNO][  0].l  = 0;
  BAS[ATNO][  0].ng = 10;
  BAS[ATNO][  0].a[  0] =       175.196321020000;     BAS[ATNO][  0].d[  0] =         0.001221957320;
  BAS[ATNO][  0].a[  1] =        19.820147783000;     BAS[ATNO][  0].d[  1] =        -0.222604855395;
  BAS[ATNO][  0].a[  2] =        14.960110102000;     BAS[ATNO][  0].d[  2] =         0.569824273791;
  BAS[ATNO][  0].a[  3] =         6.706578557100;     BAS[ATNO][  0].d[  3] =        -1.042301235477;
  BAS[ATNO][  0].a[  4] =         1.739196752400;     BAS[ATNO][  0].d[  4] =         1.384650499644;
  BAS[ATNO][  0].a[  5] =         0.945047305900;     BAS[ATNO][  0].d[  5] =         0.589004430930;
  BAS[ATNO][  0].a[  6] =         8.463683290900;     BAS[ATNO][  0].d[  6] =         0.031898334050;
  BAS[ATNO][  0].a[  7] =         1.531783854500;     BAS[ATNO][  0].d[  7] =        -0.494372834902;
  BAS[ATNO][  0].a[  8] =         0.234053915000;     BAS[ATNO][  0].d[  8] =        -0.090298838727;
  BAS[ATNO][  0].a[  9] =         0.090268814600;     BAS[ATNO][  0].d[  9] =         0.037634269550;

  // Basis function   2 L = p
  InitBFNGauss(BAS[ATNO][  1]);
  BAS[ATNO][  1].l  = 1;
  BAS[ATNO][  1].ng = 17;
  BAS[ATNO][  1].a[  0] =        10.672046293000;     BAS[ATNO][  1].d[  0] =        -0.000216877518;
  BAS[ATNO][  1].a[  1] =         7.199218591500;     BAS[ATNO][  1].d[  1] =         0.000572582047;
  BAS[ATNO][  1].a[  2] =         1.535969752800;     BAS[ATNO][  1].d[  2] =        -0.000802753863;
  BAS[ATNO][  1].a[  3] =         0.722012757300;     BAS[ATNO][  1].d[  3] =        -0.000347180117;
  BAS[ATNO][  1].a[  4] =        10.672046293000;     BAS[ATNO][  1].d[  4] =         0.182566151455;
  BAS[ATNO][  1].a[  5] =         7.199218591500;     BAS[ATNO][  1].d[  5] =        -0.481996020569;
  BAS[ATNO][  1].a[  6] =         1.535969752800;     BAS[ATNO][  1].d[  6] =         0.675753229933;
  BAS[ATNO][  1].a[  7] =         0.722012757300;     BAS[ATNO][  1].d[  7] =         0.292254072239;
  BAS[ATNO][  1].a[  8] =        10.672046293000;     BAS[ATNO][  1].d[  8] =         0.013130075954;
  BAS[ATNO][  1].a[  9] =         7.199218591500;     BAS[ATNO][  1].d[  9] =        -0.034664938211;
  BAS[ATNO][  1].a[ 10] =         1.535969752800;     BAS[ATNO][  1].d[ 10] =         0.048599870044;
  BAS[ATNO][  1].a[ 11] =         0.722012757300;     BAS[ATNO][  1].d[ 11] =         0.021018782155;
  BAS[ATNO][  1].a[ 12] =         2.850866185800;     BAS[ATNO][  1].d[ 12] =        -0.000352537381;
  BAS[ATNO][  1].a[ 13] =         2.850866185800;     BAS[ATNO][  1].d[ 13] =         0.296763783770;
  BAS[ATNO][  1].a[ 14] =         2.850866185800;     BAS[ATNO][  1].d[ 14] =         0.021343118591;
  BAS[ATNO][  1].a[ 15] =         0.237694187300;     BAS[ATNO][  1].d[ 15] =         0.000105481233;
  BAS[ATNO][  1].a[ 16] =         0.237694187300;     BAS[ATNO][  1].d[ 16] =        -0.088793448984;

  // Basis function   3 L = s
  InitBFNGauss(BAS[ATNO][  2]);
  BAS[ATNO][  2].l  = 0;
  BAS[ATNO][  2].ng = 10;
  BAS[ATNO][  2].a[  0] =       175.196321020000;     BAS[ATNO][  2].d[  0] =        -0.000604547274;
  BAS[ATNO][  2].a[  1] =        19.820147783000;     BAS[ATNO][  2].d[  1] =         0.110130817479;
  BAS[ATNO][  2].a[  2] =        14.960110102000;     BAS[ATNO][  2].d[  2] =        -0.281913047137;
  BAS[ATNO][  2].a[  3] =         6.706578557100;     BAS[ATNO][  2].d[  3] =         0.515664794996;
  BAS[ATNO][  2].a[  4] =         1.739196752400;     BAS[ATNO][  2].d[  4] =        -0.685037580056;
  BAS[ATNO][  2].a[  5] =         0.945047305900;     BAS[ATNO][  2].d[  5] =        -0.291402177019;
  BAS[ATNO][  2].a[  6] =         8.463683290900;     BAS[ATNO][  2].d[  6] =         0.013898212309;
  BAS[ATNO][  2].a[  7] =         1.531783854500;     BAS[ATNO][  2].d[  7] =        -0.215399920533;
  BAS[ATNO][  2].a[  8] =         0.234053915000;     BAS[ATNO][  2].d[  8] =         1.677934467992;
  BAS[ATNO][  2].a[  9] =         0.090268814600;     BAS[ATNO][  2].d[  9] =        -0.395574764125;

  // Basis function   4 L = s
  InitBFNGauss(BAS[ATNO][  3]);
  BAS[ATNO][  3].l  = 0;
  BAS[ATNO][  3].ng = 10;
  BAS[ATNO][  3].a[  0] =       175.196321020000;     BAS[ATNO][  3].d[  0] =         0.000236190530;
  BAS[ATNO][  3].a[  1] =        19.820147783000;     BAS[ATNO][  3].d[  1] =        -0.043027000953;
  BAS[ATNO][  3].a[  2] =        14.960110102000;     BAS[ATNO][  3].d[  2] =         0.110140587581;
  BAS[ATNO][  3].a[  3] =         6.706578557100;     BAS[ATNO][  3].d[  3] =        -0.201465040701;
  BAS[ATNO][  3].a[  4] =         1.739196752400;     BAS[ATNO][  3].d[  4] =         0.267637281597;
  BAS[ATNO][  3].a[  5] =         0.945047305900;     BAS[ATNO][  3].d[  5] =         0.113847895034;
  BAS[ATNO][  3].a[  6] =         8.463683290900;     BAS[ATNO][  3].d[  6] =        -0.011050108803;
  BAS[ATNO][  3].a[  7] =         1.531783854500;     BAS[ATNO][  3].d[  7] =         0.171258900434;
  BAS[ATNO][  3].a[  8] =         0.234053915000;     BAS[ATNO][  3].d[  8] =        -1.866111679944;
  BAS[ATNO][  3].a[  9] =         0.090268814600;     BAS[ATNO][  3].d[  9] =         2.048107973116;

  // Basis function   5 L = p
  InitBFNGauss(BAS[ATNO][  4]);
  BAS[ATNO][  4].l  = 1;
  BAS[ATNO][  4].ng = 17;
  BAS[ATNO][  4].a[  0] =        10.672046293000;     BAS[ATNO][  4].d[  0] =         0.000094461309;
  BAS[ATNO][  4].a[  1] =         7.199218591500;     BAS[ATNO][  4].d[  1] =        -0.000249388918;
  BAS[ATNO][  4].a[  2] =         1.535969752800;     BAS[ATNO][  4].d[  2] =         0.000349640577;
  BAS[ATNO][  4].a[  3] =         0.722012757300;     BAS[ATNO][  4].d[  3] =         0.000151214789;
  BAS[ATNO][  4].a[  4] =        10.672046293000;     BAS[ATNO][  4].d[  4] =        -0.079516944630;
  BAS[ATNO][  4].a[  5] =         7.199218591500;     BAS[ATNO][  4].d[  5] =         0.209934046229;
  BAS[ATNO][  4].a[  6] =         1.535969752800;     BAS[ATNO][  4].d[  6] =        -0.294325271908;
  BAS[ATNO][  4].a[  7] =         0.722012757300;     BAS[ATNO][  4].d[  7] =        -0.127291673155;
  BAS[ATNO][  4].a[  8] =        10.672046293000;     BAS[ATNO][  4].d[  8] =        -0.005718823091;
  BAS[ATNO][  4].a[  9] =         7.199218591500;     BAS[ATNO][  4].d[  9] =         0.015098362705;
  BAS[ATNO][  4].a[ 10] =         1.535969752800;     BAS[ATNO][  4].d[ 10] =        -0.021167741909;
  BAS[ATNO][  4].a[ 11] =         0.722012757300;     BAS[ATNO][  4].d[ 11] =        -0.009154760198;
  BAS[ATNO][  4].a[ 12] =         2.850866185800;     BAS[ATNO][  4].d[ 12] =         0.000256875742;
  BAS[ATNO][  4].a[ 13] =         2.850866185800;     BAS[ATNO][  4].d[ 13] =        -0.216236408830;
  BAS[ATNO][  4].a[ 14] =         2.850866185800;     BAS[ATNO][  4].d[ 14] =        -0.015551625804;
  BAS[ATNO][  4].a[ 15] =         0.237694187300;     BAS[ATNO][  4].d[ 15] =        -0.001515922430;
  BAS[ATNO][  4].a[ 16] =         0.237694187300;     BAS[ATNO][  4].d[ 16] =         1.276094112496;

  // Basis function   6 L = p
  InitBFNGauss(BAS[ATNO][  5]);
  BAS[ATNO][  5].l  = 1;
  BAS[ATNO][  5].ng = 17;
  BAS[ATNO][  5].a[  0] =        10.672046293000;     BAS[ATNO][  5].d[  0] =        -0.014432503751;
  BAS[ATNO][  5].a[  1] =         7.199218591500;     BAS[ATNO][  5].d[  1] =         0.038103500126;
  BAS[ATNO][  5].a[  2] =         1.535969752800;     BAS[ATNO][  5].d[  2] =        -0.053420696817;
  BAS[ATNO][  5].a[  3] =         0.722012757300;     BAS[ATNO][  5].d[  3] =        -0.023103724104;
  BAS[ATNO][  5].a[  4] =        10.672046293000;     BAS[ATNO][  5].d[  4] =        -0.001897987891;
  BAS[ATNO][  5].a[  5] =         7.199218591500;     BAS[ATNO][  5].d[  5] =         0.005010910311;
  BAS[ATNO][  5].a[  6] =         1.535969752800;     BAS[ATNO][  5].d[  6] =        -0.007025242290;
  BAS[ATNO][  5].a[  7] =         0.722012757300;     BAS[ATNO][  5].d[  7] =        -0.003038321649;
  BAS[ATNO][  5].a[  8] =        10.672046293000;     BAS[ATNO][  5].d[  8] =         0.026152039063;
  BAS[ATNO][  5].a[  9] =         7.199218591500;     BAS[ATNO][  5].d[  9] =        -0.069044445850;
  BAS[ATNO][  5].a[ 10] =         1.535969752800;     BAS[ATNO][  5].d[ 10] =         0.096799569501;
  BAS[ATNO][  5].a[ 11] =         0.722012757300;     BAS[ATNO][  5].d[ 11] =         0.041864495980;
  BAS[ATNO][  5].a[ 12] =         2.850866185800;     BAS[ATNO][  5].d[ 12] =        -0.042788346785;
  BAS[ATNO][  5].a[ 13] =         2.850866185800;     BAS[ATNO][  5].d[ 13] =        -0.005593908444;
  BAS[ATNO][  5].a[ 14] =         2.850866185800;     BAS[ATNO][  5].d[ 14] =         0.077073316960;
  BAS[ATNO][  5].a[ 15] =         0.237694187300;     BAS[ATNO][  5].d[ 15] =         0.452925601614;
  BAS[ATNO][  5].a[ 16] =         0.237694187300;     BAS[ATNO][  5].d[ 16] =         0.059454049142;

  // Basis function   7 L = p
  InitBFNGauss(BAS[ATNO][  6]);
  BAS[ATNO][  6].l  = 1;
  BAS[ATNO][  6].ng = 17;
  BAS[ATNO][  6].a[  0] =        10.672046293000;     BAS[ATNO][  6].d[  0] =        -0.213900604681;
  BAS[ATNO][  6].a[  1] =         7.199218591500;     BAS[ATNO][  6].d[  1] =         0.564722646731;
  BAS[ATNO][  6].a[  2] =         1.535969752800;     BAS[ATNO][  6].d[  2] =        -0.791735068880;
  BAS[ATNO][  6].a[  3] =         0.722012757300;     BAS[ATNO][  6].d[  3] =        -0.342414638607;
  BAS[ATNO][  6].a[  4] =        10.672046293000;     BAS[ATNO][  6].d[  4] =         0.012356111506;
  BAS[ATNO][  6].a[  5] =         7.199218591500;     BAS[ATNO][  6].d[  5] =        -0.032621581428;
  BAS[ATNO][  6].a[  6] =         1.535969752800;     BAS[ATNO][  6].d[  6] =         0.045735105841;
  BAS[ATNO][  6].a[  7] =         0.722012757300;     BAS[ATNO][  6].d[  7] =         0.019779810638;
  BAS[ATNO][  6].a[  8] =        10.672046293000;     BAS[ATNO][  6].d[  8] =        -0.175337748616;
  BAS[ATNO][  6].a[  9] =         7.199218591500;     BAS[ATNO][  6].d[  9] =         0.462912190538;
  BAS[ATNO][  6].a[ 10] =         1.535969752800;     BAS[ATNO][  6].d[ 10] =        -0.648997905755;
  BAS[ATNO][  6].a[ 11] =         0.722012757300;     BAS[ATNO][  6].d[ 11] =        -0.280682758779;
  BAS[ATNO][  6].a[ 12] =         2.850866185800;     BAS[ATNO][  6].d[ 12] =         0.956523706628;
  BAS[ATNO][  6].a[ 13] =         2.850866185800;     BAS[ATNO][  6].d[ 13] =        -0.055256755831;
  BAS[ATNO][  6].a[ 14] =         2.850866185800;     BAS[ATNO][  6].d[ 14] =         0.784112885369;
  BAS[ATNO][  6].a[ 15] =         0.237694187300;     BAS[ATNO][  6].d[ 15] =         0.485887925943;
  BAS[ATNO][  6].a[ 16] =         0.237694187300;     BAS[ATNO][  6].d[ 16] =        -0.028043279375;

  // Basis function   8 L = s
  InitBFNGauss(BAS[ATNO][  7]);
  BAS[ATNO][  7].l  = 0;
  BAS[ATNO][  7].ng = 10;
  BAS[ATNO][  7].a[  0] =       175.196321020000;     BAS[ATNO][  7].d[  0] =        -0.002815847676;
  BAS[ATNO][  7].a[  1] =        19.820147783000;     BAS[ATNO][  7].d[  1] =         0.512965023036;
  BAS[ATNO][  7].a[  2] =        14.960110102000;     BAS[ATNO][  7].d[  2] =        -1.313088706954;
  BAS[ATNO][  7].a[  3] =         6.706578557100;     BAS[ATNO][  7].d[  3] =         2.401852719338;
  BAS[ATNO][  7].a[  4] =         1.739196752400;     BAS[ATNO][  7].d[  4] =        -3.190753742494;
  BAS[ATNO][  7].a[  5] =         0.945047305900;     BAS[ATNO][  7].d[  5] =        -1.357286978063;
  BAS[ATNO][  7].a[  6] =         8.463683290900;     BAS[ATNO][  7].d[  6] =        -0.228763333995;
  BAS[ATNO][  7].a[  7] =         1.531783854500;     BAS[ATNO][  7].d[  7] =         3.545463464411;
  BAS[ATNO][  7].a[  8] =         0.234053915000;     BAS[ATNO][  7].d[  8] =         0.655300111476;
  BAS[ATNO][  7].a[  9] =         0.090268814600;     BAS[ATNO][  7].d[  9] =        -0.296963036019;

-------------------------------------------
RADIAL EXPECTATION VALUES <R**-3> TO <R**3>
-------------------------------------------
   0 :     0.000000     1.770608     1.277894     0.845286     0.771272     0.764588
   1 :     2.004208     1.446691     1.150896     0.945402     0.973128     1.107249
   2 :     2.004850     1.446965     1.151000     0.945320     0.972975     1.107093
   3 :     1.993282     1.442558     1.149514     0.946258     0.974590     1.108757
   4 :     0.000000     0.461507     0.606228     1.891714     3.950391     9.099918
   5 :     0.000000     0.111737     0.291142     3.847840    15.813953    68.461014
   6 :     0.317517     0.327983     0.507670     2.247220     5.524041    14.780969
   7 :     0.313503     0.326290     0.506875     2.248763     5.527975    14.776552
   8 :     0.317233     0.327850     0.507614     2.247281     5.524256    14.782037
   9 :     0.045865     0.076136     0.243202     4.537591    21.835725   110.199202
  10 :     0.045949     0.076192     0.243239     4.537504    21.835680   110.201628
  11 :     0.048238     0.077299     0.243846     4.535742    21.828481   110.181728
  12 :    18.138187     5.306473     2.005922     0.792626     1.294965     4.077563
  13 :    18.124740     5.301432     2.004210     0.793535     1.294032     4.056047
  14 :    18.123669     5.301026     2.004057     0.793742     1.294794     4.058855
  15 :     0.000000    15.878733     3.273882     0.448890     0.452267     1.199553
Making the total density                ... o.k.
o.k.
Initializing the integrals              ... done
Making exponents                        ... done
Making rho(0)                           ... done (         0.006833026)
Integral calculation                    ... Two index integrals                     ... done
Solving the equation system             ... done
atomic density will be written to file 83_Bi_atom83.adf

-------
TIMINGS
-------

Total SCF time: 0 days 0 hours 0 min 9 sec 

Total time                  ....       9.691 sec
Sum of individual times     ....       7.406 sec  ( 76.4%)

Fock matrix formation       ....       4.914 sec  ( 50.7%)
Diagonalization             ....       1.177 sec  ( 12.1%)
Density matrix formation    ....       0.007 sec  (  0.1%)
Population analysis         ....       0.000 sec  (  0.0%)
Initial guess               ....       0.000 sec  (  0.0%)
Orbital Transformation      ....       0.000 sec  (  0.0%)
Orbital Orthonormalization  ....       0.000 sec  (  0.0%)
DIIS solution               ....       1.308 sec  ( 13.5%)

-------------------------   --------------------
FINAL SINGLE POINT ENERGY      -173.019179526048
-------------------------   --------------------


                            ***************************************
                            *     ORCA property calculations      *
                            ***************************************

                                    ---------------------
                                    Active property flags
                                    ---------------------
   (+) Dipole Moment


------------------------------------------------------------------------------
                       ORCA ELECTRIC PROPERTIES CALCULATION
------------------------------------------------------------------------------

Dipole Moment Calculation                       ... on
Quadrupole Moment Calculation                   ... off
Polarizability Calculation                      ... off
GBWName                                         ... 83_Bi_atom83.gbw
Electron density file                           ... 83_Bi_atom83.scfp
The origin for moment calculation is the CENTER OF MASS  = ( 0.000000,  0.000000  0.000000)

-------------
DIPOLE MOMENT
-------------
                                X             Y             Z
Electronic contribution:      0.00000      -0.00000       0.00000
Nuclear contribution   :      0.00000       0.00000       0.00000
                        -----------------------------------------
Total Dipole Moment    :      0.00000      -0.00000       0.00000
                        -----------------------------------------
Magnitude (a.u.)       :      0.00000
Magnitude (Debye)      :      0.00000



--------------------
Rotational spectrum 
--------------------
 
Rotational constants in cm-1:     0.000000     0.000000     0.000000 
Rotational constants in MHz :     0.000000     0.000000     0.000000 

 Dipole components along the rotational axes: 
x,y,z [a.u.] :     0.000000    -0.000000     0.000000 
x,y,z [Debye]:     0.000000    -0.000000     0.000000 

 

Timings for individual modules:

Sum of individual times         ...        9.990 sec (=   0.166 min)
GTO integral calculation        ...        0.267 sec (=   0.004 min)   2.7 %
SCF iterations                  ...        9.723 sec (=   0.162 min)  97.3 %
                             ****ORCA TERMINATED NORMALLY****
TOTAL RUN TIME: 0 days 0 hours 0 minutes 10 seconds 266 msec
