
                                 *****************
                                 * O   R   C   A *
                                 *****************

           --- An Ab Initio, DFT and Semiempirical electronic structure package ---

                  #######################################################
                  #                        -***-                        #
                  #          Department of theory and spectroscopy      #
                  #               Directorship: Frank Neese             #
                  #        Max Planck Institute fuer Kohlenforschung    #
                  #                Kaiser Wilhelm Platz 1               #
                  #                 D-45470 Muelheim/Ruhr               #
                  #                      Germany                        #
                  #                                                     #
                  #                  All rights reserved                #
                  #                        -***-                        #
                  #######################################################


                         Program Version 4.2.0 -  RELEASE  -


 With contributions from (in alphabetic order):
   Daniel Aravena         : Magnetic Suceptibility
   Michael Atanasov       : Ab Initio Ligand Field Theory (pilot matlab implementation)
   Alexander A. Auer      : GIAO ZORA, VPT2
   Ute Becker             : Parallelization
   Giovanni Bistoni       : ED, misc. LED, open-shell LED, HFLED
   Martin Brehm           : Molecular dynamics
   Dmytro Bykov           : SCF Hessian
   Vijay G. Chilkuri      : MRCI spin determinant printing, contributions to CSF-ICE
   Dipayan Datta          : RHF DLPNO-CCSD density
   Achintya Kumar Dutta   : EOM-CC, STEOM-CC
   Dmitry Ganyushin       : Spin-Orbit,Spin-Spin,Magnetic field MRCI
   Miquel Garcia          : C-PCM Hessian, Gaussian charge scheme
   Yang Guo               : DLPNO-NEVPT2, CIM, IAO-localization
   Andreas Hansen         : Spin unrestricted coupled pair/coupled cluster methods
   Benjamin Helmich-Paris : CASSCF linear response (MC-RPA)
   Lee Huntington         : MR-EOM, pCC
   Robert Izsak           : Overlap fitted RIJCOSX, COSX-SCS-MP3, EOM
   Christian Kollmar      : KDIIS, OOCD, Brueckner-CCSD(T), CCSD density
   Simone Kossmann        : Meta GGA functionals, TD-DFT gradient, OOMP2, MP2 Hessian
   Martin Krupicka        : AUTO-CI
   Lucas Lang             : DCDCAS
   Dagmar Lenk            : GEPOL surface, SMD
   Dimitrios Liakos       : Extrapolation schemes; Compound Job, initial MDCI parallelization
   Dimitrios Manganas     : Further ROCIS development; embedding schemes
   Dimitrios Pantazis     : SARC Basis sets
   Taras Petrenko         : DFT Hessian,TD-DFT gradient, ASA, ECA, R-Raman, ABS, FL, XAS/XES, NRVS
   Peter Pinski           : DLPNO-MP2, DLPNO-MP2 Gradient
   Christoph Reimann      : Effective Core Potentials
   Marius Retegan         : Local ZFS, SOC
   Christoph Riplinger    : Optimizer, TS searches, QM/MM, DLPNO-CCSD(T), (RO)-DLPNO pert. Triples
   Tobias Risthaus        : Range-separated hybrids, TD-DFT gradient, RPA, STAB
   Michael Roemelt        : Original ROCIS implementation
   Masaaki Saitow         : Open-shell DLPNO-CCSD energy and density
   Barbara Sandhoefer     : DKH picture change effects
   Avijit Sen             : IP-ROCIS
   Kantharuban Sivalingam : CASSCF convergence, NEVPT2, FIC-MRCI
   Bernardo de Souza      : ESD, SOC TD-DFT
   Georgi Stoychev        : AutoAux, RI-MP2 NMR
   Willem Van den Heuvel  : Paramagnetic NMR
   Boris Wezisla          : Elementary symmetry handling
   Frank Wennmohs         : Technical directorship


 We gratefully acknowledge several colleagues who have allowed us to
 interface, adapt or use parts of their codes:
   Stefan Grimme, W. Hujo, H. Kruse,             : VdW corrections, initial TS optimization,
                  C. Bannwarth                     DFT functionals, gCP, sTDA/sTD-DF
   Ed Valeev, F. Pavosevic, A. Kumar             : LibInt (2-el integral package), F12 methods
   Garnet Chan, S. Sharma, J. Yang, R. Olivares  : DMRG
   Ulf Ekstrom                                   : XCFun DFT Library
   Mihaly Kallay                                 : mrcc  (arbitrary order and MRCC methods)
   Andreas Klamt, Michael Diedenhofen            : otool_cosmo (COSMO solvation model)
   Jiri Pittner, Ondrej Demel                    : Mk-CCSD
   Frank Weinhold                                : gennbo (NPA and NBO analysis)
   Christopher J. Cramer and Donald G. Truhlar   : smd solvation model
   Lars Goerigk                                  : TD-DFT with DH, B97 family of functionals
   V. Asgeirsson, H. Jonsson                     : NEB implementation
   FAccTs GmbH                                   : IRC, NEB, NEB-TS, Multilevel, MM, QM/MM, CI optimization
   S Lehtola, MJT Oliveira, MAL Marques          : LibXC Library


 Your calculation uses the libint2 library for the computation of 2-el integrals
 For citations please refer to: http://libint.valeyev.net

 Your ORCA version has been built with support for libXC version: 4.2.3
 For citations please refer to: https://tddft.org/programs/libxc/

 This ORCA versions uses:
   CBLAS   interface :  Fast vector & matrix operations
   LAPACKE interface :  Fast linear algebra routines
   SCALAPACK package :  Parallel linear algebra routines


----- Orbital basis set information -----
Your calculation utilizes the basis: def2-SVP
   F. Weigend and R. Ahlrichs, Phys. Chem. Chem. Phys. 7, 3297 (2005).

cite the ECPs for At [Def2-ECP] as follows:
Ce-Yb(ecp-28): M. Dolg, H. Stoll, H.Preuss, J. Chem. Phys., 1989, 90, 1730-1734.
Y-Cd(ecp-28), Hf-Hg(ecp-46): D. Andrae,U. Haeussermann, M. Dolg, H. Stoll, H. Preuss, Theor. Chim. Acta, 1990, 77, 123-141.
In-Sb(ecp-28), Tl-Bi(ecp-46): B. Metz, H. Stoll, M. Dolg, J. Chem. Phys., 2000, 113, 2563-2569.
Te-Xe(ecp-28), Po-Rn(ecp-46): K. A. Peterson, D. Figgen, E. Goll, H. Stoll, M. Dolg, J. Chem. Phys., 2003, 119, 11113-11123.
Rb(ecp-28), Cs(ecp-46): T. Leininger, A. Nicklass, W. Kuechle, H. Stoll, M. Dolg, A. Bergner, Chem. Phys. Lett., 1996, 255, 274-280.
Sr(ecp-28), Ba(ecp-46): M. Kaupp, P. V. Schleyer, H. Stoll and H. Preuss, J. Chem. Phys., 1991, 94, 1360-1366.
La(ecp-46): M. Dolg, H. Stoll, A. Savin, H. Preuss, Theor. Chim. Acta, 1989, 75, 173-194.
Lu(ecp-28): X. Cao, M. Dolg, J. Chem. Phys., 2001, 115, 7348-7355.

ECP parameters for At [Def2-ECP] have been obtained from:
TURBOMOLE (7.0.2)

================================================================================
                                        WARNINGS
                       Please study these warnings very carefully!
================================================================================


WARNING: your system is open-shell and RHF/RKS was chosen
  ===> : WILL SWITCH to UHF/UKS


WARNING: MDCI localization with Augmented Hessian Foster-Boys
  ===> : Switching off randomization!

WARNING: Post HF methods need fully converged wavefunctions
  ===> : Setting SCFConvForced true
         You can overwrite this default with %scf ConvForced false 


INFO   : the flag for use of LIBINT has been found!

================================================================================
                                       INPUT FILE
================================================================================
NAME = 85_At.in
|  1> #
|  2> # 85_At CCSD(T)/Def2-SVP
|  3> #
|  4> ! CCSD(T) Def2-SVP tightscf
|  5> 
|  6> *xyz 0 2
|  7>  At 0.0 0.0 0.0
|  8> *
|  9> 
| 10> %maxcore 5000 
| 11> 
| 12> %pal
| 13> nprocs 24
| 14> end
| 15> 
| 16> 
| 17>                          ****END OF INPUT****
================================================================================

                       ****************************
                       * Single Point Calculation *
                       ****************************

---------------------------------
CARTESIAN COORDINATES (ANGSTROEM)
---------------------------------
  At     0.000000    0.000000    0.000000

----------------------------
CARTESIAN COORDINATES (A.U.)
----------------------------
  NO LB      ZA    FRAG     MASS         X           Y           Z
   0 At   25.0000*   0   210.000    0.000000    0.000000    0.000000
* core charge reduced due to ECP

--------------------------------
INTERNAL COORDINATES (ANGSTROEM)
--------------------------------
 At     0   0   0     0.000000000000     0.00000000     0.00000000

---------------------------
INTERNAL COORDINATES (A.U.)
---------------------------
 At     0   0   0     0.000000000000     0.00000000     0.00000000

---------------------
BASIS SET INFORMATION
---------------------
There are 1 groups of distinct atoms

 Group   1 Type At  : 10s7p6d contracted to 4s4p2d pattern {6211/4111/51}

Atom   0At   basis set group =>   1
-------------------------
ECP PARAMETER INFORMATION
-------------------------

 Group 1, Type At ECP Def2-ECP (replacing 60 core electrons, lmax=3)

Atom   0At   ECP group =>   1



           ************************************************************
           *        Program running with 24 parallel MPI-processes    *
           *              working on a common directory               *
           ************************************************************
------------------------------------------------------------------------------
                           ORCA GTO INTEGRAL CALCULATION
------------------------------------------------------------------------------

                         BASIS SET STATISTICS AND STARTUP INFO

 # of primitive gaussian shells          ...   23
 # of primitive gaussian functions       ...   61
 # of contracted shells                  ...   10
 # of contracted basis functions         ...   26
 Highest angular momentum                ...    2
 Maximum contraction depth               ...    6
 Integral package used                   ... LIBINT
 Integral threshhold            Thresh   ...  2.500e-11
 Primitive cut-off              TCut     ...  2.500e-12


------------------------------ INTEGRAL EVALUATION ----------------------------


 * One electron integrals 

   ECP integrals                         ... done
 Pre-screening matrix                    ... done
 Shell pair data                         ... done (   0.000 sec)



           ************************************************************
           *        Program running with 24 parallel MPI-processes    *
           *              working on a common directory               *
           ************************************************************
-------------------------------------------------------------------------------
                                 ORCA SCF
-------------------------------------------------------------------------------

------------
SCF SETTINGS
------------
Hamiltonian:
 Ab initio Hamiltonian  Method          .... Hartree-Fock(GTOs)


General Settings:
 Integral files         IntName         .... 85_At
 Hartree-Fock type      HFTyp           .... UHF
 Total Charge           Charge          ....    0
 Multiplicity           Mult            ....    2
 Number of Electrons    NEL             ....   25
 Basis Dimension        Dim             ....   26
 Nuclear Repulsion      ENuc            ....      0.0000000000 Eh

Convergence Acceleration:
 DIIS                   CNVDIIS         .... on
   Start iteration      DIISMaxIt       ....    12
   Startup error        DIISStart       ....  0.200000
   # of expansion vecs  DIISMaxEq       ....     5
   Bias factor          DIISBfac        ....   1.050
   Max. coefficient     DIISMaxC        ....  10.000
 Newton-Raphson         CNVNR           .... off
 SOSCF                  CNVSOSCF        .... off
 Level Shifting         CNVShift        .... on
   Level shift para.    LevelShift      ....    0.2500
   Turn off err/grad.   ShiftErr        ....    0.0010
 Zerner damping         CNVZerner       .... off
 Static damping         CNVDamp         .... on
   Fraction old density DampFac         ....    0.7000
   Max. Damping (<1)    DampMax         ....    0.9800
   Min. Damping (>=0)   DampMin         ....    0.0000
   Turn off err/grad.   DampErr         ....    0.1000
 Fernandez-Rico         CNVRico         .... off

SCF Procedure:
 Maximum # iterations   MaxIter         ....   125
 SCF integral mode      SCFMode         .... Direct
   Integral package                     .... LIBINT
 Reset frequency        DirectResetFreq ....    20
 Integral Threshold     Thresh          ....  2.500e-11 Eh
 Primitive CutOff       TCut            ....  2.500e-12 Eh

Convergence Tolerance:
 Convergence Check Mode ConvCheckMode   .... Total+1el-Energy
 Convergence forced     ConvForced      .... 1
 Energy Change          TolE            ....  1.000e-08 Eh
 1-El. energy change                    ....  1.000e-05 Eh
 DIIS Error             TolErr          ....  5.000e-07


Diagonalization of the overlap matrix:
Smallest eigenvalue                        ... 4.097e-02
Time for diagonalization                   ...    0.001 sec
Threshold for overlap eigenvalues          ... 1.000e-08
Number of eigenvalues below threshold      ... 0
Time for construction of square roots      ...    0.011 sec
Total time needed                          ...    0.011 sec

-------------------
DFT GRID GENERATION
-------------------

General Integration Accuracy     IntAcc      ...  4.340
Radial Grid Type                 RadialGrid  ... Gauss-Chebyshev
Angular Grid (max. acc.)         AngularGrid ... Lebedev-110
Angular grid pruning method      GridPruning ... 3 (G Style)
Weight generation scheme         WeightScheme... Becke
Basis function cutoff            BFCut       ...    1.0000e-11
Integration weight cutoff        WCut        ...    1.0000e-14
Grids for H and He will be reduced by one unit

# of grid points (after initial pruning)     ...   3552 (   0.0 sec)
# of grid points (after weights+screening)   ...   3552 (   0.0 sec)
Grid point division into batches done        ...    0.0 sec
Reduced shell lists constructed in    0.0 sec

Total number of grid points                  ...     3552
Total number of batches                      ...       56
Average number of points per batch           ...       63
Average number of grid points per atom       ...     3552
Average number of shells per batch           ...     1.50 (15.00%)
Average number of basis functions per batch  ...     3.00 (11.54%)
Average number of large shells per batch     ...     1.00 (66.67%)
Average number of large basis fcns per batch ...     2.50 (83.33%)
Maximum spatial batch extension              ...  24.96, 38.92, 38.92 au
Average spatial batch extension              ...   1.30,  1.85,  2.08 au

Time for grid setup =    0.053 sec

------------------------------
INITIAL GUESS: MODEL POTENTIAL
------------------------------
Loading Hartree-Fock densities                     ... done
  calling /sw/apps/orca/orca_4_2_0_linux_x86-64_openmpi314/orca 85_At_atom85.inp > 85_At_atom85.out in order to generate an atomic fitting density for atom 0 (At with ECP) on-the-fly... 
    atom 0 (At), assumed electronic state with S=2: 1s2 2s2 2p6 3s2 3p6 4s2 3d10 4p6 5s2 4d10 5p6 6s2 4f14 5d10 6p5           ... done
Calculating cut-offs                               ... done
Setting up the integral package                    ... done
Initializing the effective Hamiltonian             ... done
Starting the Coulomb interaction                   ... done (   0.0 sec)
Reading the grid                                   ... done
Mapping shells                                     ... done
Starting the XC term evaluation                    ... done (   0.0 sec)
Transforming the Hamiltonian                       ... done (   0.0 sec)
Diagonalizing the Hamiltonian                      ... done (   0.0 sec)
Back transforming the eigenvectors                 ... done (   0.0 sec)
Now organizing SCF variables                       ... done
                      ------------------
                      INITIAL GUESS DONE (   1.3 sec)
                      ------------------
--------------
SCF ITERATIONS
--------------
ITER       Energy         Delta-E        Max-DP      RMS-DP      [F,P]     Damp
               ***  Starting incremental Fock matrix formation  ***
  0   -259.0438849577   0.000000000000 0.62975329  0.03845451  0.9713992 0.7000
  1   -259.7320209226  -0.688135964909 0.51258492  0.03182104  0.6432507 0.7000
  2   -260.2215305707  -0.489509648143 0.35885152  0.02253321  0.4141078 0.7000
  3   -260.5591466058  -0.337616035102 0.24839039  0.01544481  0.2658280 0.7000
                               ***Turning on DIIS***
  4   -260.7949254810  -0.235778875203 0.17368464  0.01056501  0.1711428 0.7000
  5   -261.8257022412  -1.030776760184 0.12386486  0.00718252  0.1106742 0.7000
  6   -261.8400297440  -0.014327502770 0.30142272  0.01688432  0.0763455 0.0000
  7   -261.3459816417   0.494048102279 0.01457299  0.00055499  0.0047790 0.0000
  8   -261.3557837855  -0.009802143752 0.00681686  0.00026676  0.0011648 0.0000
  9   -261.3537594108   0.002024374662 0.00221991  0.00010646  0.0002657 0.0000
 10   -261.3536099616   0.000149449163 0.00057432  0.00004327  0.0000801 0.0000
 11   -261.3533828486   0.000227113015 0.00017311  0.00001301  0.0000207 0.0000
 12   -261.3533854103  -0.000002561714 0.00006299  0.00000457  0.0000050 0.0000
                            ***DIIS convergence achieved***

               *****************************************************
               *                     SUCCESS                       *
               *           SCF CONVERGED AFTER  13 CYCLES          *
               *****************************************************


----------------
TOTAL SCF ENERGY
----------------

Total Energy       :         -261.35338225 Eh           -7111.78709 eV

Components:
Nuclear Repulsion  :            0.00000000 Eh               0.00000 eV
Electronic Energy  :         -261.35338225 Eh           -7111.78709 eV
One Electron Energy:         -454.50414960 Eh          -12367.68667 eV
Two Electron Energy:          193.15076736 Eh            5255.89958 eV

Virial components:
Potential Energy   :         -344.00476876 Eh           -9360.84565 eV
Kinetic Energy     :           82.65138651 Eh            2249.05857 eV
Virial Ratio       :            4.16211734


---------------
SCF CONVERGENCE
---------------

  Last Energy change         ...    3.1653e-06  Tolerance :   1.0000e-08
  Last MAX-Density change    ...    1.2440e-05  Tolerance :   1.0000e-07
  Last RMS-Density change    ...    8.5230e-07  Tolerance :   5.0000e-09
  Last DIIS Error            ...    5.2465e-07  Tolerance :   5.0000e-07

             **** THE GBW FILE WAS UPDATED (85_At.gbw) ****
             **** DENSITY FILE WAS UPDATED (85_At.scfp) ****
             **** ENERGY FILE WAS UPDATED (85_At.en.tmp) ****
----------------------
UHF SPIN CONTAMINATION
----------------------

Expectation value of <S**2>     :     0.754471
Ideal value S*(S+1) for S=0.5   :     0.750000
Deviation                       :     0.004471

             **** THE GBW FILE WAS UPDATED (85_At.gbw) ****
             **** DENSITY FILE WAS UPDATED (85_At.scfp) ****
----------------
ORBITAL ENERGIES
----------------
                 SPIN UP ORBITALS
  NO   OCC          E(Eh)            E(eV) 
   0   1.0000      -7.814651      -212.6475 
   1   1.0000      -5.120267      -139.3295 
   2   1.0000      -5.095559      -138.6572 
   3   1.0000      -5.095559      -138.6572 
   4   1.0000      -1.840326       -50.0778 
   5   1.0000      -1.832689       -49.8700 
   6   1.0000      -1.832689       -49.8700 
   7   1.0000      -1.810899       -49.2771 
   8   1.0000      -1.810899       -49.2771 
   9   1.0000      -0.976618       -26.5751 
  10   1.0000      -0.427654       -11.6370 
  11   1.0000      -0.375321       -10.2130 
  12   1.0000      -0.375321       -10.2130 
  13   0.0000       0.383998        10.4491 
  14   0.0000       0.472125        12.8472 
  15   0.0000       0.480357        13.0712 
  16   0.0000       0.480357        13.0712 
  17   0.0000       0.484312        13.1788 
  18   0.0000       0.513582        13.9753 
  19   0.0000       0.513582        13.9753 
  20   0.0000       0.518397        14.1063 
  21   0.0000       0.518397        14.1063 
  22   0.0000      21.782607       592.7349 
  23   0.0000      21.800587       593.2241 
  24   0.0000      21.800587       593.2241 
  25   0.0000      57.204577      1556.6157 

                 SPIN DOWN ORBITALS
  NO   OCC          E(Eh)            E(eV) 
   0   1.0000      -7.806505      -212.4258 
   1   1.0000      -5.102751      -138.8529 
   2   1.0000      -5.094245      -138.6215 
   3   1.0000      -5.094245      -138.6215 
   4   1.0000      -1.826829       -49.7105 
   5   1.0000      -1.822399       -49.5900 
   6   1.0000      -1.822399       -49.5900 
   7   1.0000      -1.809422       -49.2369 
   8   1.0000      -1.809422       -49.2369 
   9   1.0000      -0.896238       -24.3879 
  10   1.0000      -0.354851        -9.6560 
  11   1.0000      -0.354851        -9.6560 
  12   0.0000      -0.047116        -1.2821 
  13   0.0000       0.404804        11.0153 
  14   0.0000       0.520132        14.1535 
  15   0.0000       0.520132        14.1535 
  16   0.0000       0.525164        14.2904 
  17   0.0000       0.525164        14.2904 
  18   0.0000       0.538379        14.6500 
  19   0.0000       0.538379        14.6500 
  20   0.0000       0.541594        14.7375 
  21   0.0000       0.546028        14.8582 
  22   0.0000      21.799551       593.1960 
  23   0.0000      21.802306       593.2709 
  24   0.0000      21.802306       593.2709 
  25   0.0000      57.206611      1556.6710 

                    ********************************
                    * MULLIKEN POPULATION ANALYSIS *
                    ********************************

--------------------------------------------
MULLIKEN ATOMIC CHARGES AND SPIN POPULATIONS
--------------------------------------------
   0 At:    0.000000    1.000000
Sum of atomic charges         :    0.0000000
Sum of atomic spin populations:    1.0000000

-----------------------------------------------------
MULLIKEN REDUCED ORBITAL CHARGES AND SPIN POPULATIONS
-----------------------------------------------------
CHARGE
  0 Ats       :     3.998073  s :     3.998073
      pz      :     3.000000  p :    11.000000
      px      :     4.000000
      py      :     4.000000
      dz2     :     2.001927  d :    10.001927
      dxz     :     2.000000
      dyz     :     2.000000
      dx2y2   :     2.000000
      dxy     :     2.000000

SPIN
  0 Ats       :     0.000528  s :     0.000528
      pz      :     1.000000  p :     1.000000
      px      :     0.000000
      py      :     0.000000
      dz2     :    -0.000528  d :    -0.000528
      dxz     :    -0.000000
      dyz     :    -0.000000
      dx2y2   :    -0.000000
      dxy     :     0.000000


                     *******************************
                     * LOEWDIN POPULATION ANALYSIS *
                     *******************************

-------------------------------------------
LOEWDIN ATOMIC CHARGES AND SPIN POPULATIONS
-------------------------------------------
   0 At:    0.000000    1.000000

----------------------------------------------------
LOEWDIN REDUCED ORBITAL CHARGES AND SPIN POPULATIONS
----------------------------------------------------
CHARGE
  0 Ats       :     3.998073  s :     3.998073
      pz      :     3.000000  p :    11.000000
      px      :     4.000000
      py      :     4.000000
      dz2     :     2.001927  d :    10.001927
      dxz     :     2.000000
      dyz     :     2.000000
      dx2y2   :     2.000000
      dxy     :     2.000000

SPIN
  0 Ats       :     0.000528  s :     0.000528
      pz      :     1.000000  p :     1.000000
      px      :     0.000000
      py      :     0.000000
      dz2     :    -0.000528  d :    -0.000528
      dxz     :    -0.000000
      dyz     :    -0.000000
      dx2y2   :    -0.000000
      dxy     :     0.000000


                      *****************************
                      * MAYER POPULATION ANALYSIS *
                      *****************************

  NA   - Mulliken gross atomic population
  ZA   - Total nuclear charge
  QA   - Mulliken gross atomic charge
  VA   - Mayer's total valence
  BVA  - Mayer's bonded valence
  FA   - Mayer's free valence

  ATOM       NA         ZA         QA         VA         BVA        FA
  0 At    25.0000    25.0000     0.0000     1.0089     0.0000     1.0089

  Mayer bond orders larger than 0.100000


-------
TIMINGS
-------

Total SCF time: 0 days 0 hours 0 min 4 sec 

Total time                  ....       4.066 sec
Sum of individual times     ....       3.583 sec  ( 88.1%)

Fock matrix formation       ....       1.971 sec  ( 48.5%)
Diagonalization             ....       0.049 sec  (  1.2%)
Density matrix formation    ....       0.001 sec  (  0.0%)
Population analysis         ....       0.054 sec  (  1.3%)
Initial guess               ....       1.241 sec  ( 30.5%)
Orbital Transformation      ....       0.000 sec  (  0.0%)
Orbital Orthonormalization  ....       0.000 sec  (  0.0%)
DIIS solution               ....       0.214 sec  (  5.3%)


           ************************************************************
           *        Program running with 24 parallel MPI-processes    *
           *              working on a common directory               *
           ************************************************************


------------------------------------------------------------------------------- 
                              ORCA-MATRIX DRIVEN CI                            
------------------------------------------------------------------------------- 

--------------------------------
AUTOMATIC CHOICE OF INCORE LEVEL
--------------------------------

Memory available                           ...   2500.00 MB
Memory needed for S+T                      ...      0.17 MB
Memory needed for J+K                      ...      0.36 MB
Memory needed for DIIS                     ...      2.44 MB
Memory needed for 3-ext                    ...      0.15 MB
Memory needed for 4-ext                    ...      0.12 MB
Memory needed for triples                  ...      0.08 MB
 -> Final InCoreLevel    ... 5
 -> check shows that triples correction can be computed


Wavefunction type
-----------------
Correlation treatment                      ...      CCSD     
Single excitations                         ... ON
Orbital optimization                       ... OFF
Calculation of Z vector                    ... OFF
Calculation of Brueckner orbitals          ... OFF
Perturbative triple excitations            ... ON
Calculation of F12 correction              ... OFF
Frozen core treatment                      ... chemical core (8 el)
Reference Wavefunction                     ... UHF
  Alpha-MOs occ    :     4 ...   12 (  9 MO's/  9 electrons)
  Beta-MOs occ     :     4 ...   11 (  8 MO's/  8 electrons)
  Alpha-MOs virt   :    13 ...   25 ( 13 MO's              )
  Beta-MOs virt    :    12 ...   25 ( 14 MO's              )
Number of AO's                             ...     26
Number of electrons                        ...     25
Number of correlated electrons             ...     17

Algorithmic settings
--------------------
Integral transformation                    ... AO direct full transformation
K(C) Formation                             ... FULL-MO TRAFO
Maximum number of iterations               ...        50
Convergence tolerance (max. residuum)      ... 1.000e-05
Level shift for amplitude update           ... 2.000e-01
Maximum number of DIIS vectors             ...         7
DIIS turned on at iteration                ...         0
Damping before turning on DIIS             ...     0.500
Damping after turning on DIIS              ...     0.000
Pair specific amplitude update             ... OFF
Natural orbital iterations                 ... OFF
Perturbative natural orbital generation    ... OFF
Printlevel                                 ... 2

Memory handling:
----------------
Maximum memory for working arrays          ...   2500 MB
Data storage in matrix containers          ... UNCOMPRESSED
Data type for integral storage             ... DOUBLE
In-Core Storage of quantities:
   Amplitudes+Sigma Vector      ... YES
   J+K operators                ... YES
   DIIS vectors                 ... YES
   3-external integrals         ... YES
   4-external integrals         ... YES


Initializing the integral package          ... done
Warning: reference  - re-canonicalizations have been set to INT 1 VIRT 1

--------------------------
UNRESTRICTED FOCK OPERATOR
--------------------------

<ss|ss>:           55 b            0 skpd (  0.0%)    0.000 s ( 0.001 ms/b)
<ss|sp>:          160 b            0 skpd (  0.0%)    0.000 s ( 0.001 ms/b)
<ss|sd>:           80 b            0 skpd (  0.0%)    0.000 s ( 0.003 ms/b)
<ss|pp>:          100 b            0 skpd (  0.0%)    0.000 s ( 0.001 ms/b)
<ss|pd>:           80 b            0 skpd (  0.0%)    0.000 s ( 0.003 ms/b)
<ss|dd>:           30 b            0 skpd (  0.0%)    0.000 s ( 0.015 ms/b)
<sp|sp>:          136 b            0 skpd (  0.0%)    0.000 s ( 0.001 ms/b)
<sp|sd>:          128 b            0 skpd (  0.0%)    0.000 s ( 0.003 ms/b)
<sp|pp>:          160 b            0 skpd (  0.0%)    0.000 s ( 0.001 ms/b)
<sp|pd>:          128 b            0 skpd (  0.0%)    0.000 s ( 0.004 ms/b)
<sp|dd>:           48 b            0 skpd (  0.0%)    0.001 s ( 0.021 ms/b)
<sd|sd>:           36 b            0 skpd (  0.0%)    0.001 s ( 0.017 ms/b)
<sd|pp>:           80 b            0 skpd (  0.0%)    0.000 s ( 0.004 ms/b)
<sd|pd>:           64 b            0 skpd (  0.0%)    0.001 s ( 0.014 ms/b)
<sd|dd>:           24 b            0 skpd (  0.0%)    0.002 s ( 0.083 ms/b)
<pp|pp>:           55 b            0 skpd (  0.0%)    0.000 s ( 0.004 ms/b)
<pp|pd>:           80 b            0 skpd (  0.0%)    0.001 s ( 0.007 ms/b)
<pp|dd>:           30 b            0 skpd (  0.0%)    0.001 s ( 0.043 ms/b)
<pd|pd>:           36 b            0 skpd (  0.0%)    0.002 s ( 0.042 ms/b)
<pd|dd>:           24 b            0 skpd (  0.0%)    0.003 s ( 0.140 ms/b)
<dd|dd>:            6 b            0 skpd (  0.0%)    0.005 s ( 0.794 ms/b)
Recanonicalizing the internal orbitals
Recanonicalizing the virtual orbitals
Time needed for Fock operator              ...            0.255 sec
Reference energy                           ...   -261.353379630
Warning: for UHF the TrafoType has to be JK
Warning: for UHF the K(C)-option cannot be MO but must be AOX

-------------------------------
PARTIAL EXCHANGE TRANSFORMATION
-------------------------------

Transformation type                        ... two-operators
Generation of integrals (i,mue|j,nue)      ... ON
Generation of integrals (mue,kappa|nue,tau)... ON
Generation of integrals (i,mue|a,nue)      ... ON
Dimension of the basis                     ...   26
Number of internal alpha-MOs               ...    9 (   4-  12)
Number of internal beta-MOs                ...    8 (   4-  11)
Number of external alpha-MOs               ...   13 (  13-  25)
Number of external beta-MOs                ...   14 (  12-  25)
Pair cutoff                                ... 0.000e+00 Eh
Number of AO pairs in the trafo            ...  351
Total Number of distinct AO pairs          ...  351
Memory devoted for trafo                   ... 2500.0 MB 
Max. Number of MO pairs treated together   ... 484733      
Number Format for Storage                  ... Double (8 Byte)
Integral package used                      ... LIBINT

Starting integral evaluation:
    ... done with AO integral generation
Closing buffer AOK[aa] ( 0.00 GB; CompressionRatio= 0.00)
Closing buffer AOK[bb] ( 0.00 GB; CompressionRatio= 0.00)
Closing buffer AOK[ab] ( 0.00 GB; CompressionRatio= 0.00)
Closing buffer AOK[ba] ( 0.00 GB; CompressionRatio= 0.00)
Collecting buffer AOK 
Closing buffer IAAO1[aa] ( 0.00 GB; CompressionRatio= 0.00)
Closing buffer IAAO1[bb] ( 0.00 GB; CompressionRatio= 0.00)
Closing buffer IAAO1[ab] ( 0.00 GB; CompressionRatio= 0.00)
Closing buffer IAAO1[ba] ( 0.00 GB; CompressionRatio= 0.00)
Closing buffer IAAO2[aa] ( 0.00 GB; CompressionRatio= 0.00)
Closing buffer IAAO2[bb] ( 0.00 GB; CompressionRatio= 0.00)
Closing buffer IAAO2[ab] ( 0.00 GB; CompressionRatio= 0.00)
Closing buffer IAAO2[ba] ( 0.00 GB; CompressionRatio= 0.00)
Collecting buffer IAAO 
Closing buffer PRQS    ( 0.00 GB; CompressionRatio= 0.00)
Collecting buffer PRQS 
Number of alpha/alpha MO pairs in trafo    ...   45
Number of beta /beta  MO pairs in trafo    ...   36
Number of alpha/ beta MO pairs in trafo    ...   72
------------------------
SORTING OF (i,mue|j,nue)
------------------------

SORTING OF ALPHA/ALPHA PAIRS
IBATCH = 1 of  1
Closing buffer KAO[aa] ( 0.00 GB; CompressionRatio= 1.00)
Collecting buffer KAO 
SORTING OF BETA /BETA  PAIRS
IBATCH = 1 of  1
Closing buffer KAO[bb] ( 0.00 GB; CompressionRatio= 1.00)
Collecting buffer KAO 
SORTING OF ALPHA/BETA  PAIRS
IBATCH = 1 of  1
Closing buffer KAO[ab] ( 0.00 GB; CompressionRatio= 0.997785977860)
Collecting buffer KAO[ab] 
------------------------
SORTING OF (i,mue|a,nue)
------------------------

Number of alpha/alpha (i,a) pairs in trafo  ...  117
Number of beta /beta  (i,a) pairs in trafo  ...  112
Number of alpha/ beta (i,a) pairs in trafo  ...  126
Number of beta /alpha (i,a) pairs in trafo  ...  104
Setting up the alpha/alpha list             ... done
Setting up the beta /beta  list             ... done
Setting up the alpha/beta  list             ... done
Setting up the beta /alpha list             ... done
    ... Now sorting (i,mue|a,nue)integrals
    ... Integrals (i,b|a,c) will be made on the fly
SORTING OF ALPHA/ALPHA PAIRS
IBATCH = 1 of  1
Closing buffer IPAQ[aa]  0.00 GB; CompressionRatio= 1.00)
SORTING OF BETA /BETA  PAIRS
IBATCH = 1 of  1
Closing buffer IPAQ[bb]( 0.00 GB; CompressionRatio= 1.00)
SORTING OF ALPHA/BETA  PAIRS (NMatSort_ab=6)
IBATCH = 1 of  1
Closing buffer IPAQ[ab]( 0.00 GB; CompressionRatio= 1.00)
SORTING OF BETA/ALPHA  PAIRS
IBATCH = 1 of  1
Closing buffer IPAQ[ba]( 0.00 GB; CompressionRatio= 1.00)
N(AO-Batches) Done                         ...         0 
N(AO-Batches) Skipped                      ...         0 
N(IJ)-pairs Skipped                        ...         0 
TOTAL TIME for half transformation         ...     1.354 sec
AO-integral generation                     ...     0.000 sec
Half transformation                        ...     0.000 sec
K-integral sorting                         ...     0.566 sec
<ss|**>: 
------------------------------
PARTIAL COULOMB TRANSFORMATION
------------------------------

Transformation type                        ... two-operators
Dimension of the basis                     ...   26
Number of internal alpha-MOs               ...    9 (4-12)
Number of internal beta-MOs                ...    8 (4-11)
Pair cutoff                                ... 0.000e+00 Eh
Number of AO pairs included in the trafo   ...  351
Total Number of distinct AO pairs          ...  351
Memory devoted for trafo                   ... 2500.0 MB 
Max. Number of MO pairs treated together   ... 933561      
Max. Number of MOs treated per batch       ... 35906      
Number Format for Storage                  ... Double (8 Byte)
AO-integral source                         ... DIRECT
Integral package used                      ... LIBINT

Starting integral evaluation:
<sp|**>:          550 b        0 skpd     0.002 s (  0.003 ms/b)
<sd|**>:          880 b        0 skpd     0.007 s (  0.008 ms/b)
<pp|**>:          440 b        0 skpd     0.007 s (  0.017 ms/b)
<pd|**>:          550 b        0 skpd     0.011 s (  0.021 ms/b)
<dd|**>:          440 b        0 skpd     0.021 s (  0.047 ms/b)
         165 b        0 skpd     0.020 s (  0.120 ms/b)
Closing buffer AOJ[aa] ( 0.00 GB; CompressionRatio= 0.97)
Closing buffer AOJ[bb] ( 0.00 GB; CompressionRatio= 0.00)
Collecting buffer AOJ 
    ... done with AO integral generation
Number of Alpha-MO pairs included          ...   45
Number of Beta-MO pairs included           ...   36
    ... Now sorting integrals
SORTING ALPHA/ALPHA PAIRS
IBATCH = 1 of  1
Closing buffer JAO[aa] ( 0.00 GB; CompressionRatio= 1.00)
SORTING BETA/BETA PAIRS
IBATCH = 1 of  1
Closing buffer JAO[bb] ( 0.00 GB; CompressionRatio= 1.00)
Collecting buffer JAO 
TOTAL TIME for half transformation         ...     0.183 sec
AO-integral generation                     ...     0.031 sec
Half transformation                        ...     0.038 sec
J-integral sorting                         ...     0.078 sec

-------------------------- SECOND HALF TRANSFORMATION -------------------------
Formation of (ij|kl),(ij|ka), (ij|ab)      ... ok (     0.099 sec)
Formation of (ik|jl),(ik|ja), (ia|jb)      ... ok (     0.161 sec)


-----------------------
SPIN UNRESTRICTED GUESS
-----------------------

Entering MDCI_UHF_Guess, Tailored=0
Spin-components of the MP2 energy:
EMP2(aa)=     -0.017238991
EMP2(bb)=     -0.010520300
EMP2(ab)=     -0.060173397

Initial guess performed in     0.002 sec
E(0)                                       ...   -261.353379630
E(MP2)                                     ...     -0.087932688
Initial E(tot)                             ...   -261.441312318
<T|T>                                      ...      0.041320405
Number of pairs included                   ... 136

------------------------------------------------
                  UHF COUPLED CLUSTER ITERATIONS
------------------------------------------------

Number of amplitudes to be optimized       ...        18986

Iter       E(tot)           E(Corr)          Delta-E          Residual     Time      <S|S>**1/2
  0   -261.441312318     -0.087932688     -0.000000000      0.013320234    0.06      0.000001699
                           *** Turning on DIIS ***
  1   -261.447286465     -0.093906835     -0.005974146      0.006076897    0.04      0.012755750
  2   -261.449782379     -0.096402749     -0.002495914      0.001352644    0.04      0.018693122
  3   -261.450052591     -0.096672961     -0.000270212      0.000183220    0.04      0.020018328
  4   -261.450055523     -0.096675893     -0.000002932      0.000073526    0.04      0.020173685
  5   -261.450058413     -0.096678783     -0.000002890      0.000022202    0.04      0.020194161
  6   -261.450058520     -0.096678890     -0.000000107      0.000005437    0.04      0.020194938
               --- The Coupled-Cluster iterations have converged ---

----------------------
COUPLED CLUSTER ENERGY
----------------------

E(0)                                       ...   -261.353379630
E(CORR)                                    ...     -0.096678890
E(TOT)                                     ...   -261.450058520
Singles norm <S|S>**1/2                    ...      0.020194938 ( 0.009915479, 0.010279459)  
T1 diagnostic                              ...      0.004897992                              

------------------
LARGEST AMPLITUDES
------------------
  10a-> 14a   9b-> 12b       0.041354
  11a-> 16a   9b-> 12b       0.036662
  12a-> 15a   9b-> 12b       0.036662
  12a-> 18a  11a-> 19a       0.035491
  12a-> 19a  11a-> 18a       0.035491
  11b-> 14b  10b-> 15b       0.034401
  11b-> 15b  10b-> 14b       0.034401
  12a-> 15a  11b-> 19b       0.029354
  11a-> 16a  10b-> 18b       0.029354
  11a-> 19a  10b-> 15b       0.028575
  11a-> 18a  10b-> 14b       0.028575
  12a-> 18a  11b-> 14b       0.028575
  12a-> 19a  11b-> 15b       0.028575
  11a-> 14a  10a-> 16a       0.028162
  11a-> 16a  10a-> 14a       0.028162
  12a-> 14a  10a-> 15a       0.028162

----------------------
UHF TRIPLES CORRECTION (Algorithm 1)
----------------------

Multiplier for the singles contribution    ...      1.000000000

SPIN-CASE Alpha-Alpha-Alpha:
10% done
20% done
30% done
40% done
50% done
60% done
70% done
80% done
90% done


SPIN-CASE Beta-Beta-Beta:
10% done
20% done
30% done
40% done
50% done
60% done
70% done
80% done
90% done


SPIN-CASE Alpha-Alpha-Beta:
10% done
20% done
30% done
40% done
50% done
60% done
70% done
80% done
90% done


SPIN-CASE Beta-Beta-Alpha:
10% done
20% done
30% done
40% done
50% done
60% done
70% done
80% done
90% done


Triples Correction (T)                     ...     -0.001117810
    alpha-alpha-alpha ... -0.000054485 (  4.9%)
    alpha-alpha-beta  ... -0.000583341 ( 52.2%)
    alpha-beta -beta  ... -0.000447558 ( 40.0%)
    beta -beta -beta  ... -0.000032426 (  2.9%)
Scaling of triples based on CCSD energies (Peterson et al. Molecular Physics 113, 1551 (2015))
E(T*) = f*E(T) where f = E(F12-CCSD)/E(CCSD) 
f = CCSD (with F12)/ CCSD (without F12)    ...      1.000000000
Scaled triples correction (T)              ...     -0.001117810

Final correlation energy                   ...     -0.097796700
E(CCSD)                                    ...   -261.450058520
E(CCSD(T))                                 ...   -261.451176330



        !!!!!!!!!!!!!!!!!!!!!!!!!!!!!!!!!!!!!!!!!!!!!!!!!!!!!!!!!!!!!!!!!!!!!!!!!! 
        !  Warning: Densities are linearized densities                           !
        !!!!!!!!!!!!!!!!!!!!!!!!!!!!!!!!!!!!!!!!!!!!!!!!!!!!!!!!!!!!!!!!!!!!!!!!!! 

NORM  =      1.053256221 sqrt=     1.026282720
W(HF) =      0.949436595
------------------------------------------------------------------------------
                           ORCA POPULATION ANALYSIS
------------------------------------------------------------------------------
Input electron density              ... 85_At.mdcip
Input spin density                  ... 85_At.mdcir
BaseName (.gbw .S,...)              ... 85_At

                    ********************************
                    * MULLIKEN POPULATION ANALYSIS *
                    ********************************

------------------------------------------
MULLIKEN ATOMIC CHARGES AND SPIN DENSITIES
------------------------------------------
   0 At:    0.000000    1.000000
Sum of atomic charges       :    0.0000000
Sum of atomic spin densities:    1.0000000

---------------------------------------------------
MULLIKEN REDUCED ORBITAL CHARGES AND SPIN DENSITIES
---------------------------------------------------
CHARGE
  0 Ats       :     3.990478  s :     3.990478
      pz      :     2.999412  p :    10.946986
      px      :     3.973787
      py      :     3.973787
      dz2     :     2.010653  d :    10.062536
      dxz     :     2.011632
      dyz     :     2.011632
      dx2y2   :     2.014310
      dxy     :     2.014310

SPIN
  0 Ats       :     0.005223  s :     0.005223
      pz      :     0.981368  p :     0.981626
      px      :     0.000129
      py      :     0.000129
      dz2     :     0.005856  d :     0.013150
      dxz     :     0.004126
      dyz     :     0.004126
      dx2y2   :    -0.000479
      dxy     :    -0.000479


                     *******************************
                     * LOEWDIN POPULATION ANALYSIS *
                     *******************************

-----------------------------------------
LOEWDIN ATOMIC CHARGES AND SPIN DENSITIES
-----------------------------------------
   0 At:    0.000000    1.000000

--------------------------------------------------
LOEWDIN REDUCED ORBITAL CHARGES AND SPIN DENSITIES
--------------------------------------------------
CHARGE
  0 Ats       :     3.990478  s :     3.990478
      pz      :     2.999412  p :    10.946986
      px      :     3.973787
      py      :     3.973787
      dz2     :     2.010653  d :    10.062536
      dxz     :     2.011632
      dyz     :     2.011632
      dx2y2   :     2.014310
      dxy     :     2.014310

SPIN
  0 Ats       :     0.005223  s :     0.005223
      pz      :     0.981368  p :     0.981626
      px      :     0.000129
      py      :     0.000129
      dz2     :     0.005856  d :     0.013150
      dxz     :     0.004126
      dyz     :     0.004126
      dx2y2   :    -0.000479
      dxy     :    -0.000479


                      *****************************
                      * MAYER POPULATION ANALYSIS *
                      *****************************

  NA   - Mulliken gross atomic population
  ZA   - Total nuclear charge
  QA   - Mulliken gross atomic charge
  VA   - Mayer's total valence
  BVA  - Mayer's bonded valence
  FA   - Mayer's free valence

  ATOM       NA         ZA         QA         VA         BVA        FA
  0 At    25.0000    25.0000     0.0000     1.3784     0.0000     1.3784





------------------------------------------------------------------------------- 
                                     TIMINGS                                   
------------------------------------------------------------------------------- 


Total execution time                   ...        2.732 sec

Fock Matrix Formation                  ...        0.255 sec (  9.3%)
Initial Guess                          ...        0.002 sec (  0.1%)
DIIS Solver                            ...        0.019 sec (  0.7%)
State Vector Update                    ...        0.003 sec (  0.1%)
Sigma-vector construction              ...        0.272 sec ( 10.0%)
  <D|H|D>(2-ext)                       ...        0.003 sec (  1.0% of sigma)
  <D|H|D>(4-ext)                       ...        0.079 sec ( 28.9% of sigma)
  <S|H|0>                              ...        0.003 sec (  1.1% of sigma)
  <D|H|S>(1-ext)                       ...        0.003 sec (  1.0% of sigma)
  Fock-dressing                        ...        0.106 sec ( 38.9% of sigma)
  (ik|jl)-dressing                     ...        0.001 sec (  0.4% of sigma)
  (ij|ab),(ia|jb)-dressing             ...        0.054 sec ( 19.8% of sigma)
Total Time for computing (T)           ...        0.006 sec (  0.2% of ALL)
  N**6 triples energy contributions    ...        0.001 sec ( 23.5% of (T))


-------------------------   --------------------
FINAL SINGLE POINT ENERGY      -261.451176330194
-------------------------   --------------------


                            ***************************************
                            *     ORCA property calculations      *
                            ***************************************

                                    ---------------------
                                    Active property flags
                                    ---------------------
   (+) Dipole Moment


------------------------------------------------------------------------------
                       ORCA ELECTRIC PROPERTIES CALCULATION
------------------------------------------------------------------------------

Dipole Moment Calculation                       ... on
Quadrupole Moment Calculation                   ... off
Polarizability Calculation                      ... off
GBWName                                         ... 85_At.gbw
Electron density file                           ... 85_At.scfp
The origin for moment calculation is the CENTER OF MASS  = ( 0.000000,  0.000000  0.000000)

-------------
DIPOLE MOMENT
-------------
                                X             Y             Z
Electronic contribution:     -0.00000      -0.00000      -0.00000
Nuclear contribution   :      0.00000       0.00000       0.00000
                        -----------------------------------------
Total Dipole Moment    :     -0.00000      -0.00000      -0.00000
                        -----------------------------------------
Magnitude (a.u.)       :      0.00000
Magnitude (Debye)      :      0.00000



--------------------
Rotational spectrum 
--------------------
 
Rotational constants in cm-1:     0.000000     0.000000     0.000000 
Rotational constants in MHz :     0.000000     0.000000     0.000000 

 Dipole components along the rotational axes: 
x,y,z [a.u.] :    -0.000000    -0.000000    -0.000000 
x,y,z [Debye]:    -0.000000    -0.000000    -0.000000 

 

                           *** MDCI DENSITY ***

------------------------------------------------------------------------------
                       ORCA ELECTRIC PROPERTIES CALCULATION
------------------------------------------------------------------------------

Dipole Moment Calculation                       ... on
Quadrupole Moment Calculation                   ... off
Polarizability Calculation                      ... off
GBWName                                         ... 85_At.gbw
Electron density file                           ... 85_At.mdcip
The origin for moment calculation is the CENTER OF MASS  = ( 0.000000,  0.000000  0.000000)

-------------
DIPOLE MOMENT
-------------
                                X             Y             Z
Electronic contribution:      0.00000       0.00000      -0.00000
Nuclear contribution   :      0.00000       0.00000       0.00000
                        -----------------------------------------
Total Dipole Moment    :      0.00000       0.00000      -0.00000
                        -----------------------------------------
Magnitude (a.u.)       :      0.00000
Magnitude (Debye)      :      0.00000



--------------------
Rotational spectrum 
--------------------
 
Rotational constants in cm-1:     0.000000     0.000000     0.000000 
Rotational constants in MHz :     0.000000     0.000000     0.000000 

 Dipole components along the rotational axes: 
x,y,z [a.u.] :     0.000000     0.000000    -0.000000 
x,y,z [Debye]:     0.000000     0.000000    -0.000000 

 

Timings for individual modules:

Sum of individual times         ...        8.657 sec (=   0.144 min)
GTO integral calculation        ...        0.909 sec (=   0.015 min)  10.5 %
SCF iterations                  ...        4.520 sec (=   0.075 min)  52.2 %
MDCI module                     ...        3.228 sec (=   0.054 min)  37.3 %
                             ****ORCA TERMINATED NORMALLY****
TOTAL RUN TIME: 0 days 0 hours 0 minutes 9 seconds 533 msec
