
                                 *****************
                                 * O   R   C   A *
                                 *****************

           --- An Ab Initio, DFT and Semiempirical electronic structure package ---

                  #######################################################
                  #                        -***-                        #
                  #          Department of theory and spectroscopy      #
                  #               Directorship: Frank Neese             #
                  #        Max Planck Institute fuer Kohlenforschung    #
                  #                Kaiser Wilhelm Platz 1               #
                  #                 D-45470 Muelheim/Ruhr               #
                  #                      Germany                        #
                  #                                                     #
                  #                  All rights reserved                #
                  #                        -***-                        #
                  #######################################################


                         Program Version 4.2.0 -  RELEASE  -


 With contributions from (in alphabetic order):
   Daniel Aravena         : Magnetic Suceptibility
   Michael Atanasov       : Ab Initio Ligand Field Theory (pilot matlab implementation)
   Alexander A. Auer      : GIAO ZORA, VPT2
   Ute Becker             : Parallelization
   Giovanni Bistoni       : ED, misc. LED, open-shell LED, HFLED
   Martin Brehm           : Molecular dynamics
   Dmytro Bykov           : SCF Hessian
   Vijay G. Chilkuri      : MRCI spin determinant printing, contributions to CSF-ICE
   Dipayan Datta          : RHF DLPNO-CCSD density
   Achintya Kumar Dutta   : EOM-CC, STEOM-CC
   Dmitry Ganyushin       : Spin-Orbit,Spin-Spin,Magnetic field MRCI
   Miquel Garcia          : C-PCM Hessian, Gaussian charge scheme
   Yang Guo               : DLPNO-NEVPT2, CIM, IAO-localization
   Andreas Hansen         : Spin unrestricted coupled pair/coupled cluster methods
   Benjamin Helmich-Paris : CASSCF linear response (MC-RPA)
   Lee Huntington         : MR-EOM, pCC
   Robert Izsak           : Overlap fitted RIJCOSX, COSX-SCS-MP3, EOM
   Christian Kollmar      : KDIIS, OOCD, Brueckner-CCSD(T), CCSD density
   Simone Kossmann        : Meta GGA functionals, TD-DFT gradient, OOMP2, MP2 Hessian
   Martin Krupicka        : AUTO-CI
   Lucas Lang             : DCDCAS
   Dagmar Lenk            : GEPOL surface, SMD
   Dimitrios Liakos       : Extrapolation schemes; Compound Job, initial MDCI parallelization
   Dimitrios Manganas     : Further ROCIS development; embedding schemes
   Dimitrios Pantazis     : SARC Basis sets
   Taras Petrenko         : DFT Hessian,TD-DFT gradient, ASA, ECA, R-Raman, ABS, FL, XAS/XES, NRVS
   Peter Pinski           : DLPNO-MP2, DLPNO-MP2 Gradient
   Christoph Reimann      : Effective Core Potentials
   Marius Retegan         : Local ZFS, SOC
   Christoph Riplinger    : Optimizer, TS searches, QM/MM, DLPNO-CCSD(T), (RO)-DLPNO pert. Triples
   Tobias Risthaus        : Range-separated hybrids, TD-DFT gradient, RPA, STAB
   Michael Roemelt        : Original ROCIS implementation
   Masaaki Saitow         : Open-shell DLPNO-CCSD energy and density
   Barbara Sandhoefer     : DKH picture change effects
   Avijit Sen             : IP-ROCIS
   Kantharuban Sivalingam : CASSCF convergence, NEVPT2, FIC-MRCI
   Bernardo de Souza      : ESD, SOC TD-DFT
   Georgi Stoychev        : AutoAux, RI-MP2 NMR
   Willem Van den Heuvel  : Paramagnetic NMR
   Boris Wezisla          : Elementary symmetry handling
   Frank Wennmohs         : Technical directorship


 We gratefully acknowledge several colleagues who have allowed us to
 interface, adapt or use parts of their codes:
   Stefan Grimme, W. Hujo, H. Kruse,             : VdW corrections, initial TS optimization,
                  C. Bannwarth                     DFT functionals, gCP, sTDA/sTD-DF
   Ed Valeev, F. Pavosevic, A. Kumar             : LibInt (2-el integral package), F12 methods
   Garnet Chan, S. Sharma, J. Yang, R. Olivares  : DMRG
   Ulf Ekstrom                                   : XCFun DFT Library
   Mihaly Kallay                                 : mrcc  (arbitrary order and MRCC methods)
   Andreas Klamt, Michael Diedenhofen            : otool_cosmo (COSMO solvation model)
   Jiri Pittner, Ondrej Demel                    : Mk-CCSD
   Frank Weinhold                                : gennbo (NPA and NBO analysis)
   Christopher J. Cramer and Donald G. Truhlar   : smd solvation model
   Lars Goerigk                                  : TD-DFT with DH, B97 family of functionals
   V. Asgeirsson, H. Jonsson                     : NEB implementation
   FAccTs GmbH                                   : IRC, NEB, NEB-TS, Multilevel, MM, QM/MM, CI optimization
   S Lehtola, MJT Oliveira, MAL Marques          : LibXC Library


 Your calculation uses the libint2 library for the computation of 2-el integrals
 For citations please refer to: http://libint.valeyev.net

 Your ORCA version has been built with support for libXC version: 4.2.3
 For citations please refer to: https://tddft.org/programs/libxc/

 This ORCA versions uses:
   CBLAS   interface :  Fast vector & matrix operations
   LAPACKE interface :  Fast linear algebra routines
   SCALAPACK package :  Parallel linear algebra routines


----- Orbital basis set information -----
Your calculation utilizes the basis: def2-SVP
   F. Weigend and R. Ahlrichs, Phys. Chem. Chem. Phys. 7, 3297 (2005).

cite the ECPs for Rn [Def2-ECP] as follows:
Ce-Yb(ecp-28): M. Dolg, H. Stoll, H.Preuss, J. Chem. Phys., 1989, 90, 1730-1734.
Y-Cd(ecp-28), Hf-Hg(ecp-46): D. Andrae,U. Haeussermann, M. Dolg, H. Stoll, H. Preuss, Theor. Chim. Acta, 1990, 77, 123-141.
In-Sb(ecp-28), Tl-Bi(ecp-46): B. Metz, H. Stoll, M. Dolg, J. Chem. Phys., 2000, 113, 2563-2569.
Te-Xe(ecp-28), Po-Rn(ecp-46): K. A. Peterson, D. Figgen, E. Goll, H. Stoll, M. Dolg, J. Chem. Phys., 2003, 119, 11113-11123.
Rb(ecp-28), Cs(ecp-46): T. Leininger, A. Nicklass, W. Kuechle, H. Stoll, M. Dolg, A. Bergner, Chem. Phys. Lett., 1996, 255, 274-280.
Sr(ecp-28), Ba(ecp-46): M. Kaupp, P. V. Schleyer, H. Stoll and H. Preuss, J. Chem. Phys., 1991, 94, 1360-1366.
La(ecp-46): M. Dolg, H. Stoll, A. Savin, H. Preuss, Theor. Chim. Acta, 1989, 75, 173-194.
Lu(ecp-28): X. Cao, M. Dolg, J. Chem. Phys., 2001, 115, 7348-7355.

ECP parameters for Rn [Def2-ECP] have been obtained from:
TURBOMOLE (7.0.2)

================================================================================
                                        WARNINGS
                       Please study these warnings very carefully!
================================================================================


WARNING: MDCI localization with Augmented Hessian Foster-Boys
  ===> : Switching off randomization!

WARNING: Post HF methods need fully converged wavefunctions
  ===> : Setting SCFConvForced true
         You can overwrite this default with %scf ConvForced false 


INFO   : the flag for use of LIBINT has been found!

================================================================================
                                       INPUT FILE
================================================================================
NAME = 86_Rn.in
|  1> #
|  2> # 85_At CCSD(T)/Def2-SVP
|  3> #
|  4> ! CCSD(T) Def2-SVP tightscf
|  5> 
|  6> *xyz 0 1
|  7>  Rn 0.0 0.0 0.0
|  8> *
|  9> 
| 10> %maxcore 5000 
| 11> 
| 12> %pal
| 13> nprocs 24
| 14> end
| 15> 
| 16> 
| 17>                          ****END OF INPUT****
================================================================================

                       ****************************
                       * Single Point Calculation *
                       ****************************

---------------------------------
CARTESIAN COORDINATES (ANGSTROEM)
---------------------------------
  Rn     0.000000    0.000000    0.000000

----------------------------
CARTESIAN COORDINATES (A.U.)
----------------------------
  NO LB      ZA    FRAG     MASS         X           Y           Z
   0 Rn   26.0000*   0   222.000    0.000000    0.000000    0.000000
* core charge reduced due to ECP

--------------------------------
INTERNAL COORDINATES (ANGSTROEM)
--------------------------------
 Rn     0   0   0     0.000000000000     0.00000000     0.00000000

---------------------------
INTERNAL COORDINATES (A.U.)
---------------------------
 Rn     0   0   0     0.000000000000     0.00000000     0.00000000

---------------------
BASIS SET INFORMATION
---------------------
There are 1 groups of distinct atoms

 Group   1 Type Rn  : 11s10p8d2f contracted to 6s5p3d2f pattern {521111/34111/611/11}

Atom   0Rn   basis set group =>   1
-------------------------
ECP PARAMETER INFORMATION
-------------------------

 Group 1, Type Rn ECP Def2-ECP (replacing 60 core electrons, lmax=3)

Atom   0Rn   ECP group =>   1



           ************************************************************
           *        Program running with 24 parallel MPI-processes    *
           *              working on a common directory               *
           ************************************************************
------------------------------------------------------------------------------
                           ORCA GTO INTEGRAL CALCULATION
------------------------------------------------------------------------------

                         BASIS SET STATISTICS AND STARTUP INFO

 # of primitive gaussian shells          ...   31
 # of primitive gaussian functions       ...   95
 # of contracted shells                  ...   16
 # of contracted basis functions         ...   50
 Highest angular momentum                ...    3
 Maximum contraction depth               ...    6
 Integral package used                   ... LIBINT
 Integral threshhold            Thresh   ...  2.500e-11
 Primitive cut-off              TCut     ...  2.500e-12


------------------------------ INTEGRAL EVALUATION ----------------------------


 * One electron integrals 

   ECP integrals                         ... done
 Pre-screening matrix                    ... done
 Shell pair data                         ... done (   0.000 sec)



           ************************************************************
           *        Program running with 24 parallel MPI-processes    *
           *              working on a common directory               *
           ************************************************************
-------------------------------------------------------------------------------
                                 ORCA SCF
-------------------------------------------------------------------------------

------------
SCF SETTINGS
------------
Hamiltonian:
 Ab initio Hamiltonian  Method          .... Hartree-Fock(GTOs)


General Settings:
 Integral files         IntName         .... 86_Rn
 Hartree-Fock type      HFTyp           .... RHF
 Total Charge           Charge          ....    0
 Multiplicity           Mult            ....    1
 Number of Electrons    NEL             ....   26
 Basis Dimension        Dim             ....   50
 Nuclear Repulsion      ENuc            ....      0.0000000000 Eh

Convergence Acceleration:
 DIIS                   CNVDIIS         .... on
   Start iteration      DIISMaxIt       ....    12
   Startup error        DIISStart       ....  0.200000
   # of expansion vecs  DIISMaxEq       ....     5
   Bias factor          DIISBfac        ....   1.050
   Max. coefficient     DIISMaxC        ....  10.000
 Newton-Raphson         CNVNR           .... off
 SOSCF                  CNVSOSCF        .... on
   Start iteration      SOSCFMaxIt      ....   150
   Startup grad/error   SOSCFStart      ....  0.003300
 Level Shifting         CNVShift        .... on
   Level shift para.    LevelShift      ....    0.2500
   Turn off err/grad.   ShiftErr        ....    0.0010
 Zerner damping         CNVZerner       .... off
 Static damping         CNVDamp         .... on
   Fraction old density DampFac         ....    0.7000
   Max. Damping (<1)    DampMax         ....    0.9800
   Min. Damping (>=0)   DampMin         ....    0.0000
   Turn off err/grad.   DampErr         ....    0.1000
 Fernandez-Rico         CNVRico         .... off

SCF Procedure:
 Maximum # iterations   MaxIter         ....   125
 SCF integral mode      SCFMode         .... Direct
   Integral package                     .... LIBINT
 Reset frequency        DirectResetFreq ....    20
 Integral Threshold     Thresh          ....  2.500e-11 Eh
 Primitive CutOff       TCut            ....  2.500e-12 Eh

Convergence Tolerance:
 Convergence Check Mode ConvCheckMode   .... Total+1el-Energy
 Convergence forced     ConvForced      .... 1
 Energy Change          TolE            ....  1.000e-08 Eh
 1-El. energy change                    ....  1.000e-05 Eh
 Orbital Gradient       TolG            ....  1.000e-05
 Orbital Rotation angle TolX            ....  1.000e-05
 DIIS Error             TolErr          ....  5.000e-07


Diagonalization of the overlap matrix:
Smallest eigenvalue                        ... 5.845e-03
Time for diagonalization                   ...    0.002 sec
Threshold for overlap eigenvalues          ... 1.000e-08
Number of eigenvalues below threshold      ... 0
Time for construction of square roots      ...    0.011 sec
Total time needed                          ...    0.013 sec

-------------------
DFT GRID GENERATION
-------------------

General Integration Accuracy     IntAcc      ...  4.340
Radial Grid Type                 RadialGrid  ... Gauss-Chebyshev
Angular Grid (max. acc.)         AngularGrid ... Lebedev-110
Angular grid pruning method      GridPruning ... 3 (G Style)
Weight generation scheme         WeightScheme... Becke
Basis function cutoff            BFCut       ...    1.0000e-11
Integration weight cutoff        WCut        ...    1.0000e-14
Grids for H and He will be reduced by one unit

# of grid points (after initial pruning)     ...   3552 (   0.0 sec)
# of grid points (after weights+screening)   ...   3552 (   0.0 sec)
Grid point division into batches done        ...    0.0 sec
Reduced shell lists constructed in    0.0 sec

Total number of grid points                  ...     3552
Total number of batches                      ...       56
Average number of points per batch           ...       63
Average number of grid points per atom       ...     3552
Average number of shells per batch           ...     2.00 (12.50%)
Average number of basis functions per batch  ...     5.00 (10.00%)
Average number of large shells per batch     ...     0.75 (37.50%)
Average number of large basis fcns per batch ...     2.25 (45.00%)
Maximum spatial batch extension              ...  24.96, 38.92, 38.92 au
Average spatial batch extension              ...   1.30,  1.85,  2.08 au

Time for grid setup =    0.067 sec

------------------------------
INITIAL GUESS: MODEL POTENTIAL
------------------------------
Loading Hartree-Fock densities                     ... done
  calling /sw/apps/orca/orca_4_2_0_linux_x86-64_openmpi314/orca 86_Rn_atom86.inp > 86_Rn_atom86.out in order to generate an atomic fitting density for atom 0 (Rn with ECP) on-the-fly... 
    atom 0 (Rn), assumed electronic state with S=1: 1s2 2s2 2p6 3s2 3p6 4s2 3d10 4p6 5s2 4d10 5p6 6s2 4f14 5d10 6p6           ... done
Calculating cut-offs                               ... done
Setting up the integral package                    ... done
Initializing the effective Hamiltonian             ... done
Starting the Coulomb interaction                   ... done (   0.0 sec)
Reading the grid                                   ... done
Mapping shells                                     ... done
Starting the XC term evaluation                    ... done (   0.0 sec)
Transforming the Hamiltonian                       ... done (   0.0 sec)
Diagonalizing the Hamiltonian                      ... done (   0.0 sec)
Back transforming the eigenvectors                 ... done (   0.0 sec)
Now organizing SCF variables                       ... done
                      ------------------
                      INITIAL GUESS DONE (   1.1 sec)
                      ------------------
--------------
SCF ITERATIONS
--------------
ITER       Energy         Delta-E        Max-DP      RMS-DP      [F,P]     Damp
               ***  Starting incremental Fock matrix formation  ***
  0   -264.5576806293   0.000000000000 4.83444434  0.13712466  3.6917660 0.7000
  1   -272.7158213659  -8.158140736586 3.18122923  0.08610527  1.9910595 0.7000
  2   -276.9922488170  -4.276427451103 2.03345884  0.05656498  1.2083134 0.7000
  3   -279.9262669187  -2.934018101747 1.31400217  0.03926882  0.7913029 0.7000
  4   -282.0709340644  -2.144667145728 0.87307236  0.02789118  0.5393787 0.7000
  5   -283.6372965167  -1.566362452264 0.59593289  0.01995508  0.3743567 0.7000
  6   -284.7699400747  -1.132643557993 0.41517180  0.01430915  0.2617298 0.7000
                               ***Turning on DIIS***
  7   -285.5818158217  -0.811875747013 0.29352698  0.01027486  0.1834686 0.7000
  8   -285.7953560090  -0.213540187266 0.21588259  0.00760950  0.1286976 0.7000
  9   -286.1356089319  -0.340252922905 0.53296549  0.01859888  0.0903248 0.0000
 10   -287.5430374448  -1.407428512948 0.02305360  0.00098602  0.0030932 0.0000
                      *** Initiating the SOSCF procedure ***
                           *** Shutting down DIIS ***
                      *** Re-Reading the Fockian *** 
                      *** Removing any level shift *** 
ITER      Energy       Delta-E        Grad      Rot      Max-DP    RMS-DP
 11   -287.53951127   0.0035261771  0.001846  0.001846  0.009775  0.000358
               *** Restarting incremental Fock matrix formation ***
 12   -287.54297721  -0.0034659396  0.000605  0.000442  0.003718  0.000150
 13   -287.54297899  -0.0000017835  0.000137  0.000131  0.001169  0.000042
 14   -287.54297908  -0.0000000911  0.000021  0.000012  0.000113  0.000004
 15   -287.54297908  -0.0000000017  0.000004  0.000003  0.000020  0.000001
                 **** Energy Check signals convergence ****
              ***Rediagonalizing the Fockian in SOSCF/NRSCF***

               *****************************************************
               *                     SUCCESS                       *
               *           SCF CONVERGED AFTER  16 CYCLES          *
               *****************************************************


----------------
TOTAL SCF ENERGY
----------------

Total Energy       :         -287.54297908 Eh           -7824.44225 eV

Components:
Nuclear Repulsion  :            0.00000000 Eh               0.00000 eV
Electronic Energy  :         -287.54297908 Eh           -7824.44225 eV
One Electron Energy:         -499.63370055 Eh          -13595.72419 eV
Two Electron Energy:          212.09072146 Eh            5771.28194 eV

Virial components:
Potential Energy   :         -377.61221798 Eh          -10275.35084 eV
Kinetic Energy     :           90.06923890 Eh            2450.90859 eV
Virial Ratio       :            4.19246596


---------------
SCF CONVERGENCE
---------------

  Last Energy change         ...   -1.3495e-10  Tolerance :   1.0000e-08
  Last MAX-Density change    ...    1.6781e-06  Tolerance :   1.0000e-07
  Last RMS-Density change    ...    6.2600e-08  Tolerance :   5.0000e-09
  Last Orbital Gradient      ...    2.7024e-07  Tolerance :   1.0000e-05
  Last Orbital Rotation      ...    2.0736e-07  Tolerance :   1.0000e-05

             **** THE GBW FILE WAS UPDATED (86_Rn.gbw) ****
             **** DENSITY FILE WAS UPDATED (86_Rn.scfp) ****
             **** ENERGY FILE WAS UPDATED (86_Rn.en.tmp) ****
             **** THE GBW FILE WAS UPDATED (86_Rn.gbw) ****
             **** DENSITY FILE WAS UPDATED (86_Rn.scfp) ****
----------------
ORBITAL ENERGIES
----------------

  NO   OCC          E(Eh)            E(eV) 
   0   2.0000      -8.326066      -226.5638 
   1   2.0000      -5.537068      -150.6713 
   2   2.0000      -5.537068      -150.6713 
   3   2.0000      -5.537068      -150.6713 
   4   2.0000      -2.087303       -56.7984 
   5   2.0000      -2.087303       -56.7984 
   6   2.0000      -2.087303       -56.7984 
   7   2.0000      -2.087303       -56.7984 
   8   2.0000      -2.087303       -56.7984 
   9   2.0000      -1.070456       -29.1286 
  10   2.0000      -0.427297       -11.6273 
  11   2.0000      -0.427297       -11.6273 
  12   2.0000      -0.427297       -11.6273 
  13   0.0000       0.280881         7.6432 
  14   0.0000       0.280881         7.6432 
  15   0.0000       0.280881         7.6432 
  16   0.0000       0.404283        11.0011 
  17   0.0000       0.404283        11.0011 
  18   0.0000       0.404283        11.0011 
  19   0.0000       0.404283        11.0011 
  20   0.0000       0.404283        11.0011 
  21   0.0000       0.449096        12.2205 
  22   0.0000       0.898970        24.4622 
  23   0.0000       0.898970        24.4622 
  24   0.0000       0.898970        24.4622 
  25   0.0000       0.898970        24.4622 
  26   0.0000       0.898970        24.4622 
  27   0.0000       0.898970        24.4622 
  28   0.0000       0.898970        24.4622 
  29   0.0000       1.490069        40.5468 
  30   0.0000       1.490069        40.5468 
  31   0.0000       1.490069        40.5468 
  32   0.0000       1.748372        47.5756 
  33   0.0000       1.748372        47.5756 
  34   0.0000       1.748372        47.5756 
  35   0.0000       1.748372        47.5756 
  36   0.0000       1.748372        47.5756 
  37   0.0000       3.237589        88.0993 
  38   0.0000       3.237589        88.0993 
  39   0.0000       3.237589        88.0993 
  40   0.0000       3.237589        88.0993 
  41   0.0000       3.237589        88.0993 
  42   0.0000       3.237589        88.0993 
  43   0.0000       3.237589        88.0993 
  44   0.0000       3.954964       107.6201 
  45   0.0000      30.523110       830.5760 
  46   0.0000      30.523110       830.5760 
  47   0.0000      30.523110       830.5760 
  48   0.0000      37.748941      1027.2009 
  49   0.0000     119.837749      3260.9509 

                    ********************************
                    * MULLIKEN POPULATION ANALYSIS *
                    ********************************

-----------------------
MULLIKEN ATOMIC CHARGES
-----------------------
   0 Rn:    0.000000
Sum of atomic charges:    0.0000000

--------------------------------
MULLIKEN REDUCED ORBITAL CHARGES
--------------------------------
  0 Rns       :     4.000000  s :     4.000000
      pz      :     4.000000  p :    12.000000
      px      :     4.000000
      py      :     4.000000
      dz2     :     2.000000  d :    10.000000
      dxz     :     2.000000
      dyz     :     2.000000
      dx2y2   :     2.000000
      dxy     :     2.000000
      f0      :     0.000000  f :     0.000000
      f+1     :     0.000000
      f-1     :     0.000000
      f+2     :     0.000000
      f-2     :     0.000000
      f+3     :     0.000000
      f-3     :     0.000000


                     *******************************
                     * LOEWDIN POPULATION ANALYSIS *
                     *******************************

----------------------
LOEWDIN ATOMIC CHARGES
----------------------
   0 Rn:    0.000000

-------------------------------
LOEWDIN REDUCED ORBITAL CHARGES
-------------------------------
  0 Rns       :     4.000000  s :     4.000000
      pz      :     4.000000  p :    12.000000
      px      :     4.000000
      py      :     4.000000
      dz2     :     2.000000  d :    10.000000
      dxz     :     2.000000
      dyz     :     2.000000
      dx2y2   :     2.000000
      dxy     :     2.000000
      f0      :     0.000000  f :     0.000000
      f+1     :     0.000000
      f-1     :     0.000000
      f+2     :     0.000000
      f-2     :     0.000000
      f+3     :     0.000000
      f-3     :     0.000000


                      *****************************
                      * MAYER POPULATION ANALYSIS *
                      *****************************

  NA   - Mulliken gross atomic population
  ZA   - Total nuclear charge
  QA   - Mulliken gross atomic charge
  VA   - Mayer's total valence
  BVA  - Mayer's bonded valence
  FA   - Mayer's free valence

  ATOM       NA         ZA         QA         VA         BVA        FA
  0 Rn    26.0000    26.0000     0.0000     0.0000     0.0000     0.0000

  Mayer bond orders larger than 0.100000


--------------------------
ATOM BASIS FOR ELEMENT Rn
--------------------------
 NewGTO Rn
 S 11
    1       5187.744246800000         0.000145566647
    2        768.144912070000         0.000950265749
    3        159.351820650000         0.002475581353
    4         21.863432724000        -0.497784238974
    5         18.388689978000         0.708266047820
    6         24.816226448000         0.071670527845
    7          7.292330167700        -0.947629338777
    8          2.085043716600         0.961160269207
    9          1.091524594500         0.468665416936
   10          0.349157084300         0.017600117871
   11          0.136484229500        -0.002185498048
 S 11
    1       5187.744246800000         0.000065311980
    2        768.144912070000         0.000426359599
    3        159.351820650000         0.001110729154
    4         21.863432724000        -0.223342879057
    5         18.388689978000         0.317780608289
    6         24.816226448000         0.038342241535
    7          7.292330167700        -0.506961984037
    8          2.085043716600         0.816211787326
    9          1.091524594500         0.346267021820
   10          0.349157084300        -0.885638068712
   11          0.136484229500        -0.464477034915
 S 11
    1       5187.744246800000         0.000037123603
    2        768.144912070000         0.000242344584
    3        159.351820650000         0.000631343109
    4         21.863432724000        -0.126949028952
    5         18.388689978000         0.180627830234
    6         24.816226448000         0.024186072984
    7          7.292330167700        -0.319788803549
    8          2.085043716600         0.289856740633
    9          1.091524594500         1.133515348639
   10          0.349157084300        -3.059885919771
   11          0.136484229500         2.277542578860
 S 11
    1       5187.744246800000         0.000228646774
    2        768.144912070000         0.001492616629
    3        159.351820650000         0.003888484769
    4         21.863432724000        -0.781887627780
    5         18.388689978000         1.112498983712
    6         24.816226448000         0.137400867477
    7          7.292330167700        -1.816717374758
    8          2.085043716600         6.445363552829
    9          1.091524594500        -7.289036619340
   10          0.349157084300         3.496398610898
   11          0.136484229500        -1.221170649918
 S 11
    1       5187.744246800000         0.001735923019
    2        768.144912070000         0.011332185073
    3        159.351820650000         0.029522000633
    4         21.863432724000        -5.936216397019
    5         18.388689978000         8.446270888735
    6         24.816226448000         0.398103063168
    7          7.292330167700        -5.263727697511
    8          2.085043716600         4.604014523590
    9          1.091524594500        -3.382537948773
   10          0.349157084300         1.088459120693
   11          0.136484229500        -0.349760164190
 S 11
    1       5187.744246800000         0.001661829239
    2        768.144912070000         0.010848497477
    3        159.351820650000         0.028261923656
    4         21.863432724000        -5.682842999031
    5         18.388689978000         8.085761734035
    6         24.816226448000         0.187015511608
    7          7.292330167700        -2.472723320644
    8          2.085043716600         1.463746056409
    9          1.091524594500        -1.002990893970
   10          0.349157084300         0.311769250364
   11          0.136484229500        -0.100058872249
 P 10
    1        194.689187230000        -0.000372167222
    2         11.210013525000        -0.282709463292
    3          7.529831648900         0.651707969675
    4          9.084500030400         0.191620752672
    5          6.263148971700        -0.329804060792
    6          2.254519373400        -0.688910299160
    7          1.118066691800        -0.427045252058
    8          0.474444925900        -0.047634988107
    9          0.201723546200         0.001456843650
   10          0.079503144400        -0.000638720955
 P 10
    1        194.689187230000        -0.000156725247
    2         11.210013525000        -0.119053231322
    3          7.529831648900         0.274444083918
    4          9.084500030400         0.097364610485
    5          6.263148971700        -0.167577068077
    6          2.254519373400        -0.350042894634
    7          1.118066691800        -0.216986386112
    8          0.474444925900         0.356282189548
    9          0.201723546200         0.601541602530
   10          0.079503144400         0.261706803790
 P 10
    1        194.689187230000        -0.000076610777
    2         11.210013525000        -0.058195860461
    3          7.529831648900         0.134154356287
    4          9.084500030400         0.047658096012
    5          6.263148971700        -0.082025737689
    6          2.254519373400        -0.171339235043
    7          1.118066691800        -0.106210644413
    8          0.474444925900        -0.080096878996
    9          0.201723546200         1.472866368360
   10          0.079503144400        -1.628323700677
 P 10
    1        194.689187230000        -0.000302367441
    2         11.210013525000        -0.229687440933
    3          7.529831648900         0.529480456887
    4          9.084500030400         0.203911539952
    5          6.263148971700        -0.350958092904
    6          2.254519373400        -0.733097840563
    7          1.118066691800        -0.454436452015
    8          0.474444925900         2.777897832141
    9          0.201723546200        -2.758295047553
   10          0.079503144400         0.991451750396
 P 10
    1        194.689187230000        -0.001447007395
    2         11.210013525000        -1.099190523183
    3          7.529831648900         2.533877769095
    4          9.084500030400         0.181911718584
    5          6.263148971700        -0.313093559325
    6          2.254519373400        -0.654004614442
    7          1.118066691800        -0.405407737063
    8          0.474444925900         0.799422798489
    9          0.201723546200        -0.522465177726
   10          0.079503144400         0.170880613790
 D 8
    1         75.302723665000        -0.000735872219
    2         17.965913830000        -0.008948715673
    3          7.374129803300         0.076638520407
    4          3.229625857800        -0.229744623133
    5          1.793784050800        -0.439896910935
    6          0.946333197300        -0.352579491118
    7          0.468604822200        -0.129410809095
    8          0.200000000000        -0.014884091819
 D 8
    1         75.302723665000        -0.000214988015
    2         17.965913830000        -0.002614403116
    3          7.374129803300         0.022390250615
    4          3.229625857800        -0.067120811599
    5          1.793784050800        -0.128517643979
    6          0.946333197300        -0.103007510140
    7          0.468604822200        -0.159560784189
    8          0.200000000000         1.123653229085
 D 8
    1         75.302723665000        -0.000758835470
    2         17.965913830000        -0.009227964714
    3          7.374129803300         0.079030062854
    4          3.229625857800        -0.236913916268
    5          1.793784050800        -0.453624108816
    6          0.946333197300        -0.363581906282
    7          0.468604822200         1.900957401465
    8          0.200000000000        -1.110636070698
 F 2
    1          0.418060000000         0.902621902018
    2          2.100000000000         0.253413571323
 F 2
    1          0.418060000000        -0.510458826723
    2          2.100000000000         1.005522786242
 end
  // -----------------------------------------------
  // The basis set
  // -----------------------------------------------
  BAS[ATNO] = new BFNGauss[NSH];
  // Basis function   1 L = s
  InitBFNGauss(BAS[ATNO][  0]);
  BAS[ATNO][  0].l  = 0;
  BAS[ATNO][  0].ng = 11;
  BAS[ATNO][  0].a[  0] =      5187.744246800000;     BAS[ATNO][  0].d[  0] =         0.000145566647;
  BAS[ATNO][  0].a[  1] =       768.144912070000;     BAS[ATNO][  0].d[  1] =         0.000950265749;
  BAS[ATNO][  0].a[  2] =       159.351820650000;     BAS[ATNO][  0].d[  2] =         0.002475581353;
  BAS[ATNO][  0].a[  3] =        21.863432724000;     BAS[ATNO][  0].d[  3] =        -0.497784238974;
  BAS[ATNO][  0].a[  4] =        18.388689978000;     BAS[ATNO][  0].d[  4] =         0.708266047820;
  BAS[ATNO][  0].a[  5] =        24.816226448000;     BAS[ATNO][  0].d[  5] =         0.071670527845;
  BAS[ATNO][  0].a[  6] =         7.292330167700;     BAS[ATNO][  0].d[  6] =        -0.947629338777;
  BAS[ATNO][  0].a[  7] =         2.085043716600;     BAS[ATNO][  0].d[  7] =         0.961160269207;
  BAS[ATNO][  0].a[  8] =         1.091524594500;     BAS[ATNO][  0].d[  8] =         0.468665416936;
  BAS[ATNO][  0].a[  9] =         0.349157084300;     BAS[ATNO][  0].d[  9] =         0.017600117871;
  BAS[ATNO][  0].a[ 10] =         0.136484229500;     BAS[ATNO][  0].d[ 10] =        -0.002185498048;

  // Basis function   2 L = s
  InitBFNGauss(BAS[ATNO][  1]);
  BAS[ATNO][  1].l  = 0;
  BAS[ATNO][  1].ng = 11;
  BAS[ATNO][  1].a[  0] =      5187.744246800000;     BAS[ATNO][  1].d[  0] =        -0.000065311980;
  BAS[ATNO][  1].a[  1] =       768.144912070000;     BAS[ATNO][  1].d[  1] =        -0.000426359599;
  BAS[ATNO][  1].a[  2] =       159.351820650000;     BAS[ATNO][  1].d[  2] =        -0.001110729154;
  BAS[ATNO][  1].a[  3] =        21.863432724000;     BAS[ATNO][  1].d[  3] =         0.223342879057;
  BAS[ATNO][  1].a[  4] =        18.388689978000;     BAS[ATNO][  1].d[  4] =        -0.317780608289;
  BAS[ATNO][  1].a[  5] =        24.816226448000;     BAS[ATNO][  1].d[  5] =        -0.038342241535;
  BAS[ATNO][  1].a[  6] =         7.292330167700;     BAS[ATNO][  1].d[  6] =         0.506961984037;
  BAS[ATNO][  1].a[  7] =         2.085043716600;     BAS[ATNO][  1].d[  7] =        -0.816211787326;
  BAS[ATNO][  1].a[  8] =         1.091524594500;     BAS[ATNO][  1].d[  8] =        -0.346267021820;
  BAS[ATNO][  1].a[  9] =         0.349157084300;     BAS[ATNO][  1].d[  9] =         0.885638068712;
  BAS[ATNO][  1].a[ 10] =         0.136484229500;     BAS[ATNO][  1].d[ 10] =         0.464477034915;

  // Basis function   3 L = s
  InitBFNGauss(BAS[ATNO][  2]);
  BAS[ATNO][  2].l  = 0;
  BAS[ATNO][  2].ng = 11;
  BAS[ATNO][  2].a[  0] =      5187.744246800000;     BAS[ATNO][  2].d[  0] =        -0.000037123603;
  BAS[ATNO][  2].a[  1] =       768.144912070000;     BAS[ATNO][  2].d[  1] =        -0.000242344584;
  BAS[ATNO][  2].a[  2] =       159.351820650000;     BAS[ATNO][  2].d[  2] =        -0.000631343109;
  BAS[ATNO][  2].a[  3] =        21.863432724000;     BAS[ATNO][  2].d[  3] =         0.126949028952;
  BAS[ATNO][  2].a[  4] =        18.388689978000;     BAS[ATNO][  2].d[  4] =        -0.180627830234;
  BAS[ATNO][  2].a[  5] =        24.816226448000;     BAS[ATNO][  2].d[  5] =        -0.024186072984;
  BAS[ATNO][  2].a[  6] =         7.292330167700;     BAS[ATNO][  2].d[  6] =         0.319788803549;
  BAS[ATNO][  2].a[  7] =         2.085043716600;     BAS[ATNO][  2].d[  7] =        -0.289856740633;
  BAS[ATNO][  2].a[  8] =         1.091524594500;     BAS[ATNO][  2].d[  8] =        -1.133515348639;
  BAS[ATNO][  2].a[  9] =         0.349157084300;     BAS[ATNO][  2].d[  9] =         3.059885919771;
  BAS[ATNO][  2].a[ 10] =         0.136484229500;     BAS[ATNO][  2].d[ 10] =        -2.277542578860;

  // Basis function   4 L = s
  InitBFNGauss(BAS[ATNO][  3]);
  BAS[ATNO][  3].l  = 0;
  BAS[ATNO][  3].ng = 11;
  BAS[ATNO][  3].a[  0] =      5187.744246800000;     BAS[ATNO][  3].d[  0] =        -0.000228646774;
  BAS[ATNO][  3].a[  1] =       768.144912070000;     BAS[ATNO][  3].d[  1] =        -0.001492616629;
  BAS[ATNO][  3].a[  2] =       159.351820650000;     BAS[ATNO][  3].d[  2] =        -0.003888484769;
  BAS[ATNO][  3].a[  3] =        21.863432724000;     BAS[ATNO][  3].d[  3] =         0.781887627780;
  BAS[ATNO][  3].a[  4] =        18.388689978000;     BAS[ATNO][  3].d[  4] =        -1.112498983712;
  BAS[ATNO][  3].a[  5] =        24.816226448000;     BAS[ATNO][  3].d[  5] =        -0.137400867477;
  BAS[ATNO][  3].a[  6] =         7.292330167700;     BAS[ATNO][  3].d[  6] =         1.816717374758;
  BAS[ATNO][  3].a[  7] =         2.085043716600;     BAS[ATNO][  3].d[  7] =        -6.445363552829;
  BAS[ATNO][  3].a[  8] =         1.091524594500;     BAS[ATNO][  3].d[  8] =         7.289036619340;
  BAS[ATNO][  3].a[  9] =         0.349157084300;     BAS[ATNO][  3].d[  9] =        -3.496398610898;
  BAS[ATNO][  3].a[ 10] =         0.136484229500;     BAS[ATNO][  3].d[ 10] =         1.221170649918;

  // Basis function   5 L = s
  InitBFNGauss(BAS[ATNO][  4]);
  BAS[ATNO][  4].l  = 0;
  BAS[ATNO][  4].ng = 11;
  BAS[ATNO][  4].a[  0] =      5187.744246800000;     BAS[ATNO][  4].d[  0] =         0.001735923019;
  BAS[ATNO][  4].a[  1] =       768.144912070000;     BAS[ATNO][  4].d[  1] =         0.011332185073;
  BAS[ATNO][  4].a[  2] =       159.351820650000;     BAS[ATNO][  4].d[  2] =         0.029522000633;
  BAS[ATNO][  4].a[  3] =        21.863432724000;     BAS[ATNO][  4].d[  3] =        -5.936216397019;
  BAS[ATNO][  4].a[  4] =        18.388689978000;     BAS[ATNO][  4].d[  4] =         8.446270888735;
  BAS[ATNO][  4].a[  5] =        24.816226448000;     BAS[ATNO][  4].d[  5] =         0.398103063168;
  BAS[ATNO][  4].a[  6] =         7.292330167700;     BAS[ATNO][  4].d[  6] =        -5.263727697511;
  BAS[ATNO][  4].a[  7] =         2.085043716600;     BAS[ATNO][  4].d[  7] =         4.604014523590;
  BAS[ATNO][  4].a[  8] =         1.091524594500;     BAS[ATNO][  4].d[  8] =        -3.382537948773;
  BAS[ATNO][  4].a[  9] =         0.349157084300;     BAS[ATNO][  4].d[  9] =         1.088459120693;
  BAS[ATNO][  4].a[ 10] =         0.136484229500;     BAS[ATNO][  4].d[ 10] =        -0.349760164190;

  // Basis function   6 L = s
  InitBFNGauss(BAS[ATNO][  5]);
  BAS[ATNO][  5].l  = 0;
  BAS[ATNO][  5].ng = 11;
  BAS[ATNO][  5].a[  0] =      5187.744246800000;     BAS[ATNO][  5].d[  0] =         0.001661829239;
  BAS[ATNO][  5].a[  1] =       768.144912070000;     BAS[ATNO][  5].d[  1] =         0.010848497477;
  BAS[ATNO][  5].a[  2] =       159.351820650000;     BAS[ATNO][  5].d[  2] =         0.028261923656;
  BAS[ATNO][  5].a[  3] =        21.863432724000;     BAS[ATNO][  5].d[  3] =        -5.682842999031;
  BAS[ATNO][  5].a[  4] =        18.388689978000;     BAS[ATNO][  5].d[  4] =         8.085761734035;
  BAS[ATNO][  5].a[  5] =        24.816226448000;     BAS[ATNO][  5].d[  5] =         0.187015511608;
  BAS[ATNO][  5].a[  6] =         7.292330167700;     BAS[ATNO][  5].d[  6] =        -2.472723320644;
  BAS[ATNO][  5].a[  7] =         2.085043716600;     BAS[ATNO][  5].d[  7] =         1.463746056409;
  BAS[ATNO][  5].a[  8] =         1.091524594500;     BAS[ATNO][  5].d[  8] =        -1.002990893970;
  BAS[ATNO][  5].a[  9] =         0.349157084300;     BAS[ATNO][  5].d[  9] =         0.311769250364;
  BAS[ATNO][  5].a[ 10] =         0.136484229500;     BAS[ATNO][  5].d[ 10] =        -0.100058872249;

  // Basis function   7 L = p
  InitBFNGauss(BAS[ATNO][  6]);
  BAS[ATNO][  6].l  = 1;
  BAS[ATNO][  6].ng = 10;
  BAS[ATNO][  6].a[  0] =       194.689187230000;     BAS[ATNO][  6].d[  0] =         0.000372167222;
  BAS[ATNO][  6].a[  1] =        11.210013525000;     BAS[ATNO][  6].d[  1] =         0.282709463292;
  BAS[ATNO][  6].a[  2] =         7.529831648900;     BAS[ATNO][  6].d[  2] =        -0.651707969675;
  BAS[ATNO][  6].a[  3] =         9.084500030400;     BAS[ATNO][  6].d[  3] =        -0.191620752672;
  BAS[ATNO][  6].a[  4] =         6.263148971700;     BAS[ATNO][  6].d[  4] =         0.329804060792;
  BAS[ATNO][  6].a[  5] =         2.254519373400;     BAS[ATNO][  6].d[  5] =         0.688910299160;
  BAS[ATNO][  6].a[  6] =         1.118066691800;     BAS[ATNO][  6].d[  6] =         0.427045252058;
  BAS[ATNO][  6].a[  7] =         0.474444925900;     BAS[ATNO][  6].d[  7] =         0.047634988107;
  BAS[ATNO][  6].a[  8] =         0.201723546200;     BAS[ATNO][  6].d[  8] =        -0.001456843650;
  BAS[ATNO][  6].a[  9] =         0.079503144400;     BAS[ATNO][  6].d[  9] =         0.000638720955;

  // Basis function   8 L = p
  InitBFNGauss(BAS[ATNO][  7]);
  BAS[ATNO][  7].l  = 1;
  BAS[ATNO][  7].ng = 10;
  BAS[ATNO][  7].a[  0] =       194.689187230000;     BAS[ATNO][  7].d[  0] =        -0.000156725247;
  BAS[ATNO][  7].a[  1] =        11.210013525000;     BAS[ATNO][  7].d[  1] =        -0.119053231322;
  BAS[ATNO][  7].a[  2] =         7.529831648900;     BAS[ATNO][  7].d[  2] =         0.274444083918;
  BAS[ATNO][  7].a[  3] =         9.084500030400;     BAS[ATNO][  7].d[  3] =         0.097364610485;
  BAS[ATNO][  7].a[  4] =         6.263148971700;     BAS[ATNO][  7].d[  4] =        -0.167577068077;
  BAS[ATNO][  7].a[  5] =         2.254519373400;     BAS[ATNO][  7].d[  5] =        -0.350042894634;
  BAS[ATNO][  7].a[  6] =         1.118066691800;     BAS[ATNO][  7].d[  6] =        -0.216986386112;
  BAS[ATNO][  7].a[  7] =         0.474444925900;     BAS[ATNO][  7].d[  7] =         0.356282189548;
  BAS[ATNO][  7].a[  8] =         0.201723546200;     BAS[ATNO][  7].d[  8] =         0.601541602530;
  BAS[ATNO][  7].a[  9] =         0.079503144400;     BAS[ATNO][  7].d[  9] =         0.261706803790;

  // Basis function   9 L = p
  InitBFNGauss(BAS[ATNO][  8]);
  BAS[ATNO][  8].l  = 1;
  BAS[ATNO][  8].ng = 10;
  BAS[ATNO][  8].a[  0] =       194.689187230000;     BAS[ATNO][  8].d[  0] =         0.000076610777;
  BAS[ATNO][  8].a[  1] =        11.210013525000;     BAS[ATNO][  8].d[  1] =         0.058195860461;
  BAS[ATNO][  8].a[  2] =         7.529831648900;     BAS[ATNO][  8].d[  2] =        -0.134154356287;
  BAS[ATNO][  8].a[  3] =         9.084500030400;     BAS[ATNO][  8].d[  3] =        -0.047658096012;
  BAS[ATNO][  8].a[  4] =         6.263148971700;     BAS[ATNO][  8].d[  4] =         0.082025737689;
  BAS[ATNO][  8].a[  5] =         2.254519373400;     BAS[ATNO][  8].d[  5] =         0.171339235043;
  BAS[ATNO][  8].a[  6] =         1.118066691800;     BAS[ATNO][  8].d[  6] =         0.106210644413;
  BAS[ATNO][  8].a[  7] =         0.474444925900;     BAS[ATNO][  8].d[  7] =         0.080096878996;
  BAS[ATNO][  8].a[  8] =         0.201723546200;     BAS[ATNO][  8].d[  8] =        -1.472866368360;
  BAS[ATNO][  8].a[  9] =         0.079503144400;     BAS[ATNO][  8].d[  9] =         1.628323700677;

  // Basis function  10 L = p
  InitBFNGauss(BAS[ATNO][  9]);
  BAS[ATNO][  9].l  = 1;
  BAS[ATNO][  9].ng = 10;
  BAS[ATNO][  9].a[  0] =       194.689187230000;     BAS[ATNO][  9].d[  0] =        -0.000302367441;
  BAS[ATNO][  9].a[  1] =        11.210013525000;     BAS[ATNO][  9].d[  1] =        -0.229687440933;
  BAS[ATNO][  9].a[  2] =         7.529831648900;     BAS[ATNO][  9].d[  2] =         0.529480456887;
  BAS[ATNO][  9].a[  3] =         9.084500030400;     BAS[ATNO][  9].d[  3] =         0.203911539952;
  BAS[ATNO][  9].a[  4] =         6.263148971700;     BAS[ATNO][  9].d[  4] =        -0.350958092904;
  BAS[ATNO][  9].a[  5] =         2.254519373400;     BAS[ATNO][  9].d[  5] =        -0.733097840563;
  BAS[ATNO][  9].a[  6] =         1.118066691800;     BAS[ATNO][  9].d[  6] =        -0.454436452015;
  BAS[ATNO][  9].a[  7] =         0.474444925900;     BAS[ATNO][  9].d[  7] =         2.777897832141;
  BAS[ATNO][  9].a[  8] =         0.201723546200;     BAS[ATNO][  9].d[  8] =        -2.758295047553;
  BAS[ATNO][  9].a[  9] =         0.079503144400;     BAS[ATNO][  9].d[  9] =         0.991451750396;

  // Basis function  11 L = p
  InitBFNGauss(BAS[ATNO][ 10]);
  BAS[ATNO][ 10].l  = 1;
  BAS[ATNO][ 10].ng = 10;
  BAS[ATNO][ 10].a[  0] =       194.689187230000;     BAS[ATNO][ 10].d[  0] =        -0.001447007395;
  BAS[ATNO][ 10].a[  1] =        11.210013525000;     BAS[ATNO][ 10].d[  1] =        -1.099190523183;
  BAS[ATNO][ 10].a[  2] =         7.529831648900;     BAS[ATNO][ 10].d[  2] =         2.533877769095;
  BAS[ATNO][ 10].a[  3] =         9.084500030400;     BAS[ATNO][ 10].d[  3] =         0.181911718584;
  BAS[ATNO][ 10].a[  4] =         6.263148971700;     BAS[ATNO][ 10].d[  4] =        -0.313093559325;
  BAS[ATNO][ 10].a[  5] =         2.254519373400;     BAS[ATNO][ 10].d[  5] =        -0.654004614442;
  BAS[ATNO][ 10].a[  6] =         1.118066691800;     BAS[ATNO][ 10].d[  6] =        -0.405407737063;
  BAS[ATNO][ 10].a[  7] =         0.474444925900;     BAS[ATNO][ 10].d[  7] =         0.799422798489;
  BAS[ATNO][ 10].a[  8] =         0.201723546200;     BAS[ATNO][ 10].d[  8] =        -0.522465177726;
  BAS[ATNO][ 10].a[  9] =         0.079503144400;     BAS[ATNO][ 10].d[  9] =         0.170880613790;

  // Basis function  12 L = d
  InitBFNGauss(BAS[ATNO][ 11]);
  BAS[ATNO][ 11].l  = 2;
  BAS[ATNO][ 11].ng = 8;
  BAS[ATNO][ 11].a[  0] =        75.302723665000;     BAS[ATNO][ 11].d[  0] =         0.000735872219;
  BAS[ATNO][ 11].a[  1] =        17.965913830000;     BAS[ATNO][ 11].d[  1] =         0.008948715673;
  BAS[ATNO][ 11].a[  2] =         7.374129803300;     BAS[ATNO][ 11].d[  2] =        -0.076638520407;
  BAS[ATNO][ 11].a[  3] =         3.229625857800;     BAS[ATNO][ 11].d[  3] =         0.229744623133;
  BAS[ATNO][ 11].a[  4] =         1.793784050800;     BAS[ATNO][ 11].d[  4] =         0.439896910935;
  BAS[ATNO][ 11].a[  5] =         0.946333197300;     BAS[ATNO][ 11].d[  5] =         0.352579491118;
  BAS[ATNO][ 11].a[  6] =         0.468604822200;     BAS[ATNO][ 11].d[  6] =         0.129410809095;
  BAS[ATNO][ 11].a[  7] =         0.200000000000;     BAS[ATNO][ 11].d[  7] =         0.014884091819;

  // Basis function  13 L = d
  InitBFNGauss(BAS[ATNO][ 12]);
  BAS[ATNO][ 12].l  = 2;
  BAS[ATNO][ 12].ng = 8;
  BAS[ATNO][ 12].a[  0] =        75.302723665000;     BAS[ATNO][ 12].d[  0] =        -0.000214988015;
  BAS[ATNO][ 12].a[  1] =        17.965913830000;     BAS[ATNO][ 12].d[  1] =        -0.002614403116;
  BAS[ATNO][ 12].a[  2] =         7.374129803300;     BAS[ATNO][ 12].d[  2] =         0.022390250615;
  BAS[ATNO][ 12].a[  3] =         3.229625857800;     BAS[ATNO][ 12].d[  3] =        -0.067120811599;
  BAS[ATNO][ 12].a[  4] =         1.793784050800;     BAS[ATNO][ 12].d[  4] =        -0.128517643979;
  BAS[ATNO][ 12].a[  5] =         0.946333197300;     BAS[ATNO][ 12].d[  5] =        -0.103007510140;
  BAS[ATNO][ 12].a[  6] =         0.468604822200;     BAS[ATNO][ 12].d[  6] =        -0.159560784189;
  BAS[ATNO][ 12].a[  7] =         0.200000000000;     BAS[ATNO][ 12].d[  7] =         1.123653229085;

  // Basis function  14 L = d
  InitBFNGauss(BAS[ATNO][ 13]);
  BAS[ATNO][ 13].l  = 2;
  BAS[ATNO][ 13].ng = 8;
  BAS[ATNO][ 13].a[  0] =        75.302723665000;     BAS[ATNO][ 13].d[  0] =        -0.000758835470;
  BAS[ATNO][ 13].a[  1] =        17.965913830000;     BAS[ATNO][ 13].d[  1] =        -0.009227964714;
  BAS[ATNO][ 13].a[  2] =         7.374129803300;     BAS[ATNO][ 13].d[  2] =         0.079030062854;
  BAS[ATNO][ 13].a[  3] =         3.229625857800;     BAS[ATNO][ 13].d[  3] =        -0.236913916268;
  BAS[ATNO][ 13].a[  4] =         1.793784050800;     BAS[ATNO][ 13].d[  4] =        -0.453624108816;
  BAS[ATNO][ 13].a[  5] =         0.946333197300;     BAS[ATNO][ 13].d[  5] =        -0.363581906282;
  BAS[ATNO][ 13].a[  6] =         0.468604822200;     BAS[ATNO][ 13].d[  6] =         1.900957401465;
  BAS[ATNO][ 13].a[  7] =         0.200000000000;     BAS[ATNO][ 13].d[  7] =        -1.110636070698;

  // Basis function  15 L = f
  InitBFNGauss(BAS[ATNO][ 14]);
  BAS[ATNO][ 14].l  = 3;
  BAS[ATNO][ 14].ng = 2;
  BAS[ATNO][ 14].a[  0] =         0.418060000000;     BAS[ATNO][ 14].d[  0] =         0.902621902018;
  BAS[ATNO][ 14].a[  1] =         2.100000000000;     BAS[ATNO][ 14].d[  1] =         0.253413571323;

  // Basis function  16 L = f
  InitBFNGauss(BAS[ATNO][ 15]);
  BAS[ATNO][ 15].l  = 3;
  BAS[ATNO][ 15].ng = 2;
  BAS[ATNO][ 15].a[  0] =         0.418060000000;     BAS[ATNO][ 15].d[  0] =        -0.510458826723;
  BAS[ATNO][ 15].a[  1] =         2.100000000000;     BAS[ATNO][ 15].d[  1] =         1.005522786242;

-------------------------------------------
RADIAL EXPECTATION VALUES <R**-3> TO <R**3>
-------------------------------------------
   0 :     0.000000     2.037067     1.361806     0.796808     0.687612     0.641935
   1 :     0.000000     0.503552     0.616670     1.921819     4.162709     9.992171
   2 :     0.000000     0.273003     0.421131     3.001704    10.167681    36.985976
   3 :     0.000000     1.278660     0.924729     1.561690     3.414284     9.737604
   4 :     0.000000    10.292414     2.396035     0.558809     0.520853     0.952852
   5 :     0.000000    72.896778     6.537639     0.214263     0.079740     0.087622
   6 :     2.421381     1.634797     1.221691     0.893300     0.869570     0.921871
   7 :     2.421381     1.634797     1.221691     0.893300     0.869570     0.921871
   8 :     2.421381     1.634797     1.221691     0.893300     0.869570     0.921871
   9 :     0.311890     0.314847     0.485117     2.467374     6.956328    22.103072
  10 :     0.311890     0.314847     0.485117     2.467374     6.956328    22.103072
  11 :     0.311890     0.314847     0.485117     2.467374     6.956328    22.103072
  12 :     0.090332     0.112165     0.271738     4.470074    21.993007   114.700776
  13 :     0.090332     0.112165     0.271738     4.470074    21.993007   114.700776
  14 :     0.090332     0.112165     0.271738     4.470074    21.993007   114.700776
  15 :     0.649146     0.501105     0.569552     2.566814     8.808088    37.441117
  16 :     0.649146     0.501105     0.569552     2.566814     8.808088    37.441117
  17 :     0.649146     0.501105     0.569552     2.566814     8.808088    37.441117
  18 :    26.884334     7.435299     2.491648     0.534295     0.532357     1.295918
  19 :    26.884334     7.435299     2.491648     0.534295     0.532357     1.295918
  20 :    26.884334     7.435299     2.491648     0.534295     0.532357     1.295918
  21 :     1.590320     1.198260     1.030909     1.088278     1.326561     9.054142
  22 :     1.590320     1.198260     1.030909     1.088278     1.326561     9.054142
  23 :     1.590320     1.198260     1.030909     1.088278     1.326561     9.054142
  24 :     1.590320     1.198260     1.030909     1.088278     1.326561     9.054142
  25 :     1.590320     1.198260     1.030909     1.088278     1.326561     9.054142
  26 :     0.137626     0.181018     0.375896     2.990311     9.580391   161.841125
  27 :     0.137626     0.181018     0.375896     2.990311     9.580391   161.841125
  28 :     0.137626     0.181018     0.375896     2.990311     9.580391   161.841125
  29 :     0.137626     0.181018     0.375896     2.990311     9.580391   161.841125
  30 :     0.137626     0.181018     0.375896     2.990311     9.580391   161.841125
  31 :     0.692737     0.550653     0.617621     2.203199     6.087787    98.674655
  32 :     0.692737     0.550653     0.617621     2.203199     6.087787    98.674655
  33 :     0.692737     0.550653     0.617621     2.203199     6.087787    98.674655
  34 :     0.692737     0.550653     0.617621     2.203199     6.087787    98.674655
  35 :     0.692737     0.550653     0.617621     2.203199     6.087787    98.674655
  36 :     0.285316     0.358786     0.551261     2.060478     4.670001    79.682894
  37 :     0.285316     0.358786     0.551261     2.060478     4.670001    79.682894
  38 :     0.285316     0.358786     0.551261     2.060478     4.670001    79.682894
  39 :     0.285316     0.358786     0.551261     2.060478     4.670001    79.682894
  40 :     0.285316     0.358786     0.551261     2.060478     4.670001    79.682894
  41 :     0.285316     0.358786     0.551261     2.060478     4.670001    79.682894
  42 :     0.285316     0.358786     0.551261     2.060478     4.670001    79.682894
  43 :     1.344008     1.080105     0.969398     1.252707     2.000222    28.185797
  44 :     1.344008     1.080105     0.969398     1.252707     2.000222    28.185797
  45 :     1.344008     1.080105     0.969398     1.252707     2.000222    28.185797
  46 :     1.344008     1.080105     0.969398     1.252707     2.000222    28.185797
  47 :     1.344008     1.080105     0.969398     1.252707     2.000222    28.185797
  48 :     1.344008     1.080105     0.969398     1.252707     2.000222    28.185797
  49 :     1.344008     1.080105     0.969398     1.252707     2.000222    28.185797
-------
TIMINGS
-------

Total SCF time: 0 days 0 hours 0 min 3 sec 

Total time                  ....       3.987 sec
Sum of individual times     ....       3.494 sec  ( 87.6%)

Fock matrix formation       ....       2.170 sec  ( 54.4%)
Diagonalization             ....       0.057 sec  (  1.4%)
Density matrix formation    ....       0.004 sec  (  0.1%)
Population analysis         ....       0.025 sec  (  0.6%)
Initial guess               ....       1.067 sec  ( 26.8%)
Orbital Transformation      ....       0.000 sec  (  0.0%)
Orbital Orthonormalization  ....       0.000 sec  (  0.0%)
DIIS solution               ....       0.061 sec  (  1.5%)
SOSCF solution              ....       0.042 sec  (  1.1%)


           ************************************************************
           *        Program running with 24 parallel MPI-processes    *
           *              working on a common directory               *
           ************************************************************


------------------------------------------------------------------------------- 
                              ORCA-MATRIX DRIVEN CI                            
------------------------------------------------------------------------------- 

--------------------------------
AUTOMATIC CHOICE OF INCORE LEVEL
--------------------------------

Memory available                           ...   2500.00 MB
Memory needed for S+T                      ...      1.41 MB
Memory needed for J+K                      ...      2.85 MB
Memory needed for DIIS                     ...     19.74 MB
Memory needed for 3-ext                    ...      3.48 MB
Memory needed for 4-ext                    ...      7.34 MB
Memory needed for triples                  ...      1.93 MB
 -> Final InCoreLevel    ... 5
 -> check shows that triples correction can be computed


Wavefunction type
-----------------
Correlation treatment                      ...      CCSD     
Single excitations                         ... ON
Orbital optimization                       ... OFF
Calculation of Z vector                    ... OFF
Calculation of Brueckner orbitals          ... OFF
Perturbative triple excitations            ... ON
Calculation of F12 correction              ... OFF
Frozen core treatment                      ... chemical core (8 el)
Reference Wavefunction                     ... RHF
  Internal Orbitals:     4 ...   12 (  9 MO's/ 18 electrons)
  Virtual  Orbitals:    13 ...   49 ( 37 MO's              )
Number of AO's                             ...     50
Number of electrons                        ...     26
Number of correlated electrons             ...     18

Algorithmic settings
--------------------
Integral transformation                    ... AO direct full transformation
K(C) Formation                             ... FULL-MO TRAFO
Maximum number of iterations               ...        50
Convergence tolerance (max. residuum)      ... 1.000e-05
Level shift for amplitude update           ... 2.000e-01
Maximum number of DIIS vectors             ...         7
DIIS turned on at iteration                ...         0
Damping before turning on DIIS             ...     0.500
Damping after turning on DIIS              ...     0.000
Pair specific amplitude update             ... OFF
Natural orbital iterations                 ... OFF
Perturbative natural orbital generation    ... OFF
Printlevel                                 ... 2

Memory handling:
----------------
Maximum memory for working arrays          ...   2500 MB
Data storage in matrix containers          ... UNCOMPRESSED
Data type for integral storage             ... DOUBLE
In-Core Storage of quantities:
   Amplitudes+Sigma Vector      ... YES
   J+K operators                ... YES
   DIIS vectors                 ... YES
   3-external integrals         ... YES
   4-external integrals         ... YES


Initializing the integral package          ... done
Warning: reference  - re-canonicalizations have been set to INT 1 VIRT 1

--------------------------
CLOSED-SHELL FOCK OPERATOR
--------------------------

<ss|ss>:          231 b            0 skpd (  0.0%)    0.000 s ( 0.000 ms/b)
<ss|sp>:          630 b            0 skpd (  0.0%)    0.000 s ( 0.000 ms/b)
<ss|sd>:          378 b            0 skpd (  0.0%)    0.000 s ( 0.001 ms/b)
<ss|sf>:          252 b            0 skpd (  0.0%)    0.000 s ( 0.000 ms/b)
<ss|pp>:          315 b            0 skpd (  0.0%)    0.000 s ( 0.000 ms/b)
<ss|pd>:          315 b            0 skpd (  0.0%)    0.000 s ( 0.001 ms/b)
<ss|pf>:          210 b            0 skpd (  0.0%)    0.000 s ( 0.000 ms/b)
<ss|dd>:          126 b            0 skpd (  0.0%)    0.001 s ( 0.004 ms/b)
<ss|df>:          126 b            0 skpd (  0.0%)    0.000 s ( 0.002 ms/b)
<ss|ff>:           63 b            0 skpd (  0.0%)    0.000 s ( 0.002 ms/b)
<sp|sp>:          465 b            0 skpd (  0.0%)    0.000 s ( 0.000 ms/b)
<sp|sd>:          540 b            0 skpd (  0.0%)    0.000 s ( 0.001 ms/b)
<sp|sf>:          360 b            0 skpd (  0.0%)    0.000 s ( 0.000 ms/b)
<sp|pp>:          450 b            0 skpd (  0.0%)    0.000 s ( 0.001 ms/b)
<sp|pd>:          450 b            0 skpd (  0.0%)    0.001 s ( 0.001 ms/b)
<sp|pf>:          300 b            0 skpd (  0.0%)    0.000 s ( 0.001 ms/b)
<sp|dd>:          180 b            0 skpd (  0.0%)    0.002 s ( 0.008 ms/b)
<sp|df>:          180 b           26 skpd ( 14.4%)    0.001 s ( 0.004 ms/b)
<sp|ff>:           90 b            5 skpd (  5.6%)    0.000 s ( 0.004 ms/b)
<sd|sd>:          171 b            0 skpd (  0.0%)    0.000 s ( 0.002 ms/b)
<sd|sf>:          216 b            0 skpd (  0.0%)    0.000 s ( 0.001 ms/b)
<sd|pp>:          270 b            0 skpd (  0.0%)    0.000 s ( 0.002 ms/b)
<sd|pd>:          270 b            0 skpd (  0.0%)    0.001 s ( 0.004 ms/b)
<sd|pf>:          180 b           78 skpd ( 43.3%)    0.000 s ( 0.003 ms/b)
<sd|dd>:          108 b            0 skpd (  0.0%)    0.003 s ( 0.026 ms/b)
<sd|df>:          108 b            0 skpd (  0.0%)    0.002 s ( 0.014 ms/b)
<sd|ff>:           54 b           32 skpd ( 59.3%)    0.000 s ( 0.008 ms/b)
<sf|sf>:           78 b            0 skpd (  0.0%)    0.000 s ( 0.001 ms/b)
<sf|pp>:          180 b            0 skpd (  0.0%)    0.000 s ( 0.002 ms/b)
<sf|pd>:          180 b           73 skpd ( 40.6%)    0.000 s ( 0.004 ms/b)
<sf|pf>:          120 b           49 skpd ( 40.8%)    0.000 s ( 0.002 ms/b)
<sf|dd>:           72 b            0 skpd (  0.0%)    0.002 s ( 0.023 ms/b)
<sf|df>:           72 b           62 skpd ( 86.1%)    0.000 s ( 0.013 ms/b)
<sf|ff>: done
<pp|pp>:          120 b            0 skpd (  0.0%)    0.000 s ( 0.002 ms/b)
<pp|pd>:          225 b            0 skpd (  0.0%)    0.001 s ( 0.004 ms/b)
<pp|pf>:          150 b            0 skpd (  0.0%)    0.000 s ( 0.003 ms/b)
<pp|dd>:           90 b            0 skpd (  0.0%)    0.002 s ( 0.025 ms/b)
<pp|df>:           90 b            0 skpd (  0.0%)    0.001 s ( 0.014 ms/b)
<pp|ff>:           45 b            0 skpd (  0.0%)    0.001 s ( 0.013 ms/b)
<pd|pd>:          120 b            0 skpd (  0.0%)    0.002 s ( 0.019 ms/b)
<pd|pf>:          150 b            0 skpd (  0.0%)    0.001 s ( 0.008 ms/b)
<pd|dd>:           90 b            0 skpd (  0.0%)    0.006 s ( 0.070 ms/b)
<pd|df>:           90 b            0 skpd (  0.0%)    0.002 s ( 0.025 ms/b)
<pd|ff>:           45 b            3 skpd (  6.7%)    0.002 s ( 0.049 ms/b)
<pf|pf>:           55 b            0 skpd (  0.0%)    0.001 s ( 0.010 ms/b)
<pf|dd>:           60 b            0 skpd (  0.0%)    0.003 s ( 0.053 ms/b)
<pf|df>:           60 b            9 skpd ( 15.0%)    0.001 s ( 0.021 ms/b)
<pf|ff>:           30 b            3 skpd ( 10.0%)    0.001 s ( 0.051 ms/b)
<dd|dd>:           21 b            0 skpd (  0.0%)    0.008 s ( 0.381 ms/b)
<dd|df>:           36 b            0 skpd (  0.0%)    0.003 s ( 0.079 ms/b)
<dd|ff>:           18 b            0 skpd (  0.0%)    0.001 s ( 0.058 ms/b)
<df|df>:           21 b            0 skpd (  0.0%)    0.002 s ( 0.089 ms/b)
<df|ff>: done
<ff|ff>: done
Recanonicalizing the internal orbitals
Recanonicalizing the virtual orbitals
Time needed for Fock operator              ...            0.082 sec
Reference energy                           ...   -287.542979084

------------------------------
PARTIAL COULOMB TRANSFORMATION
------------------------------

Transformation type                        ... one-operator
Dimension of the basis                     ...   50
Number of internal MOs                     ...   46 (4-49)
Pair cutoff                                ... 0.000e+00 Eh
Number of AO pairs included in the trafo   ... 1275
Total Number of distinct AO pairs          ... 1275
Memory devoted for trafo                   ... 2500.0 MB 
Max. Number of MO pairs treated together   ... 257003      
Max. Number of MOs treated per batch       ... 5140      
Number Format for Storage                  ... Double (8 Byte)
AO-integral source                         ... DIRECT
Integral package used                      ... LIBINT

Starting integral evaluation:
<ss|**>:         2856 b        0 skpd     0.015 s (  0.005 ms/b)
<sp|**>: <sd|**>:         4080 b        0 skpd     0.009 s (  0.002 ms/b)
<sf|**>:         2448 b        0 skpd     0.011 s (  0.004 ms/b)
        1632 b        0 skpd     0.010 s (  0.006 ms/b)
<pp|**>: <pd|**>:         2040 b        0 skpd     0.012 s (  0.006 ms/b)
        2040 b        0 skpd     0.026 s (  0.013 ms/b)
<pf|**>:         1360 b        0 skpd     0.022 s (  0.016 ms/b)
<dd|**>:          816 b        0 skpd     0.039 s (  0.047 ms/b)
<df|**>:          816 b        0 skpd     0.034 s (  0.041 ms/b)
<ff|**>:          408 b        0 skpd     0.030 s (  0.073 ms/b)
Closing buffer AOJ ( 0.00 GB; CompressionRatio= 1.00)
Collecting buffer AOJ 
    ... done with AO integral generation
Number of MO pairs included in the trafo   ... 1081
    ... Now sorting integrals
IBATCH = 1 of  1
Closing buffer JAO ( 0.00 GB; CompressionRatio= 1.00)
Collecting buffer JAO 
TOTAL TIME for half transformation         ...     0.419 sec
AO-integral generation                     ...     0.160 sec
Half transformation                        ...     0.050 sec
J-integral sorting                         ...     0.182 sec

-------------------------- SECOND HALF TRANSFORMATION -------------------------
Formation of (pq|rs)                       ... ok (     0.211 sec)
Integral sorting                           ... ok (     0.148 sec)

------------------
CLOSED SHELL GUESS
------------------

Initial guess performed in     0.003 sec
E(0)                                       ...   -287.542979084
E(MP2)                                     ...     -0.540636861
Initial E(tot)                             ...   -288.083615945
<T|T>                                      ...      0.114780750
Number of pairs included                   ... 45
Total number of pairs                      ... 45

------------------------------------------------
                  RHF COUPLED CLUSTER ITERATIONS
------------------------------------------------

Number of amplitudes to be optimized       ... 61938

Iter       E(tot)           E(Corr)          Delta-E          Residual     Time
  0   -288.083615945     -0.540636861      0.000000000      0.021064037    0.03
                           *** Turning on DIIS ***
  1   -288.027373934     -0.484394850      0.056242011      0.003354450    0.07
  2   -288.037905666     -0.494926582     -0.010531731      0.001606198    0.07
  3   -288.038886764     -0.495907680     -0.000981098      0.000423317    0.08
  4   -288.039006294     -0.496027210     -0.000119530      0.000158606    0.08
  5   -288.039017750     -0.496038666     -0.000011456      0.000032296    0.09
  6   -288.039018666     -0.496039582     -0.000000916      0.000006565    0.08
               --- The Coupled-Cluster iterations have converged ---

----------------------
COUPLED CLUSTER ENERGY
----------------------

E(0)                                       ...   -287.542979084
E(CORR)                                    ...     -0.496039582
E(TOT)                                     ...   -288.039018666
Singles Norm <S|S>**1/2                    ...      0.014741803  
T1 diagnostic                              ...      0.003474676  

------------------
LARGEST AMPLITUDES
------------------
  12-> 16  12-> 16       0.040750
  10-> 17  10-> 17       0.033828
  10-> 20  10-> 20       0.031848
  12-> 18  12-> 18       0.031845
  12-> 19  12-> 19       0.031844
  11-> 20  11-> 20       0.031843
  11-> 18  11-> 18       0.031533
  10-> 19  10-> 19       0.031531
  11-> 17  11-> 17       0.029697
  12-> 13  12-> 13       0.021244
  11-> 14  11-> 14       0.021217
  10-> 15  10-> 15       0.021214
  12-> 19  10-> 17       0.020614
  12-> 19  11-> 20       0.020392
  12-> 18  10-> 20       0.020387
  11-> 18  10-> 19       0.020151


        !!!!!!!!!!!!!!!!!!!!!!!!!!!!!!!!!!!!!!!!!!!!!!!!!!!!!!!!!!!!!!!!!!!!!!!!!! 
        !  Warning: Densities are linearized densities !                         !
        !!!!!!!!!!!!!!!!!!!!!!!!!!!!!!!!!!!!!!!!!!!!!!!!!!!!!!!!!!!!!!!!!!!!!!!!!! 

Trace of internal density part =     -0.211246452
Trace of external density part =      0.211246452
----------------------
RHF TRIPLES CORRECTION (Algorithm 1)
----------------------

Multiplier for the singles contribution    ...      1.000000000

10% done
20% done
30% done
40% done
50% done
60% done
70% done
80% done

Triples Correction (T)                     ...     -0.008427945
Scaling of triples based on CCSD energies (Peterson et al. Molecular Physics 113, 1551 (2015))
E(T*) = f*E(T) where f = E(F12-CCSD)/E(CCSD) 
f = CCSD (with F12)/ CCSD (without F12)    ...      1.000000000
Scaled triples correction (T)              ...     -0.008427945

Final correlation energy                   ...     -0.504467527
E(CCSD)                                    ...   -288.039018666
E(CCSD(T))                                 ...   -288.047446611

NORM  =      1.105840547 sqrt=     1.051589533
W(HF) =      0.904289505
------------------------------------------------------------------------------
                           ORCA POPULATION ANALYSIS
------------------------------------------------------------------------------
Input electron density              ... 86_Rn.mdcip
BaseName (.gbw .S,...)              ... 86_Rn

                    ********************************
                    * MULLIKEN POPULATION ANALYSIS *
                    ********************************

-----------------------
MULLIKEN ATOMIC CHARGES
-----------------------
   0 Rn:    0.000000
Sum of atomic charges:    0.0000000

--------------------------------
MULLIKEN REDUCED ORBITAL CHARGES
--------------------------------
  0 Rns       :     3.990860  s :     3.990860
      pz      :     3.968784  p :    11.906351
      px      :     3.968784
      py      :     3.968784
      dz2     :     2.004285  d :    10.021423
      dxz     :     2.004285
      dyz     :     2.004285
      dx2y2   :     2.004285
      dxy     :     2.004285
      f0      :     0.011624  f :     0.081366
      f+1     :     0.011624
      f-1     :     0.011624
      f+2     :     0.011624
      f-2     :     0.011624
      f+3     :     0.011624
      f-3     :     0.011624


                     *******************************
                     * LOEWDIN POPULATION ANALYSIS *
                     *******************************

----------------------
LOEWDIN ATOMIC CHARGES
----------------------
   0 Rn:    0.000000

-------------------------------
LOEWDIN REDUCED ORBITAL CHARGES
-------------------------------
  0 Rns       :     3.990860  s :     3.990860
      pz      :     3.968784  p :    11.906351
      px      :     3.968784
      py      :     3.968784
      dz2     :     2.004285  d :    10.021423
      dxz     :     2.004285
      dyz     :     2.004285
      dx2y2   :     2.004285
      dxy     :     2.004285
      f0      :     0.011624  f :     0.081366
      f+1     :     0.011624
      f-1     :     0.011624
      f+2     :     0.011624
      f-2     :     0.011624
      f+3     :     0.011624
      f-3     :     0.011624


                      *****************************
                      * MAYER POPULATION ANALYSIS *
                      *****************************

  NA   - Mulliken gross atomic population
  ZA   - Total nuclear charge
  QA   - Mulliken gross atomic charge
  VA   - Mayer's total valence
  BVA  - Mayer's bonded valence
  FA   - Mayer's free valence

  ATOM       NA         ZA         QA         VA         BVA        FA
  0 Rn    26.0000    26.0000     0.0000     0.8347     0.0000     0.8347





------------------------------------------------------------------------------- 
                                     TIMINGS                                   
------------------------------------------------------------------------------- 


Total execution time                   ...        1.573 sec

Fock Matrix Formation                  ...        0.082 sec (  5.2%)
Initial Guess                          ...        0.003 sec (  0.2%)
DIIS Solver                            ...        0.020 sec (  1.2%)
State Vector Update                    ...        0.001 sec (  0.1%)
Sigma-vector construction              ...        0.482 sec ( 30.6%)
  <D|H|D>(0-ext)                       ...        0.002 sec (  0.4% of sigma)
  <D|H|D>(2-ext)                       ...        0.005 sec (  0.9% of sigma)
  <D|H|D>(4-ext)                       ...        0.044 sec (  9.2% of sigma)
  <D|H|D>(4-ext-corr)                  ...        0.015 sec (  3.0% of sigma)
  <S|H|0>                              ...        0.002 sec (  0.3% of sigma)
  <S|H|D>(1-ext)                       ...        0.002 sec (  0.3% of sigma)
  <D|H|S>(1-ext)                       ...        0.001 sec (  0.3% of sigma)
  <S|H|D>(3-ext)                       ...        0.041 sec (  8.6% of sigma)
  Fock-dressing                        ...        0.271 sec ( 56.3% of sigma)
  (ik|jl)-dressing                     ...        0.003 sec (  0.6% of sigma)
  (ij|ab),(ia|jb)-dressing             ...        0.067 sec ( 14.0% of sigma)
Total Time for computing (T)           ...        0.013 sec (  0.8% of ALL)
  I/O of integral and amplitudes       ...        0.006 sec ( 45.1% of (T))
  N**6 sorting step                    ...        0.002 sec ( 13.4% of (T))
  External N**7 contributions          ...        0.003 sec ( 21.5% of (T))
  N**6 triples energy contributions    ...        0.002 sec ( 12.8% of (T))


-------------------------   --------------------
FINAL SINGLE POINT ENERGY      -288.047446611049
-------------------------   --------------------


                            ***************************************
                            *     ORCA property calculations      *
                            ***************************************

                                    ---------------------
                                    Active property flags
                                    ---------------------
   (+) Dipole Moment


------------------------------------------------------------------------------
                       ORCA ELECTRIC PROPERTIES CALCULATION
------------------------------------------------------------------------------

Dipole Moment Calculation                       ... on
Quadrupole Moment Calculation                   ... off
Polarizability Calculation                      ... off
GBWName                                         ... 86_Rn.gbw
Electron density file                           ... 86_Rn.scfp
The origin for moment calculation is the CENTER OF MASS  = ( 0.000000,  0.000000  0.000000)

-------------
DIPOLE MOMENT
-------------
                                X             Y             Z
Electronic contribution:     -0.00000      -0.00000      -0.00000
Nuclear contribution   :      0.00000       0.00000       0.00000
                        -----------------------------------------
Total Dipole Moment    :     -0.00000      -0.00000      -0.00000
                        -----------------------------------------
Magnitude (a.u.)       :      0.00000
Magnitude (Debye)      :      0.00000



--------------------
Rotational spectrum 
--------------------
 
Rotational constants in cm-1:     0.000000     0.000000     0.000000 
Rotational constants in MHz :     0.000000     0.000000     0.000000 

 Dipole components along the rotational axes: 
x,y,z [a.u.] :    -0.000000    -0.000000    -0.000000 
x,y,z [Debye]:    -0.000000    -0.000000    -0.000000 

 

                           *** MDCI DENSITY ***

------------------------------------------------------------------------------
                       ORCA ELECTRIC PROPERTIES CALCULATION
------------------------------------------------------------------------------

Dipole Moment Calculation                       ... on
Quadrupole Moment Calculation                   ... off
Polarizability Calculation                      ... off
GBWName                                         ... 86_Rn.gbw
Electron density file                           ... 86_Rn.mdcip
The origin for moment calculation is the CENTER OF MASS  = ( 0.000000,  0.000000  0.000000)

-------------
DIPOLE MOMENT
-------------
                                X             Y             Z
Electronic contribution:      0.00000      -0.00000       0.00000
Nuclear contribution   :      0.00000       0.00000       0.00000
                        -----------------------------------------
Total Dipole Moment    :      0.00000      -0.00000       0.00000
                        -----------------------------------------
Magnitude (a.u.)       :      0.00000
Magnitude (Debye)      :      0.00000



--------------------
Rotational spectrum 
--------------------
 
Rotational constants in cm-1:     0.000000     0.000000     0.000000 
Rotational constants in MHz :     0.000000     0.000000     0.000000 

 Dipole components along the rotational axes: 
x,y,z [a.u.] :     0.000000    -0.000000     0.000000 
x,y,z [Debye]:     0.000000    -0.000000     0.000000 

 

Timings for individual modules:

Sum of individual times         ...        7.163 sec (=   0.119 min)
GTO integral calculation        ...        0.874 sec (=   0.015 min)  12.2 %
SCF iterations                  ...        4.350 sec (=   0.073 min)  60.7 %
MDCI module                     ...        1.939 sec (=   0.032 min)  27.1 %
                             ****ORCA TERMINATED NORMALLY****
TOTAL RUN TIME: 0 days 0 hours 0 minutes 7 seconds 912 msec
