
                                 *****************
                                 * O   R   C   A *
                                 *****************

           --- An Ab Initio, DFT and Semiempirical electronic structure package ---

                  #######################################################
                  #                        -***-                        #
                  #          Department of theory and spectroscopy      #
                  #               Directorship: Frank Neese             #
                  #        Max Planck Institute fuer Kohlenforschung    #
                  #                Kaiser Wilhelm Platz 1               #
                  #                 D-45470 Muelheim/Ruhr               #
                  #                      Germany                        #
                  #                                                     #
                  #                  All rights reserved                #
                  #                        -***-                        #
                  #######################################################


                         Program Version 4.2.0 -  RELEASE  -


 With contributions from (in alphabetic order):
   Daniel Aravena         : Magnetic Suceptibility
   Michael Atanasov       : Ab Initio Ligand Field Theory (pilot matlab implementation)
   Alexander A. Auer      : GIAO ZORA, VPT2
   Ute Becker             : Parallelization
   Giovanni Bistoni       : ED, misc. LED, open-shell LED, HFLED
   Martin Brehm           : Molecular dynamics
   Dmytro Bykov           : SCF Hessian
   Vijay G. Chilkuri      : MRCI spin determinant printing, contributions to CSF-ICE
   Dipayan Datta          : RHF DLPNO-CCSD density
   Achintya Kumar Dutta   : EOM-CC, STEOM-CC
   Dmitry Ganyushin       : Spin-Orbit,Spin-Spin,Magnetic field MRCI
   Miquel Garcia          : C-PCM Hessian, Gaussian charge scheme
   Yang Guo               : DLPNO-NEVPT2, CIM, IAO-localization
   Andreas Hansen         : Spin unrestricted coupled pair/coupled cluster methods
   Benjamin Helmich-Paris : CASSCF linear response (MC-RPA)
   Lee Huntington         : MR-EOM, pCC
   Robert Izsak           : Overlap fitted RIJCOSX, COSX-SCS-MP3, EOM
   Christian Kollmar      : KDIIS, OOCD, Brueckner-CCSD(T), CCSD density
   Simone Kossmann        : Meta GGA functionals, TD-DFT gradient, OOMP2, MP2 Hessian
   Martin Krupicka        : AUTO-CI
   Lucas Lang             : DCDCAS
   Dagmar Lenk            : GEPOL surface, SMD
   Dimitrios Liakos       : Extrapolation schemes; Compound Job, initial MDCI parallelization
   Dimitrios Manganas     : Further ROCIS development; embedding schemes
   Dimitrios Pantazis     : SARC Basis sets
   Taras Petrenko         : DFT Hessian,TD-DFT gradient, ASA, ECA, R-Raman, ABS, FL, XAS/XES, NRVS
   Peter Pinski           : DLPNO-MP2, DLPNO-MP2 Gradient
   Christoph Reimann      : Effective Core Potentials
   Marius Retegan         : Local ZFS, SOC
   Christoph Riplinger    : Optimizer, TS searches, QM/MM, DLPNO-CCSD(T), (RO)-DLPNO pert. Triples
   Tobias Risthaus        : Range-separated hybrids, TD-DFT gradient, RPA, STAB
   Michael Roemelt        : Original ROCIS implementation
   Masaaki Saitow         : Open-shell DLPNO-CCSD energy and density
   Barbara Sandhoefer     : DKH picture change effects
   Avijit Sen             : IP-ROCIS
   Kantharuban Sivalingam : CASSCF convergence, NEVPT2, FIC-MRCI
   Bernardo de Souza      : ESD, SOC TD-DFT
   Georgi Stoychev        : AutoAux, RI-MP2 NMR
   Willem Van den Heuvel  : Paramagnetic NMR
   Boris Wezisla          : Elementary symmetry handling
   Frank Wennmohs         : Technical directorship


 We gratefully acknowledge several colleagues who have allowed us to
 interface, adapt or use parts of their codes:
   Stefan Grimme, W. Hujo, H. Kruse,             : VdW corrections, initial TS optimization,
                  C. Bannwarth                     DFT functionals, gCP, sTDA/sTD-DF
   Ed Valeev, F. Pavosevic, A. Kumar             : LibInt (2-el integral package), F12 methods
   Garnet Chan, S. Sharma, J. Yang, R. Olivares  : DMRG
   Ulf Ekstrom                                   : XCFun DFT Library
   Mihaly Kallay                                 : mrcc  (arbitrary order and MRCC methods)
   Andreas Klamt, Michael Diedenhofen            : otool_cosmo (COSMO solvation model)
   Jiri Pittner, Ondrej Demel                    : Mk-CCSD
   Frank Weinhold                                : gennbo (NPA and NBO analysis)
   Christopher J. Cramer and Donald G. Truhlar   : smd solvation model
   Lars Goerigk                                  : TD-DFT with DH, B97 family of functionals
   V. Asgeirsson, H. Jonsson                     : NEB implementation
   FAccTs GmbH                                   : IRC, NEB, NEB-TS, Multilevel, MM, QM/MM, CI optimization
   S Lehtola, MJT Oliveira, MAL Marques          : LibXC Library


 Your calculation uses the libint2 library for the computation of 2-el integrals
 For citations please refer to: http://libint.valeyev.net

 Your ORCA version has been built with support for libXC version: 4.2.3
 For citations please refer to: https://tddft.org/programs/libxc/

 This ORCA versions uses:
   CBLAS   interface :  Fast vector & matrix operations
   LAPACKE interface :  Fast linear algebra routines
   SCALAPACK package :  Parallel linear algebra routines


Setting NCore(Mg) from 2 to 10
----- Orbital basis set information -----
Your calculation utilizes the basis: def2-QZVPPD
   F. Weigend and R. Ahlrichs, Phys. Chem. Chem. Phys. 7, 3297 (2005).
   D. Rappoport and F. Furche, J. Chem. Phys. 133 134105 (2010).

================================================================================
                                        WARNINGS
                       Please study these warnings very carefully!
================================================================================


WARNING: MDCI localization with Augmented Hessian Foster-Boys
  ===> : Switching off randomization!

WARNING: Post HF methods need fully converged wavefunctions
  ===> : Setting SCFConvForced true
         You can overwrite this default with %scf ConvForced false 


INFO   : the flag for use of LIBINT has been found!

================================================================================
                                       INPUT FILE
================================================================================
NAME = 12_Mg.in
|  1> #
|  2> # 12_Mg CCSD(T)/Def2-QZVPPD
|  3> #
|  4> ! CCSD(T) Def2-QZVPPD tightscf
|  5> 
|  6> *xyz 0 1
|  7>  Mg 0.0 0.0 0.0
|  8> *
|  9> 
| 10> %maxcore 5000 
| 11> 
| 12> %pal
| 13> nprocs 1
| 14> end
| 15> 
| 16> %method
| 17> NewNCore Mg 10 end
| 18> end
| 19> 
| 20> 
| 21>                          ****END OF INPUT****
================================================================================

                       ****************************
                       * Single Point Calculation *
                       ****************************

---------------------------------
CARTESIAN COORDINATES (ANGSTROEM)
---------------------------------
  Mg     0.000000    0.000000    0.000000

----------------------------
CARTESIAN COORDINATES (A.U.)
----------------------------
  NO LB      ZA    FRAG     MASS         X           Y           Z
   0 Mg   12.0000    0    24.305    0.000000    0.000000    0.000000

--------------------------------
INTERNAL COORDINATES (ANGSTROEM)
--------------------------------
 Mg     0   0   0     0.000000000000     0.00000000     0.00000000

---------------------------
INTERNAL COORDINATES (A.U.)
---------------------------
 Mg     0   0   0     0.000000000000     0.00000000     0.00000000

---------------------
BASIS SET INFORMATION
---------------------
There are 1 groups of distinct atoms

 Group   1 Type Mg  : 20s12p5d2f contracted to 9s5p5d2f pattern {1031111111/81111/11111/11}

Atom   0Mg   basis set group =>   1
------------------------------------------------------------------------------
                           ORCA GTO INTEGRAL CALCULATION
------------------------------------------------------------------------------

                         BASIS SET STATISTICS AND STARTUP INFO

 # of primitive gaussian shells          ...   39
 # of primitive gaussian functions       ...   95
 # of contracted shells                  ...   21
 # of contracted basis functions         ...   63
 Highest angular momentum                ...    3
 Maximum contraction depth               ...   10
 Integral package used                   ... LIBINT
 Integral threshhold            Thresh   ...  2.500e-11
 Primitive cut-off              TCut     ...  2.500e-12


------------------------------ INTEGRAL EVALUATION ----------------------------


 * One electron integrals 
 Pre-screening matrix                    ... done
 Shell pair data                         ... done (   0.000 sec)

-------------------------------------------------------------------------------
                                 ORCA SCF
-------------------------------------------------------------------------------

------------
SCF SETTINGS
------------
Hamiltonian:
 Ab initio Hamiltonian  Method          .... Hartree-Fock(GTOs)


General Settings:
 Integral files         IntName         .... 12_Mg
 Hartree-Fock type      HFTyp           .... RHF
 Total Charge           Charge          ....    0
 Multiplicity           Mult            ....    1
 Number of Electrons    NEL             ....   12
 Basis Dimension        Dim             ....   63
 Nuclear Repulsion      ENuc            ....      0.0000000000 Eh

Convergence Acceleration:
 DIIS                   CNVDIIS         .... on
   Start iteration      DIISMaxIt       ....    12
   Startup error        DIISStart       ....  0.200000
   # of expansion vecs  DIISMaxEq       ....     5
   Bias factor          DIISBfac        ....   1.050
   Max. coefficient     DIISMaxC        ....  10.000
 Newton-Raphson         CNVNR           .... off
 SOSCF                  CNVSOSCF        .... on
   Start iteration      SOSCFMaxIt      ....   150
   Startup grad/error   SOSCFStart      ....  0.003300
 Level Shifting         CNVShift        .... on
   Level shift para.    LevelShift      ....    0.2500
   Turn off err/grad.   ShiftErr        ....    0.0010
 Zerner damping         CNVZerner       .... off
 Static damping         CNVDamp         .... on
   Fraction old density DampFac         ....    0.7000
   Max. Damping (<1)    DampMax         ....    0.9800
   Min. Damping (>=0)   DampMin         ....    0.0000
   Turn off err/grad.   DampErr         ....    0.1000
 Fernandez-Rico         CNVRico         .... off

SCF Procedure:
 Maximum # iterations   MaxIter         ....   125
 SCF integral mode      SCFMode         .... Direct
   Integral package                     .... LIBINT
 Reset frequency        DirectResetFreq ....    20
 Integral Threshold     Thresh          ....  2.500e-11 Eh
 Primitive CutOff       TCut            ....  2.500e-12 Eh

Convergence Tolerance:
 Convergence Check Mode ConvCheckMode   .... Total+1el-Energy
 Convergence forced     ConvForced      .... 1
 Energy Change          TolE            ....  1.000e-08 Eh
 1-El. energy change                    ....  1.000e-05 Eh
 Orbital Gradient       TolG            ....  1.000e-05
 Orbital Rotation angle TolX            ....  1.000e-05
 DIIS Error             TolErr          ....  5.000e-07


Diagonalization of the overlap matrix:
Smallest eigenvalue                        ... 4.223e-03
Time for diagonalization                   ...    0.002 sec
Threshold for overlap eigenvalues          ... 1.000e-08
Number of eigenvalues below threshold      ... 0
Time for construction of square roots      ...    0.003 sec
Total time needed                          ...    0.005 sec

-------------------
DFT GRID GENERATION
-------------------

General Integration Accuracy     IntAcc      ...  4.340
Radial Grid Type                 RadialGrid  ... Gauss-Chebyshev
Angular Grid (max. acc.)         AngularGrid ... Lebedev-110
Angular grid pruning method      GridPruning ... 3 (G Style)
Weight generation scheme         WeightScheme... Becke
Basis function cutoff            BFCut       ...    1.0000e-11
Integration weight cutoff        WCut        ...    1.0000e-14
Grids for H and He will be reduced by one unit

# of grid points (after initial pruning)     ...   1842 (   0.0 sec)
# of grid points (after weights+screening)   ...   1842 (   0.0 sec)
Grid point division into batches done        ...    0.0 sec
Reduced shell lists constructed in    0.0 sec

Total number of grid points                  ...     1842
Total number of batches                      ...       29
Average number of points per batch           ...       63
Average number of grid points per atom       ...     1842
Average number of shells per batch           ...    16.27 (77.46%)
Average number of basis functions per batch  ...    51.00 (80.95%)
Average number of large shells per batch     ...    15.17 (93.24%)
Average number of large basis fcns per batch ...    47.03 (92.22%)
Maximum spatial batch extension              ...  21.07, 38.78, 38.78 au
Average spatial batch extension              ...   9.63, 11.36, 13.04 au

Time for grid setup =    0.014 sec

------------------------------
INITIAL GUESS: MODEL POTENTIAL
------------------------------
Loading Hartree-Fock densities                     ... done
Calculating cut-offs                               ... done
Setting up the integral package                    ... done
Initializing the effective Hamiltonian             ... done
Starting the Coulomb interaction                   ... done (   0.0 sec)
Reading the grid                                   ... done
Mapping shells                                     ... done
Starting the XC term evaluation                    ... done (   0.0 sec)
Transforming the Hamiltonian                       ... done (   0.0 sec)
Diagonalizing the Hamiltonian                      ... done (   0.0 sec)
Back transforming the eigenvectors                 ... done (   0.0 sec)
Now organizing SCF variables                       ... done
                      ------------------
                      INITIAL GUESS DONE (   0.1 sec)
                      ------------------
--------------
SCF ITERATIONS
--------------
ITER       Energy         Delta-E        Max-DP      RMS-DP      [F,P]     Damp
               ***  Starting incremental Fock matrix formation  ***
  0   -199.5994399556   0.000000000000 0.01151962  0.00061488  0.4574671 0.7000
  1   -199.6039018454  -0.004461889782 0.01096928  0.00048786  0.3205121 0.7000
                      *** Initiating the SOSCF procedure ***
                      *** Re-Reading the Fockian *** 
                      *** Removing any level shift *** 
ITER      Energy       Delta-E        Grad      Rot      Max-DP    RMS-DP
  2   -199.60700556  -0.0031037187  0.002762  0.002762  0.033106  0.001253
               *** Restarting incremental Fock matrix formation ***
  3   -199.61428444  -0.0072788752  0.005971  0.009718  0.016253  0.000680
  4   -199.61447235  -0.0001879072  0.001007  0.003988  0.010824  0.000282
  5   -199.61448761  -0.0000152669  0.000246  0.000533  0.003856  0.000072
  6   -199.61448788  -0.0000002635  0.000036  0.000078  0.001124  0.000020
                 **** Energy Check signals convergence ****
              ***Rediagonalizing the Fockian in SOSCF/NRSCF***

               *****************************************************
               *                     SUCCESS                       *
               *           SCF CONVERGED AFTER   7 CYCLES          *
               *****************************************************


----------------
TOTAL SCF ENERGY
----------------

Total Energy       :         -199.61448789 Eh           -5431.78636 eV

Components:
Nuclear Repulsion  :            0.00000000 Eh               0.00000 eV
Electronic Energy  :         -199.61448789 Eh           -5431.78636 eV
One Electron Energy:         -279.43151171 Eh           -7603.71800 eV
Two Electron Energy:           79.81702383 Eh            2171.93164 eV

Virial components:
Potential Energy   :         -399.23032662 Eh          -10863.60948 eV
Kinetic Energy     :          199.61583873 Eh            5431.82312 eV
Virial Ratio       :            1.99999323


---------------
SCF CONVERGENCE
---------------

  Last Energy change         ...   -9.7193e-09  Tolerance :   1.0000e-08
  Last MAX-Density change    ...    1.4540e-04  Tolerance :   1.0000e-07
  Last RMS-Density change    ...    2.6929e-06  Tolerance :   5.0000e-09
  Last Orbital Gradient      ...    5.8454e-06  Tolerance :   1.0000e-05
  Last Orbital Rotation      ...    1.0244e-05  Tolerance :   1.0000e-05

             **** THE GBW FILE WAS UPDATED (12_Mg.gbw) ****
             **** DENSITY FILE WAS UPDATED (12_Mg.scfp) ****
             **** ENERGY FILE WAS UPDATED (12_Mg.en.tmp) ****
             **** THE GBW FILE WAS UPDATED (12_Mg.gbw) ****
             **** DENSITY FILE WAS UPDATED (12_Mg.scfp) ****
----------------
ORBITAL ENERGIES
----------------

  NO   OCC          E(Eh)            E(eV) 
   0   2.0000     -49.031544     -1334.2161 
   1   2.0000      -3.767655      -102.5231 
   2   2.0000      -2.282162       -62.1008 
   3   2.0000      -2.282162       -62.1008 
   4   2.0000      -2.282162       -62.1008 
   5   2.0000      -0.253051        -6.8859 
   6   0.0000       0.033707         0.9172 
   7   0.0000       0.033707         0.9172 
   8   0.0000       0.033707         0.9172 
   9   0.0000       0.086832         2.3628 
  10   0.0000       0.154202         4.1960 
  11   0.0000       0.154202         4.1960 
  12   0.0000       0.154202         4.1960 
  13   0.0000       0.154785         4.2119 
  14   0.0000       0.154785         4.2119 
  15   0.0000       0.154785         4.2119 
  16   0.0000       0.154785         4.2119 
  17   0.0000       0.154785         4.2119 
  18   0.0000       0.450670        12.2634 
  19   0.0000       0.543437        14.7877 
  20   0.0000       0.543437        14.7877 
  21   0.0000       0.543437        14.7877 
  22   0.0000       0.569455        15.4957 
  23   0.0000       0.569455        15.4957 
  24   0.0000       0.569455        15.4957 
  25   0.0000       0.569455        15.4957 
  26   0.0000       0.569455        15.4957 
  27   0.0000       0.636768        17.3273 
  28   0.0000       0.636768        17.3273 
  29   0.0000       0.636768        17.3273 
  30   0.0000       0.636768        17.3273 
  31   0.0000       0.636768        17.3273 
  32   0.0000       0.636768        17.3273 
  33   0.0000       0.636768        17.3273 
  34   0.0000       1.648770        44.8653 
  35   0.0000       1.648770        44.8653 
  36   0.0000       1.648770        44.8653 
  37   0.0000       1.824028        49.6343 
  38   0.0000       1.824028        49.6343 
  39   0.0000       1.824028        49.6343 
  40   0.0000       1.824028        49.6343 
  41   0.0000       1.824028        49.6343 
  42   0.0000       2.278638        62.0049 
  43   0.0000       5.827559       158.5759 
  44   0.0000       5.827559       158.5759 
  45   0.0000       5.827559       158.5759 
  46   0.0000       5.827559       158.5759 
  47   0.0000       5.827559       158.5759 
  48   0.0000       9.376502       255.1476 
  49   0.0000      19.440137       528.9930 
  50   0.0000      19.440137       528.9930 
  51   0.0000      19.440137       528.9930 
  52   0.0000      19.440137       528.9930 
  53   0.0000      19.440137       528.9930 
  54   0.0000      19.440137       528.9930 
  55   0.0000      19.440137       528.9930 
  56   0.0000      19.831607       539.6454 
  57   0.0000      19.831607       539.6454 
  58   0.0000      19.831607       539.6454 
  59   0.0000      19.831607       539.6454 
  60   0.0000      19.831607       539.6454 
  61   0.0000      35.464280       965.0321 
  62   0.0000     198.457447      5400.3017 

                    ********************************
                    * MULLIKEN POPULATION ANALYSIS *
                    ********************************

-----------------------
MULLIKEN ATOMIC CHARGES
-----------------------
   0 Mg:    0.000000
Sum of atomic charges:    0.0000000

--------------------------------
MULLIKEN REDUCED ORBITAL CHARGES
--------------------------------
  0 Mgs       :     6.000000  s :     6.000000
      pz      :     2.000000  p :     6.000000
      px      :     2.000000
      py      :     2.000000
      dz2     :     0.000000  d :     0.000000
      dxz     :     0.000000
      dyz     :     0.000000
      dx2y2   :     0.000000
      dxy     :     0.000000
      f0      :     0.000000  f :     0.000000
      f+1     :     0.000000
      f-1     :     0.000000
      f+2     :     0.000000
      f-2     :     0.000000
      f+3     :     0.000000
      f-3     :     0.000000


                     *******************************
                     * LOEWDIN POPULATION ANALYSIS *
                     *******************************

----------------------
LOEWDIN ATOMIC CHARGES
----------------------
   0 Mg:    0.000000

-------------------------------
LOEWDIN REDUCED ORBITAL CHARGES
-------------------------------
  0 Mgs       :     6.000000  s :     6.000000
      pz      :     2.000000  p :     6.000000
      px      :     2.000000
      py      :     2.000000
      dz2     :     0.000000  d :     0.000000
      dxz     :     0.000000
      dyz     :     0.000000
      dx2y2   :     0.000000
      dxy     :     0.000000
      f0      :     0.000000  f :     0.000000
      f+1     :     0.000000
      f-1     :     0.000000
      f+2     :     0.000000
      f-2     :     0.000000
      f+3     :     0.000000
      f-3     :     0.000000


                      *****************************
                      * MAYER POPULATION ANALYSIS *
                      *****************************

  NA   - Mulliken gross atomic population
  ZA   - Total nuclear charge
  QA   - Mulliken gross atomic charge
  VA   - Mayer's total valence
  BVA  - Mayer's bonded valence
  FA   - Mayer's free valence

  ATOM       NA         ZA         QA         VA         BVA        FA
  0 Mg    12.0000    12.0000     0.0000     0.0000     0.0000     0.0000

  Mayer bond orders larger than 0.100000


--------------------------
ATOM BASIS FOR ELEMENT Mg
--------------------------
 NewGTO Mg
 S 20
    1     605967.787529999972         0.000014373285
    2      90569.094691999999         0.000112054984
    3      20574.252843999999         0.000590312179
    4       5818.628486500000         0.002489020961
    5       1895.629607500000         0.008987488792
    6        683.459410210000         0.028467195241
    7        266.182197620000         0.078752608878
    8        110.112200100000         0.181972801183
    9         47.777041234000         0.320303599712
   10         21.542166149000         0.348901013712
   11        174.121363780000         0.000091350240
   12         53.484972498000         0.000762945783
   13         20.500213307000         0.002436248633
   14          9.805682692200         0.165518109869
   15          3.540298934800         0.014687892165
   16          1.545085004600        -0.001250942724
   17          0.665401954300         0.000854780376
   18          0.143554390700        -0.000241126374
   19          0.066624673500         0.000189050514
   20          0.029772648300        -0.000060818317
 S 20
    1     605967.787529999972         0.000003685625
    2      90569.094691999999         0.000028733355
    3      20574.252843999999         0.000151368985
    4       5818.628486500000         0.000638239547
    5       1895.629607500000         0.002304589178
    6        683.459410210000         0.007299613008
    7        266.182197620000         0.020193895580
    8        110.112200100000         0.046661816007
    9         47.777041234000         0.082132865676
   10         21.542166149000         0.089465869628
   11        174.121363780000         0.003122713364
   12         53.484972498000         0.026080511718
   13         20.500213307000         0.083280637241
   14          9.805682692200         0.077376624052
   15          3.540298934800        -0.293612926295
   16          1.545085004600        -0.559240890352
   17          0.665401954300        -0.289486749141
   18          0.143554390700        -0.011858462701
   19          0.066624673500         0.005695022843
   20          0.029772648300        -0.001532185736
 S 20
    1     605967.787529999972         0.000000709526
    2      90569.094691999999         0.000005531506
    3      20574.252843999999         0.000029140295
    4       5818.628486500000         0.000122868555
    5       1895.629607500000         0.000443660291
    6        683.459410210000         0.001405260627
    7        266.182197620000         0.003887560387
    8        110.112200100000         0.008982943721
    9         47.777041234000         0.015811534423
   10         21.542166149000         0.017223223197
   11        174.121363780000         0.000658037213
   12         53.484972498000         0.005495844558
   13         20.500213307000         0.017549404013
   14          9.805682692200         0.015855586468
   15          3.540298934800        -0.066991798922
   16          1.545085004600        -0.160525815455
   17          0.665401954300        -0.192381865355
   18          0.143554390700         0.329952024339
   19          0.066624673500         0.571097930121
   20          0.029772648300         0.240930931282
 S 20
    1     605967.787529999972         0.000000331355
    2      90569.094691999999         0.000002583262
    3      20574.252843999999         0.000013608773
    4       5818.628486500000         0.000057380692
    5       1895.629607500000         0.000207193244
    6        683.459410210000         0.000656269027
    7        266.182197620000         0.001815524766
    8        110.112200100000         0.004195113431
    9         47.777041234000         0.007384125125
   10         21.542166149000         0.008043396152
   11        174.121363780000         0.000388897439
   12         53.484972498000         0.003248022800
   13         20.500213307000         0.010371629648
   14          9.805682692200         0.000094414912
   15          3.540298934800        -0.003252351440
   16          1.545085004600        -0.158075833437
   17          0.665401954300         0.037937680514
   18          0.143554390700        -0.663659416361
   19          0.066624673500         2.945211124136
   20          0.029772648300        -2.574385280206
 S 20
    1     605967.787529999972         0.000000908000
    2      90569.094691999999         0.000007078825
    3      20574.252843999999         0.000037291660
    4       5818.628486500000         0.000157238368
    5       1895.629607500000         0.000567764631
    6        683.459410210000         0.001798351796
    7        266.182197620000         0.004975021053
    8        110.112200100000         0.011495727315
    9         47.777041234000         0.020234468099
   10         21.542166149000         0.022041046176
   11        174.121363780000         0.000555784638
   12         53.484972498000         0.004641843827
   13         20.500213307000         0.014822397509
   14          9.805682692200         0.047622325397
   15          3.540298934800        -0.193498441144
   16          1.545085004600         0.095822530858
   17          0.665401954300        -0.852139667953
   18          0.143554390700         4.263060606746
   19          0.066624673500        -5.287102228408
   20          0.029772648300         1.995686994598
 S 20
    1     605967.787529999972        -0.000001859364
    2      90569.094691999999        -0.000014495710
    3      20574.252843999999        -0.000076364242
    4       5818.628486500000        -0.000321985901
    5       1895.629607500000        -0.001162643755
    6        683.459410210000        -0.003682586709
    7        266.182197620000        -0.010187632054
    8        110.112200100000        -0.023540451152
    9         47.777041234000        -0.041435265016
   10         21.542166149000        -0.045134697145
   11        174.121363780000        -0.004009354050
   12         53.484972498000        -0.033485623910
   13         20.500213307000        -0.106926740082
   14          9.805682692200         0.160580248662
   15          3.540298934800        -0.657713824041
   16          1.545085004600         3.413463568054
   17          0.665401954300        -4.133849544773
   18          0.143554390700         3.265733525309
   19          0.066624673500        -2.675773294929
   20          0.029772648300         0.855104696840
 S 20
    1     605967.787529999972        -0.000005440280
    2      90569.094691999999        -0.000042412749
    3      20574.252843999999        -0.000223432830
    4       5818.628486500000        -0.000942093045
    5       1895.629607500000        -0.003401759494
    6        683.459410210000        -0.010774817518
    7        266.182197620000        -0.029807818529
    8        110.112200100000        -0.068876603735
    9         47.777041234000        -0.121234733812
   10         21.542166149000        -0.132058839058
   11        174.121363780000         0.002351717329
   12         53.484972498000         0.019641249198
   13         20.500213307000         0.062718698433
   14          9.805682692200        -1.029807095920
   15          3.540298934800         4.915720918416
   16          1.545085004600        -6.419569037914
   17          0.665401954300         3.488055555620
   18          0.143554390700        -1.564473399405
   19          0.066624673500         1.217152215907
   20          0.029772648300        -0.388035607819
 S 20
    1     605967.787529999972        -0.000003070543
    2      90569.094691999999        -0.000023938137
    3      20574.252843999999        -0.000126107498
    4       5818.628486500000        -0.000531725784
    5       1895.629607500000        -0.001919983640
    6        683.459410210000        -0.006081403871
    7        266.182197620000        -0.016823800744
    8        110.112200100000        -0.038874574335
    9         47.777041234000        -0.068425973639
   10         21.542166149000        -0.074535195946
   11        174.121363780000        -0.054787255840
   12         53.484972498000        -0.457576313114
   13         20.500213307000        -1.461138774980
   14          9.805682692200         4.855937091433
   15          3.540298934800        -5.554052749693
   16          1.545085004600         4.213536988151
   17          0.665401954300        -1.805968001482
   18          0.143554390700         0.752450223891
   19          0.066624673500        -0.589187402194
   20          0.029772648300         0.189410655182
 S 20
    1     605967.787529999972        -0.000082454281
    2      90569.094691999999        -0.000642818494
    3      20574.252843999999        -0.003386405246
    4       5818.628486500000        -0.014278603669
    5       1895.629607500000        -0.051557938826
    6        683.459410210000        -0.163305896097
    7        266.182197620000        -0.451774937926
    8        110.112200100000        -1.043911460580
    9         47.777041234000        -1.837464700389
   10         21.542166149000        -2.001517613920
   11        174.121363780000         0.223331952837
   12         53.484972498000         1.865240556634
   13         20.500213307000         5.956110978339
   14          9.805682692200        -4.760012177184
   15          3.540298934800         3.328208189723
   16          1.545085004600        -2.267227271878
   17          0.665401954300         0.961869821852
   18          0.143554390700        -0.410195103923
   19          0.066624673500         0.323769090897
   20          0.029772648300        -0.104619998488
 P 12
    1        893.204608290000         0.000349594910
    2        211.782582860000         0.002981293125
    3         68.443200537000         0.015518387796
    4         25.727265349000         0.057580670665
    5         10.606634281000         0.156108530753
    6          4.593412648400         0.292319335357
    7          2.010046980700         0.372203240286
    8          0.873848415400         0.275790521171
    9          0.356150766700         0.068660421117
   10          0.189959543600        -0.003340786970
   11          0.074580135700         0.002644993191
   12          0.029221641300        -0.000522325958
 P 12
    1        893.204608290000         0.000029845852
    2        211.782582860000         0.000254520967
    3         68.443200537000         0.001324846266
    4         25.727265349000         0.004915815841
    5         10.606634281000         0.013327402746
    6          4.593412648400         0.024956083399
    7          2.010046980700         0.031775985994
    8          0.873848415400         0.023544974330
    9          0.356150766700         0.053982345912
   10          0.189959543600        -0.227659205736
   11          0.074580135700         0.082225793558
   12          0.029221641300        -0.981537196604
 P 12
    1        893.204608290000         0.000055985709
    2        211.782582860000         0.000477437757
    3         68.443200537000         0.002485184770
    4         25.727265349000         0.009221228883
    5         10.606634281000         0.024999925775
    6          4.593412648400         0.046813339740
    7          2.010046980700         0.059606309376
    8          0.873848415400         0.044166340721
    9          0.356150766700        -0.184280536711
   10          0.189959543600         0.376775376747
   11          0.074580135700        -1.842836408865
   12          0.029221641300         1.381348017307
 P 12
    1        893.204608290000         0.000082548677
    2        211.782582860000         0.000703962772
    3         68.443200537000         0.003664304993
    4         25.727265349000         0.013596331126
    5         10.606634281000         0.036861385101
    6          4.593412648400         0.069024386696
    7          2.010046980700         0.087887105913
    8          0.873848415400         0.065121493099
    9          0.356150766700         0.748885209552
   10          0.189959543600        -2.783905369905
   11          0.074580135700         2.441496883286
   12          0.029221641300        -0.879372106694
 P 12
    1        893.204608290000         0.000250624077
    2        211.782582860000         0.002137284656
    3         68.443200537000         0.011125109386
    4         25.727265349000         0.041279498110
    5         10.606634281000         0.111913976091
    6          4.593412648400         0.209563301572
    7          2.010046980700         0.266831955522
    8          0.873848415400         0.197713818993
    9          0.356150766700        -3.312520230274
   10          0.189959543600         3.731944752534
   11          0.074580135700        -1.633284507537
   12          0.029221641300         0.483755472278
 D 5
    1          6.930000000000         0.001506499777
    2          2.100000000000        -0.001548426288
    3          0.650000000000         0.032623112100
    4          0.200000000000        -0.044741396393
    5          0.052000000000         1.017432526287
 D 5
    1          6.930000000000         0.001074339795
    2          2.100000000000         0.044410636893
    3          0.650000000000        -0.034701754194
    4          0.200000000000         1.152533516533
    5          0.052000000000        -0.526337319742
 D 5
    1          6.930000000000         0.041850269665
    2          2.100000000000        -0.006298598027
    3          0.650000000000         1.237209384801
    4          0.200000000000        -0.820019820027
    5          0.052000000000         0.236915502844
 D 5
    1          6.930000000000         0.010017424834
    2          2.100000000000         1.257118797293
    3          0.650000000000        -0.955946739702
    4          0.200000000000         0.387458398529
    5          0.052000000000        -0.105494525332
 D 5
    1          6.930000000000         1.255825749961
    2          2.100000000000        -0.944075566789
    3          0.650000000000         0.428234390357
    4          0.200000000000        -0.162104720449
    5          0.052000000000         0.044928648399
 F 2
    1          5.600000000000         0.000855046384
    2          0.160000000000         0.999993914194
 F 2
    1          5.600000000000         1.000022013330
    2          0.160000000000        -0.007545185441
 end
  // -----------------------------------------------
  // The basis set
  // -----------------------------------------------
  BAS[ATNO] = new BFNGauss[NSH];
  // Basis function   1 L = s
  InitBFNGauss(BAS[ATNO][  0]);
  BAS[ATNO][  0].l  = 0;
  BAS[ATNO][  0].ng = 20;
  BAS[ATNO][  0].a[  0] =    605967.787529999972;     BAS[ATNO][  0].d[  0] =         0.000014373285;
  BAS[ATNO][  0].a[  1] =     90569.094691999999;     BAS[ATNO][  0].d[  1] =         0.000112054984;
  BAS[ATNO][  0].a[  2] =     20574.252843999999;     BAS[ATNO][  0].d[  2] =         0.000590312179;
  BAS[ATNO][  0].a[  3] =      5818.628486500000;     BAS[ATNO][  0].d[  3] =         0.002489020961;
  BAS[ATNO][  0].a[  4] =      1895.629607500000;     BAS[ATNO][  0].d[  4] =         0.008987488792;
  BAS[ATNO][  0].a[  5] =       683.459410210000;     BAS[ATNO][  0].d[  5] =         0.028467195241;
  BAS[ATNO][  0].a[  6] =       266.182197620000;     BAS[ATNO][  0].d[  6] =         0.078752608878;
  BAS[ATNO][  0].a[  7] =       110.112200100000;     BAS[ATNO][  0].d[  7] =         0.181972801183;
  BAS[ATNO][  0].a[  8] =        47.777041234000;     BAS[ATNO][  0].d[  8] =         0.320303599712;
  BAS[ATNO][  0].a[  9] =        21.542166149000;     BAS[ATNO][  0].d[  9] =         0.348901013712;
  BAS[ATNO][  0].a[ 10] =       174.121363780000;     BAS[ATNO][  0].d[ 10] =         0.000091350240;
  BAS[ATNO][  0].a[ 11] =        53.484972498000;     BAS[ATNO][  0].d[ 11] =         0.000762945783;
  BAS[ATNO][  0].a[ 12] =        20.500213307000;     BAS[ATNO][  0].d[ 12] =         0.002436248633;
  BAS[ATNO][  0].a[ 13] =         9.805682692200;     BAS[ATNO][  0].d[ 13] =         0.165518109869;
  BAS[ATNO][  0].a[ 14] =         3.540298934800;     BAS[ATNO][  0].d[ 14] =         0.014687892165;
  BAS[ATNO][  0].a[ 15] =         1.545085004600;     BAS[ATNO][  0].d[ 15] =        -0.001250942724;
  BAS[ATNO][  0].a[ 16] =         0.665401954300;     BAS[ATNO][  0].d[ 16] =         0.000854780376;
  BAS[ATNO][  0].a[ 17] =         0.143554390700;     BAS[ATNO][  0].d[ 17] =        -0.000241126374;
  BAS[ATNO][  0].a[ 18] =         0.066624673500;     BAS[ATNO][  0].d[ 18] =         0.000189050514;
  BAS[ATNO][  0].a[ 19] =         0.029772648300;     BAS[ATNO][  0].d[ 19] =        -0.000060818317;

  // Basis function   2 L = s
  InitBFNGauss(BAS[ATNO][  1]);
  BAS[ATNO][  1].l  = 0;
  BAS[ATNO][  1].ng = 20;
  BAS[ATNO][  1].a[  0] =    605967.787529999972;     BAS[ATNO][  1].d[  0] =        -0.000003685625;
  BAS[ATNO][  1].a[  1] =     90569.094691999999;     BAS[ATNO][  1].d[  1] =        -0.000028733355;
  BAS[ATNO][  1].a[  2] =     20574.252843999999;     BAS[ATNO][  1].d[  2] =        -0.000151368985;
  BAS[ATNO][  1].a[  3] =      5818.628486500000;     BAS[ATNO][  1].d[  3] =        -0.000638239547;
  BAS[ATNO][  1].a[  4] =      1895.629607500000;     BAS[ATNO][  1].d[  4] =        -0.002304589178;
  BAS[ATNO][  1].a[  5] =       683.459410210000;     BAS[ATNO][  1].d[  5] =        -0.007299613008;
  BAS[ATNO][  1].a[  6] =       266.182197620000;     BAS[ATNO][  1].d[  6] =        -0.020193895580;
  BAS[ATNO][  1].a[  7] =       110.112200100000;     BAS[ATNO][  1].d[  7] =        -0.046661816007;
  BAS[ATNO][  1].a[  8] =        47.777041234000;     BAS[ATNO][  1].d[  8] =        -0.082132865676;
  BAS[ATNO][  1].a[  9] =        21.542166149000;     BAS[ATNO][  1].d[  9] =        -0.089465869628;
  BAS[ATNO][  1].a[ 10] =       174.121363780000;     BAS[ATNO][  1].d[ 10] =        -0.003122713364;
  BAS[ATNO][  1].a[ 11] =        53.484972498000;     BAS[ATNO][  1].d[ 11] =        -0.026080511718;
  BAS[ATNO][  1].a[ 12] =        20.500213307000;     BAS[ATNO][  1].d[ 12] =        -0.083280637241;
  BAS[ATNO][  1].a[ 13] =         9.805682692200;     BAS[ATNO][  1].d[ 13] =        -0.077376624052;
  BAS[ATNO][  1].a[ 14] =         3.540298934800;     BAS[ATNO][  1].d[ 14] =         0.293612926295;
  BAS[ATNO][  1].a[ 15] =         1.545085004600;     BAS[ATNO][  1].d[ 15] =         0.559240890352;
  BAS[ATNO][  1].a[ 16] =         0.665401954300;     BAS[ATNO][  1].d[ 16] =         0.289486749141;
  BAS[ATNO][  1].a[ 17] =         0.143554390700;     BAS[ATNO][  1].d[ 17] =         0.011858462701;
  BAS[ATNO][  1].a[ 18] =         0.066624673500;     BAS[ATNO][  1].d[ 18] =        -0.005695022843;
  BAS[ATNO][  1].a[ 19] =         0.029772648300;     BAS[ATNO][  1].d[ 19] =         0.001532185736;

  // Basis function   3 L = s
  InitBFNGauss(BAS[ATNO][  2]);
  BAS[ATNO][  2].l  = 0;
  BAS[ATNO][  2].ng = 20;
  BAS[ATNO][  2].a[  0] =    605967.787529999972;     BAS[ATNO][  2].d[  0] =         0.000000709526;
  BAS[ATNO][  2].a[  1] =     90569.094691999999;     BAS[ATNO][  2].d[  1] =         0.000005531506;
  BAS[ATNO][  2].a[  2] =     20574.252843999999;     BAS[ATNO][  2].d[  2] =         0.000029140295;
  BAS[ATNO][  2].a[  3] =      5818.628486500000;     BAS[ATNO][  2].d[  3] =         0.000122868555;
  BAS[ATNO][  2].a[  4] =      1895.629607500000;     BAS[ATNO][  2].d[  4] =         0.000443660291;
  BAS[ATNO][  2].a[  5] =       683.459410210000;     BAS[ATNO][  2].d[  5] =         0.001405260627;
  BAS[ATNO][  2].a[  6] =       266.182197620000;     BAS[ATNO][  2].d[  6] =         0.003887560387;
  BAS[ATNO][  2].a[  7] =       110.112200100000;     BAS[ATNO][  2].d[  7] =         0.008982943721;
  BAS[ATNO][  2].a[  8] =        47.777041234000;     BAS[ATNO][  2].d[  8] =         0.015811534423;
  BAS[ATNO][  2].a[  9] =        21.542166149000;     BAS[ATNO][  2].d[  9] =         0.017223223197;
  BAS[ATNO][  2].a[ 10] =       174.121363780000;     BAS[ATNO][  2].d[ 10] =         0.000658037213;
  BAS[ATNO][  2].a[ 11] =        53.484972498000;     BAS[ATNO][  2].d[ 11] =         0.005495844558;
  BAS[ATNO][  2].a[ 12] =        20.500213307000;     BAS[ATNO][  2].d[ 12] =         0.017549404013;
  BAS[ATNO][  2].a[ 13] =         9.805682692200;     BAS[ATNO][  2].d[ 13] =         0.015855586468;
  BAS[ATNO][  2].a[ 14] =         3.540298934800;     BAS[ATNO][  2].d[ 14] =        -0.066991798922;
  BAS[ATNO][  2].a[ 15] =         1.545085004600;     BAS[ATNO][  2].d[ 15] =        -0.160525815455;
  BAS[ATNO][  2].a[ 16] =         0.665401954300;     BAS[ATNO][  2].d[ 16] =        -0.192381865355;
  BAS[ATNO][  2].a[ 17] =         0.143554390700;     BAS[ATNO][  2].d[ 17] =         0.329952024339;
  BAS[ATNO][  2].a[ 18] =         0.066624673500;     BAS[ATNO][  2].d[ 18] =         0.571097930121;
  BAS[ATNO][  2].a[ 19] =         0.029772648300;     BAS[ATNO][  2].d[ 19] =         0.240930931282;

  // Basis function   4 L = s
  InitBFNGauss(BAS[ATNO][  3]);
  BAS[ATNO][  3].l  = 0;
  BAS[ATNO][  3].ng = 20;
  BAS[ATNO][  3].a[  0] =    605967.787529999972;     BAS[ATNO][  3].d[  0] =         0.000000331355;
  BAS[ATNO][  3].a[  1] =     90569.094691999999;     BAS[ATNO][  3].d[  1] =         0.000002583262;
  BAS[ATNO][  3].a[  2] =     20574.252843999999;     BAS[ATNO][  3].d[  2] =         0.000013608773;
  BAS[ATNO][  3].a[  3] =      5818.628486500000;     BAS[ATNO][  3].d[  3] =         0.000057380692;
  BAS[ATNO][  3].a[  4] =      1895.629607500000;     BAS[ATNO][  3].d[  4] =         0.000207193244;
  BAS[ATNO][  3].a[  5] =       683.459410210000;     BAS[ATNO][  3].d[  5] =         0.000656269027;
  BAS[ATNO][  3].a[  6] =       266.182197620000;     BAS[ATNO][  3].d[  6] =         0.001815524766;
  BAS[ATNO][  3].a[  7] =       110.112200100000;     BAS[ATNO][  3].d[  7] =         0.004195113431;
  BAS[ATNO][  3].a[  8] =        47.777041234000;     BAS[ATNO][  3].d[  8] =         0.007384125125;
  BAS[ATNO][  3].a[  9] =        21.542166149000;     BAS[ATNO][  3].d[  9] =         0.008043396152;
  BAS[ATNO][  3].a[ 10] =       174.121363780000;     BAS[ATNO][  3].d[ 10] =         0.000388897439;
  BAS[ATNO][  3].a[ 11] =        53.484972498000;     BAS[ATNO][  3].d[ 11] =         0.003248022800;
  BAS[ATNO][  3].a[ 12] =        20.500213307000;     BAS[ATNO][  3].d[ 12] =         0.010371629648;
  BAS[ATNO][  3].a[ 13] =         9.805682692200;     BAS[ATNO][  3].d[ 13] =         0.000094414912;
  BAS[ATNO][  3].a[ 14] =         3.540298934800;     BAS[ATNO][  3].d[ 14] =        -0.003252351440;
  BAS[ATNO][  3].a[ 15] =         1.545085004600;     BAS[ATNO][  3].d[ 15] =        -0.158075833437;
  BAS[ATNO][  3].a[ 16] =         0.665401954300;     BAS[ATNO][  3].d[ 16] =         0.037937680514;
  BAS[ATNO][  3].a[ 17] =         0.143554390700;     BAS[ATNO][  3].d[ 17] =        -0.663659416361;
  BAS[ATNO][  3].a[ 18] =         0.066624673500;     BAS[ATNO][  3].d[ 18] =         2.945211124136;
  BAS[ATNO][  3].a[ 19] =         0.029772648300;     BAS[ATNO][  3].d[ 19] =        -2.574385280206;

  // Basis function   5 L = s
  InitBFNGauss(BAS[ATNO][  4]);
  BAS[ATNO][  4].l  = 0;
  BAS[ATNO][  4].ng = 20;
  BAS[ATNO][  4].a[  0] =    605967.787529999972;     BAS[ATNO][  4].d[  0] =        -0.000000908000;
  BAS[ATNO][  4].a[  1] =     90569.094691999999;     BAS[ATNO][  4].d[  1] =        -0.000007078825;
  BAS[ATNO][  4].a[  2] =     20574.252843999999;     BAS[ATNO][  4].d[  2] =        -0.000037291660;
  BAS[ATNO][  4].a[  3] =      5818.628486500000;     BAS[ATNO][  4].d[  3] =        -0.000157238368;
  BAS[ATNO][  4].a[  4] =      1895.629607500000;     BAS[ATNO][  4].d[  4] =        -0.000567764631;
  BAS[ATNO][  4].a[  5] =       683.459410210000;     BAS[ATNO][  4].d[  5] =        -0.001798351796;
  BAS[ATNO][  4].a[  6] =       266.182197620000;     BAS[ATNO][  4].d[  6] =        -0.004975021053;
  BAS[ATNO][  4].a[  7] =       110.112200100000;     BAS[ATNO][  4].d[  7] =        -0.011495727315;
  BAS[ATNO][  4].a[  8] =        47.777041234000;     BAS[ATNO][  4].d[  8] =        -0.020234468099;
  BAS[ATNO][  4].a[  9] =        21.542166149000;     BAS[ATNO][  4].d[  9] =        -0.022041046176;
  BAS[ATNO][  4].a[ 10] =       174.121363780000;     BAS[ATNO][  4].d[ 10] =        -0.000555784638;
  BAS[ATNO][  4].a[ 11] =        53.484972498000;     BAS[ATNO][  4].d[ 11] =        -0.004641843827;
  BAS[ATNO][  4].a[ 12] =        20.500213307000;     BAS[ATNO][  4].d[ 12] =        -0.014822397509;
  BAS[ATNO][  4].a[ 13] =         9.805682692200;     BAS[ATNO][  4].d[ 13] =        -0.047622325397;
  BAS[ATNO][  4].a[ 14] =         3.540298934800;     BAS[ATNO][  4].d[ 14] =         0.193498441144;
  BAS[ATNO][  4].a[ 15] =         1.545085004600;     BAS[ATNO][  4].d[ 15] =        -0.095822530858;
  BAS[ATNO][  4].a[ 16] =         0.665401954300;     BAS[ATNO][  4].d[ 16] =         0.852139667953;
  BAS[ATNO][  4].a[ 17] =         0.143554390700;     BAS[ATNO][  4].d[ 17] =        -4.263060606746;
  BAS[ATNO][  4].a[ 18] =         0.066624673500;     BAS[ATNO][  4].d[ 18] =         5.287102228408;
  BAS[ATNO][  4].a[ 19] =         0.029772648300;     BAS[ATNO][  4].d[ 19] =        -1.995686994598;

  // Basis function   6 L = s
  InitBFNGauss(BAS[ATNO][  5]);
  BAS[ATNO][  5].l  = 0;
  BAS[ATNO][  5].ng = 20;
  BAS[ATNO][  5].a[  0] =    605967.787529999972;     BAS[ATNO][  5].d[  0] =         0.000001859364;
  BAS[ATNO][  5].a[  1] =     90569.094691999999;     BAS[ATNO][  5].d[  1] =         0.000014495710;
  BAS[ATNO][  5].a[  2] =     20574.252843999999;     BAS[ATNO][  5].d[  2] =         0.000076364242;
  BAS[ATNO][  5].a[  3] =      5818.628486500000;     BAS[ATNO][  5].d[  3] =         0.000321985901;
  BAS[ATNO][  5].a[  4] =      1895.629607500000;     BAS[ATNO][  5].d[  4] =         0.001162643755;
  BAS[ATNO][  5].a[  5] =       683.459410210000;     BAS[ATNO][  5].d[  5] =         0.003682586709;
  BAS[ATNO][  5].a[  6] =       266.182197620000;     BAS[ATNO][  5].d[  6] =         0.010187632054;
  BAS[ATNO][  5].a[  7] =       110.112200100000;     BAS[ATNO][  5].d[  7] =         0.023540451152;
  BAS[ATNO][  5].a[  8] =        47.777041234000;     BAS[ATNO][  5].d[  8] =         0.041435265016;
  BAS[ATNO][  5].a[  9] =        21.542166149000;     BAS[ATNO][  5].d[  9] =         0.045134697145;
  BAS[ATNO][  5].a[ 10] =       174.121363780000;     BAS[ATNO][  5].d[ 10] =         0.004009354050;
  BAS[ATNO][  5].a[ 11] =        53.484972498000;     BAS[ATNO][  5].d[ 11] =         0.033485623910;
  BAS[ATNO][  5].a[ 12] =        20.500213307000;     BAS[ATNO][  5].d[ 12] =         0.106926740082;
  BAS[ATNO][  5].a[ 13] =         9.805682692200;     BAS[ATNO][  5].d[ 13] =        -0.160580248662;
  BAS[ATNO][  5].a[ 14] =         3.540298934800;     BAS[ATNO][  5].d[ 14] =         0.657713824041;
  BAS[ATNO][  5].a[ 15] =         1.545085004600;     BAS[ATNO][  5].d[ 15] =        -3.413463568054;
  BAS[ATNO][  5].a[ 16] =         0.665401954300;     BAS[ATNO][  5].d[ 16] =         4.133849544773;
  BAS[ATNO][  5].a[ 17] =         0.143554390700;     BAS[ATNO][  5].d[ 17] =        -3.265733525309;
  BAS[ATNO][  5].a[ 18] =         0.066624673500;     BAS[ATNO][  5].d[ 18] =         2.675773294929;
  BAS[ATNO][  5].a[ 19] =         0.029772648300;     BAS[ATNO][  5].d[ 19] =        -0.855104696840;

  // Basis function   7 L = s
  InitBFNGauss(BAS[ATNO][  6]);
  BAS[ATNO][  6].l  = 0;
  BAS[ATNO][  6].ng = 20;
  BAS[ATNO][  6].a[  0] =    605967.787529999972;     BAS[ATNO][  6].d[  0] =         0.000005440280;
  BAS[ATNO][  6].a[  1] =     90569.094691999999;     BAS[ATNO][  6].d[  1] =         0.000042412749;
  BAS[ATNO][  6].a[  2] =     20574.252843999999;     BAS[ATNO][  6].d[  2] =         0.000223432830;
  BAS[ATNO][  6].a[  3] =      5818.628486500000;     BAS[ATNO][  6].d[  3] =         0.000942093045;
  BAS[ATNO][  6].a[  4] =      1895.629607500000;     BAS[ATNO][  6].d[  4] =         0.003401759494;
  BAS[ATNO][  6].a[  5] =       683.459410210000;     BAS[ATNO][  6].d[  5] =         0.010774817518;
  BAS[ATNO][  6].a[  6] =       266.182197620000;     BAS[ATNO][  6].d[  6] =         0.029807818529;
  BAS[ATNO][  6].a[  7] =       110.112200100000;     BAS[ATNO][  6].d[  7] =         0.068876603735;
  BAS[ATNO][  6].a[  8] =        47.777041234000;     BAS[ATNO][  6].d[  8] =         0.121234733812;
  BAS[ATNO][  6].a[  9] =        21.542166149000;     BAS[ATNO][  6].d[  9] =         0.132058839058;
  BAS[ATNO][  6].a[ 10] =       174.121363780000;     BAS[ATNO][  6].d[ 10] =        -0.002351717329;
  BAS[ATNO][  6].a[ 11] =        53.484972498000;     BAS[ATNO][  6].d[ 11] =        -0.019641249198;
  BAS[ATNO][  6].a[ 12] =        20.500213307000;     BAS[ATNO][  6].d[ 12] =        -0.062718698433;
  BAS[ATNO][  6].a[ 13] =         9.805682692200;     BAS[ATNO][  6].d[ 13] =         1.029807095920;
  BAS[ATNO][  6].a[ 14] =         3.540298934800;     BAS[ATNO][  6].d[ 14] =        -4.915720918416;
  BAS[ATNO][  6].a[ 15] =         1.545085004600;     BAS[ATNO][  6].d[ 15] =         6.419569037914;
  BAS[ATNO][  6].a[ 16] =         0.665401954300;     BAS[ATNO][  6].d[ 16] =        -3.488055555620;
  BAS[ATNO][  6].a[ 17] =         0.143554390700;     BAS[ATNO][  6].d[ 17] =         1.564473399405;
  BAS[ATNO][  6].a[ 18] =         0.066624673500;     BAS[ATNO][  6].d[ 18] =        -1.217152215907;
  BAS[ATNO][  6].a[ 19] =         0.029772648300;     BAS[ATNO][  6].d[ 19] =         0.388035607819;

  // Basis function   8 L = s
  InitBFNGauss(BAS[ATNO][  7]);
  BAS[ATNO][  7].l  = 0;
  BAS[ATNO][  7].ng = 20;
  BAS[ATNO][  7].a[  0] =    605967.787529999972;     BAS[ATNO][  7].d[  0] =         0.000003070543;
  BAS[ATNO][  7].a[  1] =     90569.094691999999;     BAS[ATNO][  7].d[  1] =         0.000023938137;
  BAS[ATNO][  7].a[  2] =     20574.252843999999;     BAS[ATNO][  7].d[  2] =         0.000126107498;
  BAS[ATNO][  7].a[  3] =      5818.628486500000;     BAS[ATNO][  7].d[  3] =         0.000531725784;
  BAS[ATNO][  7].a[  4] =      1895.629607500000;     BAS[ATNO][  7].d[  4] =         0.001919983640;
  BAS[ATNO][  7].a[  5] =       683.459410210000;     BAS[ATNO][  7].d[  5] =         0.006081403871;
  BAS[ATNO][  7].a[  6] =       266.182197620000;     BAS[ATNO][  7].d[  6] =         0.016823800744;
  BAS[ATNO][  7].a[  7] =       110.112200100000;     BAS[ATNO][  7].d[  7] =         0.038874574335;
  BAS[ATNO][  7].a[  8] =        47.777041234000;     BAS[ATNO][  7].d[  8] =         0.068425973639;
  BAS[ATNO][  7].a[  9] =        21.542166149000;     BAS[ATNO][  7].d[  9] =         0.074535195946;
  BAS[ATNO][  7].a[ 10] =       174.121363780000;     BAS[ATNO][  7].d[ 10] =         0.054787255840;
  BAS[ATNO][  7].a[ 11] =        53.484972498000;     BAS[ATNO][  7].d[ 11] =         0.457576313114;
  BAS[ATNO][  7].a[ 12] =        20.500213307000;     BAS[ATNO][  7].d[ 12] =         1.461138774980;
  BAS[ATNO][  7].a[ 13] =         9.805682692200;     BAS[ATNO][  7].d[ 13] =        -4.855937091433;
  BAS[ATNO][  7].a[ 14] =         3.540298934800;     BAS[ATNO][  7].d[ 14] =         5.554052749693;
  BAS[ATNO][  7].a[ 15] =         1.545085004600;     BAS[ATNO][  7].d[ 15] =        -4.213536988151;
  BAS[ATNO][  7].a[ 16] =         0.665401954300;     BAS[ATNO][  7].d[ 16] =         1.805968001482;
  BAS[ATNO][  7].a[ 17] =         0.143554390700;     BAS[ATNO][  7].d[ 17] =        -0.752450223891;
  BAS[ATNO][  7].a[ 18] =         0.066624673500;     BAS[ATNO][  7].d[ 18] =         0.589187402194;
  BAS[ATNO][  7].a[ 19] =         0.029772648300;     BAS[ATNO][  7].d[ 19] =        -0.189410655182;

  // Basis function   9 L = s
  InitBFNGauss(BAS[ATNO][  8]);
  BAS[ATNO][  8].l  = 0;
  BAS[ATNO][  8].ng = 20;
  BAS[ATNO][  8].a[  0] =    605967.787529999972;     BAS[ATNO][  8].d[  0] =        -0.000082454281;
  BAS[ATNO][  8].a[  1] =     90569.094691999999;     BAS[ATNO][  8].d[  1] =        -0.000642818494;
  BAS[ATNO][  8].a[  2] =     20574.252843999999;     BAS[ATNO][  8].d[  2] =        -0.003386405246;
  BAS[ATNO][  8].a[  3] =      5818.628486500000;     BAS[ATNO][  8].d[  3] =        -0.014278603669;
  BAS[ATNO][  8].a[  4] =      1895.629607500000;     BAS[ATNO][  8].d[  4] =        -0.051557938826;
  BAS[ATNO][  8].a[  5] =       683.459410210000;     BAS[ATNO][  8].d[  5] =        -0.163305896097;
  BAS[ATNO][  8].a[  6] =       266.182197620000;     BAS[ATNO][  8].d[  6] =        -0.451774937926;
  BAS[ATNO][  8].a[  7] =       110.112200100000;     BAS[ATNO][  8].d[  7] =        -1.043911460580;
  BAS[ATNO][  8].a[  8] =        47.777041234000;     BAS[ATNO][  8].d[  8] =        -1.837464700389;
  BAS[ATNO][  8].a[  9] =        21.542166149000;     BAS[ATNO][  8].d[  9] =        -2.001517613920;
  BAS[ATNO][  8].a[ 10] =       174.121363780000;     BAS[ATNO][  8].d[ 10] =         0.223331952837;
  BAS[ATNO][  8].a[ 11] =        53.484972498000;     BAS[ATNO][  8].d[ 11] =         1.865240556634;
  BAS[ATNO][  8].a[ 12] =        20.500213307000;     BAS[ATNO][  8].d[ 12] =         5.956110978339;
  BAS[ATNO][  8].a[ 13] =         9.805682692200;     BAS[ATNO][  8].d[ 13] =        -4.760012177184;
  BAS[ATNO][  8].a[ 14] =         3.540298934800;     BAS[ATNO][  8].d[ 14] =         3.328208189723;
  BAS[ATNO][  8].a[ 15] =         1.545085004600;     BAS[ATNO][  8].d[ 15] =        -2.267227271878;
  BAS[ATNO][  8].a[ 16] =         0.665401954300;     BAS[ATNO][  8].d[ 16] =         0.961869821852;
  BAS[ATNO][  8].a[ 17] =         0.143554390700;     BAS[ATNO][  8].d[ 17] =        -0.410195103923;
  BAS[ATNO][  8].a[ 18] =         0.066624673500;     BAS[ATNO][  8].d[ 18] =         0.323769090897;
  BAS[ATNO][  8].a[ 19] =         0.029772648300;     BAS[ATNO][  8].d[ 19] =        -0.104619998488;

  // Basis function  10 L = p
  InitBFNGauss(BAS[ATNO][  9]);
  BAS[ATNO][  9].l  = 1;
  BAS[ATNO][  9].ng = 12;
  BAS[ATNO][  9].a[  0] =       893.204608290000;     BAS[ATNO][  9].d[  0] =         0.000349594910;
  BAS[ATNO][  9].a[  1] =       211.782582860000;     BAS[ATNO][  9].d[  1] =         0.002981293125;
  BAS[ATNO][  9].a[  2] =        68.443200537000;     BAS[ATNO][  9].d[  2] =         0.015518387796;
  BAS[ATNO][  9].a[  3] =        25.727265349000;     BAS[ATNO][  9].d[  3] =         0.057580670665;
  BAS[ATNO][  9].a[  4] =        10.606634281000;     BAS[ATNO][  9].d[  4] =         0.156108530753;
  BAS[ATNO][  9].a[  5] =         4.593412648400;     BAS[ATNO][  9].d[  5] =         0.292319335357;
  BAS[ATNO][  9].a[  6] =         2.010046980700;     BAS[ATNO][  9].d[  6] =         0.372203240286;
  BAS[ATNO][  9].a[  7] =         0.873848415400;     BAS[ATNO][  9].d[  7] =         0.275790521171;
  BAS[ATNO][  9].a[  8] =         0.356150766700;     BAS[ATNO][  9].d[  8] =         0.068660421117;
  BAS[ATNO][  9].a[  9] =         0.189959543600;     BAS[ATNO][  9].d[  9] =        -0.003340786970;
  BAS[ATNO][  9].a[ 10] =         0.074580135700;     BAS[ATNO][  9].d[ 10] =         0.002644993191;
  BAS[ATNO][  9].a[ 11] =         0.029221641300;     BAS[ATNO][  9].d[ 11] =        -0.000522325958;

  // Basis function  11 L = p
  InitBFNGauss(BAS[ATNO][ 10]);
  BAS[ATNO][ 10].l  = 1;
  BAS[ATNO][ 10].ng = 12;
  BAS[ATNO][ 10].a[  0] =       893.204608290000;     BAS[ATNO][ 10].d[  0] =        -0.000029845852;
  BAS[ATNO][ 10].a[  1] =       211.782582860000;     BAS[ATNO][ 10].d[  1] =        -0.000254520967;
  BAS[ATNO][ 10].a[  2] =        68.443200537000;     BAS[ATNO][ 10].d[  2] =        -0.001324846266;
  BAS[ATNO][ 10].a[  3] =        25.727265349000;     BAS[ATNO][ 10].d[  3] =        -0.004915815841;
  BAS[ATNO][ 10].a[  4] =        10.606634281000;     BAS[ATNO][ 10].d[  4] =        -0.013327402746;
  BAS[ATNO][ 10].a[  5] =         4.593412648400;     BAS[ATNO][ 10].d[  5] =        -0.024956083399;
  BAS[ATNO][ 10].a[  6] =         2.010046980700;     BAS[ATNO][ 10].d[  6] =        -0.031775985994;
  BAS[ATNO][ 10].a[  7] =         0.873848415400;     BAS[ATNO][ 10].d[  7] =        -0.023544974330;
  BAS[ATNO][ 10].a[  8] =         0.356150766700;     BAS[ATNO][ 10].d[  8] =        -0.053982345912;
  BAS[ATNO][ 10].a[  9] =         0.189959543600;     BAS[ATNO][ 10].d[  9] =         0.227659205736;
  BAS[ATNO][ 10].a[ 10] =         0.074580135700;     BAS[ATNO][ 10].d[ 10] =        -0.082225793558;
  BAS[ATNO][ 10].a[ 11] =         0.029221641300;     BAS[ATNO][ 10].d[ 11] =         0.981537196604;

  // Basis function  12 L = p
  InitBFNGauss(BAS[ATNO][ 11]);
  BAS[ATNO][ 11].l  = 1;
  BAS[ATNO][ 11].ng = 12;
  BAS[ATNO][ 11].a[  0] =       893.204608290000;     BAS[ATNO][ 11].d[  0] =        -0.000055985709;
  BAS[ATNO][ 11].a[  1] =       211.782582860000;     BAS[ATNO][ 11].d[  1] =        -0.000477437757;
  BAS[ATNO][ 11].a[  2] =        68.443200537000;     BAS[ATNO][ 11].d[  2] =        -0.002485184770;
  BAS[ATNO][ 11].a[  3] =        25.727265349000;     BAS[ATNO][ 11].d[  3] =        -0.009221228883;
  BAS[ATNO][ 11].a[  4] =        10.606634281000;     BAS[ATNO][ 11].d[  4] =        -0.024999925775;
  BAS[ATNO][ 11].a[  5] =         4.593412648400;     BAS[ATNO][ 11].d[  5] =        -0.046813339740;
  BAS[ATNO][ 11].a[  6] =         2.010046980700;     BAS[ATNO][ 11].d[  6] =        -0.059606309376;
  BAS[ATNO][ 11].a[  7] =         0.873848415400;     BAS[ATNO][ 11].d[  7] =        -0.044166340721;
  BAS[ATNO][ 11].a[  8] =         0.356150766700;     BAS[ATNO][ 11].d[  8] =         0.184280536711;
  BAS[ATNO][ 11].a[  9] =         0.189959543600;     BAS[ATNO][ 11].d[  9] =        -0.376775376747;
  BAS[ATNO][ 11].a[ 10] =         0.074580135700;     BAS[ATNO][ 11].d[ 10] =         1.842836408865;
  BAS[ATNO][ 11].a[ 11] =         0.029221641300;     BAS[ATNO][ 11].d[ 11] =        -1.381348017307;

  // Basis function  13 L = p
  InitBFNGauss(BAS[ATNO][ 12]);
  BAS[ATNO][ 12].l  = 1;
  BAS[ATNO][ 12].ng = 12;
  BAS[ATNO][ 12].a[  0] =       893.204608290000;     BAS[ATNO][ 12].d[  0] =        -0.000082548677;
  BAS[ATNO][ 12].a[  1] =       211.782582860000;     BAS[ATNO][ 12].d[  1] =        -0.000703962772;
  BAS[ATNO][ 12].a[  2] =        68.443200537000;     BAS[ATNO][ 12].d[  2] =        -0.003664304993;
  BAS[ATNO][ 12].a[  3] =        25.727265349000;     BAS[ATNO][ 12].d[  3] =        -0.013596331126;
  BAS[ATNO][ 12].a[  4] =        10.606634281000;     BAS[ATNO][ 12].d[  4] =        -0.036861385101;
  BAS[ATNO][ 12].a[  5] =         4.593412648400;     BAS[ATNO][ 12].d[  5] =        -0.069024386696;
  BAS[ATNO][ 12].a[  6] =         2.010046980700;     BAS[ATNO][ 12].d[  6] =        -0.087887105913;
  BAS[ATNO][ 12].a[  7] =         0.873848415400;     BAS[ATNO][ 12].d[  7] =        -0.065121493099;
  BAS[ATNO][ 12].a[  8] =         0.356150766700;     BAS[ATNO][ 12].d[  8] =        -0.748885209552;
  BAS[ATNO][ 12].a[  9] =         0.189959543600;     BAS[ATNO][ 12].d[  9] =         2.783905369905;
  BAS[ATNO][ 12].a[ 10] =         0.074580135700;     BAS[ATNO][ 12].d[ 10] =        -2.441496883286;
  BAS[ATNO][ 12].a[ 11] =         0.029221641300;     BAS[ATNO][ 12].d[ 11] =         0.879372106694;

  // Basis function  14 L = p
  InitBFNGauss(BAS[ATNO][ 13]);
  BAS[ATNO][ 13].l  = 1;
  BAS[ATNO][ 13].ng = 12;
  BAS[ATNO][ 13].a[  0] =       893.204608290000;     BAS[ATNO][ 13].d[  0] =         0.000250624077;
  BAS[ATNO][ 13].a[  1] =       211.782582860000;     BAS[ATNO][ 13].d[  1] =         0.002137284656;
  BAS[ATNO][ 13].a[  2] =        68.443200537000;     BAS[ATNO][ 13].d[  2] =         0.011125109386;
  BAS[ATNO][ 13].a[  3] =        25.727265349000;     BAS[ATNO][ 13].d[  3] =         0.041279498110;
  BAS[ATNO][ 13].a[  4] =        10.606634281000;     BAS[ATNO][ 13].d[  4] =         0.111913976091;
  BAS[ATNO][ 13].a[  5] =         4.593412648400;     BAS[ATNO][ 13].d[  5] =         0.209563301572;
  BAS[ATNO][ 13].a[  6] =         2.010046980700;     BAS[ATNO][ 13].d[  6] =         0.266831955522;
  BAS[ATNO][ 13].a[  7] =         0.873848415400;     BAS[ATNO][ 13].d[  7] =         0.197713818993;
  BAS[ATNO][ 13].a[  8] =         0.356150766700;     BAS[ATNO][ 13].d[  8] =        -3.312520230274;
  BAS[ATNO][ 13].a[  9] =         0.189959543600;     BAS[ATNO][ 13].d[  9] =         3.731944752534;
  BAS[ATNO][ 13].a[ 10] =         0.074580135700;     BAS[ATNO][ 13].d[ 10] =        -1.633284507537;
  BAS[ATNO][ 13].a[ 11] =         0.029221641300;     BAS[ATNO][ 13].d[ 11] =         0.483755472278;

  // Basis function  15 L = d
  InitBFNGauss(BAS[ATNO][ 14]);
  BAS[ATNO][ 14].l  = 2;
  BAS[ATNO][ 14].ng = 5;
  BAS[ATNO][ 14].a[  0] =         6.930000000000;     BAS[ATNO][ 14].d[  0] =         0.001506499777;
  BAS[ATNO][ 14].a[  1] =         2.100000000000;     BAS[ATNO][ 14].d[  1] =        -0.001548426288;
  BAS[ATNO][ 14].a[  2] =         0.650000000000;     BAS[ATNO][ 14].d[  2] =         0.032623112100;
  BAS[ATNO][ 14].a[  3] =         0.200000000000;     BAS[ATNO][ 14].d[  3] =        -0.044741396393;
  BAS[ATNO][ 14].a[  4] =         0.052000000000;     BAS[ATNO][ 14].d[  4] =         1.017432526287;

  // Basis function  16 L = d
  InitBFNGauss(BAS[ATNO][ 15]);
  BAS[ATNO][ 15].l  = 2;
  BAS[ATNO][ 15].ng = 5;
  BAS[ATNO][ 15].a[  0] =         6.930000000000;     BAS[ATNO][ 15].d[  0] =         0.001074339795;
  BAS[ATNO][ 15].a[  1] =         2.100000000000;     BAS[ATNO][ 15].d[  1] =         0.044410636893;
  BAS[ATNO][ 15].a[  2] =         0.650000000000;     BAS[ATNO][ 15].d[  2] =        -0.034701754194;
  BAS[ATNO][ 15].a[  3] =         0.200000000000;     BAS[ATNO][ 15].d[  3] =         1.152533516533;
  BAS[ATNO][ 15].a[  4] =         0.052000000000;     BAS[ATNO][ 15].d[  4] =        -0.526337319742;

  // Basis function  17 L = d
  InitBFNGauss(BAS[ATNO][ 16]);
  BAS[ATNO][ 16].l  = 2;
  BAS[ATNO][ 16].ng = 5;
  BAS[ATNO][ 16].a[  0] =         6.930000000000;     BAS[ATNO][ 16].d[  0] =         0.041850269665;
  BAS[ATNO][ 16].a[  1] =         2.100000000000;     BAS[ATNO][ 16].d[  1] =        -0.006298598027;
  BAS[ATNO][ 16].a[  2] =         0.650000000000;     BAS[ATNO][ 16].d[  2] =         1.237209384801;
  BAS[ATNO][ 16].a[  3] =         0.200000000000;     BAS[ATNO][ 16].d[  3] =        -0.820019820027;
  BAS[ATNO][ 16].a[  4] =         0.052000000000;     BAS[ATNO][ 16].d[  4] =         0.236915502844;

  // Basis function  18 L = d
  InitBFNGauss(BAS[ATNO][ 17]);
  BAS[ATNO][ 17].l  = 2;
  BAS[ATNO][ 17].ng = 5;
  BAS[ATNO][ 17].a[  0] =         6.930000000000;     BAS[ATNO][ 17].d[  0] =         0.010017424834;
  BAS[ATNO][ 17].a[  1] =         2.100000000000;     BAS[ATNO][ 17].d[  1] =         1.257118797293;
  BAS[ATNO][ 17].a[  2] =         0.650000000000;     BAS[ATNO][ 17].d[  2] =        -0.955946739702;
  BAS[ATNO][ 17].a[  3] =         0.200000000000;     BAS[ATNO][ 17].d[  3] =         0.387458398529;
  BAS[ATNO][ 17].a[  4] =         0.052000000000;     BAS[ATNO][ 17].d[  4] =        -0.105494525332;

  // Basis function  19 L = d
  InitBFNGauss(BAS[ATNO][ 18]);
  BAS[ATNO][ 18].l  = 2;
  BAS[ATNO][ 18].ng = 5;
  BAS[ATNO][ 18].a[  0] =         6.930000000000;     BAS[ATNO][ 18].d[  0] =         1.255825749961;
  BAS[ATNO][ 18].a[  1] =         2.100000000000;     BAS[ATNO][ 18].d[  1] =        -0.944075566789;
  BAS[ATNO][ 18].a[  2] =         0.650000000000;     BAS[ATNO][ 18].d[  2] =         0.428234390357;
  BAS[ATNO][ 18].a[  3] =         0.200000000000;     BAS[ATNO][ 18].d[  3] =        -0.162104720449;
  BAS[ATNO][ 18].a[  4] =         0.052000000000;     BAS[ATNO][ 18].d[  4] =         0.044928648399;

  // Basis function  20 L = f
  InitBFNGauss(BAS[ATNO][ 19]);
  BAS[ATNO][ 19].l  = 3;
  BAS[ATNO][ 19].ng = 2;
  BAS[ATNO][ 19].a[  0] =         5.600000000000;     BAS[ATNO][ 19].d[  0] =         0.000855046384;
  BAS[ATNO][ 19].a[  1] =         0.160000000000;     BAS[ATNO][ 19].d[  1] =         0.999993914194;

  // Basis function  21 L = f
  InitBFNGauss(BAS[ATNO][ 20]);
  BAS[ATNO][ 20].l  = 3;
  BAS[ATNO][ 20].ng = 2;
  BAS[ATNO][ 20].a[  0] =         5.600000000000;     BAS[ATNO][ 20].d[  0] =         1.000022013330;
  BAS[ATNO][ 20].a[  1] =         0.160000000000;     BAS[ATNO][ 20].d[  1] =        -0.007545185441;

-------------------------------------------
RADIAL EXPECTATION VALUES <R**-3> TO <R**3>
-------------------------------------------
   0 :     0.000000   271.834766    11.597942     0.130594     0.022956     0.005094
   1 :     0.000000    18.386989     2.107813     0.690336     0.571086     0.550661
   2 :     0.000000     0.788507     0.399393     3.252861    12.417266    54.650916
   3 :     0.000000     0.191614     0.184723     6.864260    51.638144   410.455946
   4 :     0.000000     1.100730     0.387891     4.228107    23.950545   166.389578
   5 :     0.000000     6.150473     0.967045     1.960648     6.336005    32.780318
   6 :     0.000000    24.027959     2.019007     1.024977     1.920493     7.392298
   7 :     0.000000    76.736770     4.613559     0.508288     0.573682     1.800933
   8 :     0.000000   994.461493    18.158067     0.211887     0.172723     0.533791
   9 :    24.905038     5.469827     1.951719     0.684994     0.597706     0.641195
  10 :    24.905038     5.469827     1.951719     0.684994     0.597706     0.641195
  11 :    24.905038     5.469827     1.951719     0.684994     0.597706     0.641195
  12 :     0.172586     0.078104     0.205633     5.942834    40.132687   298.529785
  13 :     0.172586     0.078104     0.205633     5.942834    40.132687   298.529785
  14 :     0.172586     0.078104     0.205633     5.942834    40.132687   298.529785
  15 :     0.561407     0.172076     0.259866     5.665011    40.623811   335.432233
  16 :     0.561407     0.172076     0.259866     5.665011    40.623811   335.432233
  17 :     0.561407     0.172076     0.259866     5.665011    40.623811   335.432233
  18 :     1.273658     0.362232     0.384900     3.945295    20.987619   141.133815
  19 :     1.273658     0.362232     0.384900     3.945295    20.987619   141.133815
  20 :     1.273658     0.362232     0.384900     3.945295    20.987619   141.133815
  21 :     9.541187     1.887079     0.846482     2.358643     8.885493    48.597549
  22 :     9.541187     1.887079     0.846482     2.358643     8.885493    48.597549
  23 :     9.541187     1.887079     0.846482     2.358643     8.885493    48.597549
  24 :     0.010270     0.040907     0.191790     5.658005    34.282193  1102.728180
  25 :     0.010270     0.040907     0.191790     5.658005    34.282193  1102.728180
  26 :     0.010270     0.040907     0.191790     5.658005    34.282193  1102.728180
  27 :     0.010270     0.040907     0.191790     5.658005    34.282193  1102.728180
  28 :     0.010270     0.040907     0.191790     5.658005    34.282193  1102.728180
  29 :     0.089593     0.165833     0.375043     3.198821    12.764593   320.980888
  30 :     0.089593     0.165833     0.375043     3.198821    12.764593   320.980888
  31 :     0.089593     0.165833     0.375043     3.198821    12.764593   320.980889
  32 :     0.089593     0.165833     0.375043     3.198821    12.764593   320.980888
  33 :     0.089593     0.165833     0.375043     3.198821    12.764593   320.980889
  34 :     0.560875     0.553922     0.674941     1.888418     4.921673    91.922028
  35 :     0.560875     0.553922     0.674941     1.888418     4.921673    91.922028
  36 :     0.560875     0.553922     0.674941     1.888418     4.921673    91.922028
  37 :     0.560875     0.553922     0.674941     1.888418     4.921673    91.922028
  38 :     0.560875     0.553922     0.674941     1.888418     4.921673    91.922028
  39 :     2.785150     1.680480     1.183937     1.096968     1.779738    23.821160
  40 :     2.785150     1.680480     1.183937     1.096968     1.779738    23.821160
  41 :     2.785150     1.680480     1.183937     1.096968     1.779738    23.821160
  42 :     2.785150     1.680480     1.183937     1.096968     1.779738    23.821160
  43 :     2.785150     1.680480     1.183937     1.096968     1.779738    23.821160
  44 :    16.381251     5.504458     2.148976     0.604161     0.564619     5.167937
  45 :    16.381251     5.504458     2.148976     0.604161     0.564619     5.167937
  46 :    16.381251     5.504458     2.148976     0.604161     0.564619     5.167937
  47 :    16.381251     5.504458     2.148976     0.604161     0.564619     5.167937
  48 :    16.381251     5.504458     2.148976     0.604161     0.564619     5.167937
  49 :     0.031157     0.091449     0.291810     3.647438    14.062338   398.937486
  50 :     0.031157     0.091449     0.291810     3.647438    14.062338   398.937486
  51 :     0.031157     0.091449     0.291810     3.647438    14.062338   398.937486
  52 :     0.031157     0.091449     0.291810     3.647438    14.062338   398.937486
  53 :     0.031157     0.091449     0.291810     3.647438    14.062338   398.937486
  54 :     0.031157     0.091449     0.291810     3.647438    14.062338   398.937486
  55 :     0.031157     0.091449     0.291810     3.647438    14.062338   398.937486
  56 :     6.444895     3.199980     1.726267     0.616683     0.402525     1.948942
  57 :     6.444895     3.199980     1.726267     0.616683     0.402525     1.948942
  58 :     6.444895     3.199980     1.726267     0.616683     0.402525     1.948942
  59 :     6.444895     3.199980     1.726267     0.616683     0.402525     1.948942
  60 :     6.444895     3.199980     1.726267     0.616683     0.402525     1.948942
  61 :     6.444895     3.199980     1.726267     0.616683     0.402525     1.948942
  62 :     6.444895     3.199980     1.726267     0.616683     0.402525     1.948942
-------
TIMINGS
-------

Total SCF time: 0 days 0 hours 0 min 1 sec 

Total time                  ....       1.434 sec
Sum of individual times     ....       1.240 sec  ( 86.4%)

Fock matrix formation       ....       1.134 sec  ( 79.1%)
Diagonalization             ....       0.002 sec  (  0.1%)
Density matrix formation    ....       0.000 sec  (  0.0%)
Population analysis         ....       0.008 sec  (  0.6%)
Initial guess               ....       0.075 sec  (  5.3%)
Orbital Transformation      ....       0.000 sec  (  0.0%)
Orbital Orthonormalization  ....       0.000 sec  (  0.0%)
DIIS solution               ....       0.000 sec  (  0.0%)
SOSCF solution              ....       0.005 sec  (  0.4%)


------------------------------------------------------------------------------- 
                              ORCA-MATRIX DRIVEN CI                            
------------------------------------------------------------------------------- 

--------------------------------
AUTOMATIC CHOICE OF INCORE LEVEL
--------------------------------

Memory available                           ...   2500.00 MB
Memory needed for S+T                      ...      0.07 MB
Memory needed for J+K                      ...      0.15 MB
Memory needed for DIIS                     ...      1.04 MB
Memory needed for 3-ext                    ...      1.41 MB
Memory needed for 4-ext                    ...     40.97 MB
Memory needed for triples                  ...      7.06 MB
 -> Final InCoreLevel    ... 5
 -> check shows that triples correction can be computed


Wavefunction type
-----------------
Correlation treatment                      ...      CCSD     
Single excitations                         ... ON
Orbital optimization                       ... OFF
Calculation of Z vector                    ... OFF
Calculation of Brueckner orbitals          ... OFF
Perturbative triple excitations            ... ON
Calculation of F12 correction              ... OFF
Frozen core treatment                      ... chemical core (10 el)
Reference Wavefunction                     ... RHF
  Internal Orbitals:     5 ...    5 (  1 MO's/  2 electrons)
  Virtual  Orbitals:     6 ...   62 ( 57 MO's              )
Number of AO's                             ...     63
Number of electrons                        ...     12
Number of correlated electrons             ...      2

Algorithmic settings
--------------------
Integral transformation                    ... AO direct full transformation
K(C) Formation                             ... FULL-MO TRAFO
Maximum number of iterations               ...        50
Convergence tolerance (max. residuum)      ... 1.000e-05
Level shift for amplitude update           ... 2.000e-01
Maximum number of DIIS vectors             ...         7
DIIS turned on at iteration                ...         0
Damping before turning on DIIS             ...     0.500
Damping after turning on DIIS              ...     0.000
Pair specific amplitude update             ... OFF
Natural orbital iterations                 ... OFF
Perturbative natural orbital generation    ... OFF
Printlevel                                 ... 2

Memory handling:
----------------
Maximum memory for working arrays          ...   2500 MB
Data storage in matrix containers          ... UNCOMPRESSED
Data type for integral storage             ... DOUBLE
In-Core Storage of quantities:
   Amplitudes+Sigma Vector      ... YES
   J+K operators                ... YES
   DIIS vectors                 ... YES
   3-external integrals         ... YES
   4-external integrals         ... YES


Initializing the integral package          ... done
Warning: reference  - re-canonicalizations have been set to INT 1 VIRT 1

--------------------------
CLOSED-SHELL FOCK OPERATOR
--------------------------

<ss|ss>:         1035 b            0 skpd (  0.0%)    0.001 s ( 0.001 ms/b)
<ss|sp>:         2025 b            0 skpd (  0.0%)    0.003 s ( 0.001 ms/b)
<ss|sd>:         2025 b            0 skpd (  0.0%)    0.002 s ( 0.001 ms/b)
<ss|sf>:          810 b            0 skpd (  0.0%)    0.001 s ( 0.001 ms/b)
<ss|pp>:          675 b            0 skpd (  0.0%)    0.002 s ( 0.003 ms/b)
<ss|pd>:         1125 b            0 skpd (  0.0%)    0.002 s ( 0.002 ms/b)
<ss|pf>:          450 b            0 skpd (  0.0%)    0.001 s ( 0.003 ms/b)
<ss|dd>:          675 b            0 skpd (  0.0%)    0.001 s ( 0.001 ms/b)
<ss|df>:          450 b            0 skpd (  0.0%)    0.001 s ( 0.002 ms/b)
<ss|ff>:          135 b            0 skpd (  0.0%)    0.000 s ( 0.003 ms/b)
<sp|sp>:         1035 b            0 skpd (  0.0%)    0.002 s ( 0.002 ms/b)
<sp|sd>:         2025 b            0 skpd (  0.0%)    0.003 s ( 0.002 ms/b)
<sp|sf>:          810 b            0 skpd (  0.0%)    0.002 s ( 0.002 ms/b)
<sp|pp>:          675 b            0 skpd (  0.0%)    0.003 s ( 0.005 ms/b)
<sp|pd>:         1125 b           11 skpd (  1.0%)    0.004 s ( 0.004 ms/b)
<sp|pf>:          450 b            6 skpd (  1.3%)    0.002 s ( 0.005 ms/b)
<sp|dd>: done
<sp|df>:          450 b          383 skpd ( 85.1%)    0.001 s ( 0.011 ms/b)
<sp|ff>:          135 b          109 skpd ( 80.7%)    0.000 s ( 0.014 ms/b)
<sd|sd>:         1035 b            0 skpd (  0.0%)    0.002 s ( 0.002 ms/b)
<sd|sf>:          810 b            0 skpd (  0.0%)    0.002 s ( 0.003 ms/b)
<sd|pp>:          675 b            3 skpd (  0.4%)    0.003 s ( 0.005 ms/b)
<sd|pd>: done
<sd|pf>:          450 b          417 skpd ( 92.7%)    0.000 s ( 0.012 ms/b)
<sd|dd>: done
<sd|df>: done
<sd|ff>: done
<sf|sf>:          171 b            2 skpd (  1.2%)    0.001 s ( 0.005 ms/b)
<sf|pp>:          270 b            5 skpd (  1.9%)    0.002 s ( 0.009 ms/b)
<sf|pd>:          450 b          403 skpd ( 89.6%)    0.001 s ( 0.015 ms/b)
<sf|pf>:          180 b          167 skpd ( 92.8%)    0.000 s ( 0.029 ms/b)
<sf|dd>: done
<sf|df>: done
<sf|ff>: done
<pp|pp>:          120 b            0 skpd (  0.0%)    0.002 s ( 0.018 ms/b)
<pp|pd>:          375 b            0 skpd (  0.0%)    0.004 s ( 0.011 ms/b)
<pp|pf>:          150 b            0 skpd (  0.0%)    0.003 s ( 0.017 ms/b)
<pp|dd>:          225 b            0 skpd (  0.0%)    0.002 s ( 0.011 ms/b)
<pp|df>:          150 b            0 skpd (  0.0%)    0.003 s ( 0.018 ms/b)
<pp|ff>:           45 b            0 skpd (  0.0%)    0.001 s ( 0.028 ms/b)
<pd|pd>:          325 b            1 skpd (  0.3%)    0.004 s ( 0.012 ms/b)
<pd|pf>:          250 b            1 skpd (  0.4%)    0.004 s ( 0.017 ms/b)
<pd|dd>: done
<pd|df>:          250 b          219 skpd ( 87.6%)    0.001 s ( 0.037 ms/b)
<pd|ff>:           75 b           60 skpd ( 80.0%)    0.001 s ( 0.054 ms/b)
<pf|pf>:           55 b            1 skpd (  1.8%)    0.002 s ( 0.034 ms/b)
<pf|dd>:          150 b          131 skpd ( 87.3%)    0.001 s ( 0.035 ms/b)
<pf|df>:          100 b           89 skpd ( 89.0%)    0.001 s ( 0.076 ms/b)
<pf|ff>:           30 b           25 skpd ( 83.3%)    0.000 s ( 0.100 ms/b)
<dd|dd>: done
<dd|df>: done
<dd|ff>: done
<df|df>: done
<df|ff>: done
<ff|ff>: done
Recanonicalizing the internal orbitals
Recanonicalizing the virtual orbitals
Time needed for Fock operator              ...            0.081 sec
Reference energy                           ...   -199.614487887

------------------------------
PARTIAL COULOMB TRANSFORMATION
------------------------------

Transformation type                        ... one-operator
Dimension of the basis                     ...   63
Number of internal MOs                     ...   58 (5-62)
Pair cutoff                                ... 0.000e+00 Eh
Number of AO pairs included in the trafo   ... 2016
Total Number of distinct AO pairs          ... 2016
Memory devoted for trafo                   ... 2500.0 MB 
Max. Number of MO pairs treated together   ... 162539      
Max. Number of MOs treated per batch       ... 2579      
Number Format for Storage                  ... Double (8 Byte)
AO-integral source                         ... DIRECT
Integral package used                      ... LIBINT

Starting integral evaluation:
<ss|**>:        10395 b        0 skpd     0.041 s (  0.004 ms/b)
<sp|**>:        10395 b        0 skpd     0.116 s (  0.011 ms/b)
<sd|**>:        10395 b        0 skpd     0.176 s (  0.017 ms/b)
<sf|**>:         4158 b        0 skpd     0.111 s (  0.027 ms/b)
<pp|**>:         3465 b        0 skpd     0.107 s (  0.031 ms/b)
<pd|**>:         5775 b        0 skpd     0.266 s (  0.046 ms/b)
<pf|**>:         2310 b        0 skpd     0.157 s (  0.068 ms/b)
<dd|**>:         3465 b        0 skpd     0.217 s (  0.063 ms/b)
<df|**>:         2310 b        0 skpd     0.238 s (  0.103 ms/b)
<ff|**>:          693 b        0 skpd     0.087 s (  0.126 ms/b)
Closing buffer AOJ ( 0.03 GB; CompressionRatio= 1.00)
Collecting buffer AOJ 
    ... done with AO integral generation
Number of MO pairs included in the trafo   ... 1711
    ... Now sorting integrals
IBATCH = 1 of  1
Closing buffer JAO ( 0.03 GB; CompressionRatio= 1.00)
Collecting buffer JAO 
TOTAL TIME for half transformation         ...     2.492 sec
AO-integral generation                     ...     0.566 sec
Half transformation                        ...     0.953 sec
J-integral sorting                         ...     0.957 sec

-------------------------- SECOND HALF TRANSFORMATION -------------------------
Formation of (pq|rs)                       ... ok (     0.881 sec)
Integral sorting                           ... ok (     0.141 sec)

------------------
CLOSED SHELL GUESS
------------------

Initial guess performed in     0.000 sec
E(0)                                       ...   -199.614487887
E(MP2)                                     ...     -0.023599786
Initial E(tot)                             ...   -199.638087673
<T|T>                                      ...      0.027741203
Number of pairs included                   ... 1
Total number of pairs                      ... 1

------------------------------------------------
                  RHF COUPLED CLUSTER ITERATIONS
------------------------------------------------

Number of amplitudes to be optimized       ... 3306

Iter       E(tot)           E(Corr)          Delta-E          Residual     Time
  0   -199.638087673     -0.023599786      0.000000000      0.010868507    0.03
                           *** Turning on DIIS ***
  1   -199.642156551     -0.027668664     -0.004068878      0.006750209    0.05
  2   -199.646380188     -0.031892302     -0.004223637      0.002468622    0.05
  3   -199.648001016     -0.033513129     -0.001620828      0.000605585    0.05
  4   -199.648243645     -0.033755759     -0.000242630      0.000253327    0.05
  5   -199.648281380     -0.033793493     -0.000037735      0.000065407    0.06
  6   -199.648285165     -0.033797279     -0.000003785      0.000017840    0.05
  7   -199.648286309     -0.033798422     -0.000001144      0.000004330    0.05
               --- The Coupled-Cluster iterations have converged ---

----------------------
COUPLED CLUSTER ENERGY
----------------------

E(0)                                       ...   -199.614487887
E(CORR)                                    ...     -0.033798422
E(TOT)                                     ...   -199.648286309
Singles Norm <S|S>**1/2                    ...      0.023870779  
T1 diagnostic                              ...      0.016879190  

------------------
LARGEST AMPLITUDES
------------------
   5->  6   5->  6       0.084935
   5->  7   5->  7       0.084935
   5->  8   5->  8       0.084935
   5->  8   5-> 12       0.071399
   5-> 12   5->  8       0.071399
   5-> 12   5-> 12       0.062590
   5-> 11   5-> 11       0.062590
   5-> 10   5-> 10       0.062590
   5->  7   5-> 11       0.061150
   5-> 11   5->  7       0.061150
   5->  6   5-> 10       0.061110
   5-> 10   5->  6       0.061110
   5->  7   5-> 10       0.036954
   5-> 10   5->  7       0.036954
   5->  6   5-> 11       0.036924
   5-> 11   5->  6       0.036924


        !!!!!!!!!!!!!!!!!!!!!!!!!!!!!!!!!!!!!!!!!!!!!!!!!!!!!!!!!!!!!!!!!!!!!!!!!! 
        !  Warning: Densities are linearized densities !                         !
        !!!!!!!!!!!!!!!!!!!!!!!!!!!!!!!!!!!!!!!!!!!!!!!!!!!!!!!!!!!!!!!!!!!!!!!!!! 

Trace of internal density part =     -0.148939719
Trace of external density part =      0.148939719
----------------------
RHF TRIPLES CORRECTION (Algorithm 1)
----------------------

Multiplier for the singles contribution    ...      1.000000000

Triples Correction (T)                     ...      0.000000000
Scaling of triples based on CCSD energies (Peterson et al. Molecular Physics 113, 1551 (2015))
E(T*) = f*E(T) where f = E(F12-CCSD)/E(CCSD) 
f = CCSD (with F12)/ CCSD (without F12)    ...      1.000000000
Scaled triples correction (T)              ...      0.000000000

Final correlation energy                   ...     -0.033798422
E(CCSD)                                    ...   -199.648286309
E(CCSD(T))                                 ...   -199.648286309

NORM  =      1.075039674 sqrt=     1.036841200
W(HF) =      0.930198229
------------------------------------------------------------------------------
                           ORCA POPULATION ANALYSIS
------------------------------------------------------------------------------
Input electron density              ... 12_Mg.mdcip
BaseName (.gbw .S,...)              ... 12_Mg

                    ********************************
                    * MULLIKEN POPULATION ANALYSIS *
                    ********************************

-----------------------
MULLIKEN ATOMIC CHARGES
-----------------------
   0 Mg:   -0.000000
Sum of atomic charges:   -0.0000000

--------------------------------
MULLIKEN REDUCED ORBITAL CHARGES
--------------------------------
  0 Mgs       :     5.855872  s :     5.855872
      pz      :     2.047399  p :     6.142198
      px      :     2.047399
      py      :     2.047399
      dz2     :     0.000351  d :     0.001755
      dxz     :     0.000351
      dyz     :     0.000351
      dx2y2   :     0.000351
      dxy     :     0.000351
      f0      :     0.000025  f :     0.000175
      f+1     :     0.000025
      f-1     :     0.000025
      f+2     :     0.000025
      f-2     :     0.000025
      f+3     :     0.000025
      f-3     :     0.000025


                     *******************************
                     * LOEWDIN POPULATION ANALYSIS *
                     *******************************

----------------------
LOEWDIN ATOMIC CHARGES
----------------------
   0 Mg:    0.000000

-------------------------------
LOEWDIN REDUCED ORBITAL CHARGES
-------------------------------
  0 Mgs       :     5.855872  s :     5.855872
      pz      :     2.047399  p :     6.142198
      px      :     2.047399
      py      :     2.047399
      dz2     :     0.000351  d :     0.001755
      dxz     :     0.000351
      dyz     :     0.000351
      dx2y2   :     0.000351
      dxy     :     0.000351
      f0      :     0.000025  f :     0.000175
      f+1     :     0.000025
      f-1     :     0.000025
      f+2     :     0.000025
      f-2     :     0.000025
      f+3     :     0.000025
      f-3     :     0.000025


                      *****************************
                      * MAYER POPULATION ANALYSIS *
                      *****************************

  NA   - Mulliken gross atomic population
  ZA   - Total nuclear charge
  QA   - Mulliken gross atomic charge
  VA   - Mayer's total valence
  BVA  - Mayer's bonded valence
  FA   - Mayer's free valence

  ATOM       NA         ZA         QA         VA         BVA        FA
  0 Mg    12.0000    12.0000    -0.0000     0.5625     0.0000     0.5625





------------------------------------------------------------------------------- 
                                     TIMINGS                                   
------------------------------------------------------------------------------- 


Total execution time                   ...        4.148 sec

Fock Matrix Formation                  ...        0.081 sec (  2.0%)
Initial Guess                          ...        0.000 sec (  0.0%)
DIIS Solver                            ...        0.001 sec (  0.0%)
State Vector Update                    ...        0.000 sec (  0.0%)
Sigma-vector construction              ...        0.379 sec (  9.1%)
  <D|H|D>(4-ext)                       ...        0.156 sec ( 41.2% of sigma)
  <D|H|D>(4-ext-corr)                  ...        0.026 sec (  6.8% of sigma)
  <S|H|D>(3-ext)                       ...        0.004 sec (  1.0% of sigma)
  Fock-dressing                        ...        0.181 sec ( 47.9% of sigma)
  (ij|ab),(ia|jb)-dressing             ...        0.004 sec (  1.1% of sigma)
Total Time for computing (T)           ...        0.001 sec (  0.0% of ALL)


-------------------------   --------------------
FINAL SINGLE POINT ENERGY      -199.648286309084
-------------------------   --------------------


                            ***************************************
                            *     ORCA property calculations      *
                            ***************************************

                                    ---------------------
                                    Active property flags
                                    ---------------------
   (+) Dipole Moment


------------------------------------------------------------------------------
                       ORCA ELECTRIC PROPERTIES CALCULATION
------------------------------------------------------------------------------

Dipole Moment Calculation                       ... on
Quadrupole Moment Calculation                   ... off
Polarizability Calculation                      ... off
GBWName                                         ... 12_Mg.gbw
Electron density file                           ... 12_Mg.scfp
The origin for moment calculation is the CENTER OF MASS  = ( 0.000000,  0.000000  0.000000)

-------------
DIPOLE MOMENT
-------------
                                X             Y             Z
Electronic contribution:      0.00000      -0.00000      -0.00000
Nuclear contribution   :      0.00000       0.00000       0.00000
                        -----------------------------------------
Total Dipole Moment    :      0.00000      -0.00000      -0.00000
                        -----------------------------------------
Magnitude (a.u.)       :      0.00000
Magnitude (Debye)      :      0.00000



--------------------
Rotational spectrum 
--------------------
 
Rotational constants in cm-1:     0.000000     0.000000     0.000000 
Rotational constants in MHz :     0.000000     0.000000     0.000000 

 Dipole components along the rotational axes: 
x,y,z [a.u.] :     0.000000    -0.000000    -0.000000 
x,y,z [Debye]:     0.000000    -0.000000    -0.000000 

 

                           *** MDCI DENSITY ***

------------------------------------------------------------------------------
                       ORCA ELECTRIC PROPERTIES CALCULATION
------------------------------------------------------------------------------

Dipole Moment Calculation                       ... on
Quadrupole Moment Calculation                   ... off
Polarizability Calculation                      ... off
GBWName                                         ... 12_Mg.gbw
Electron density file                           ... 12_Mg.mdcip
The origin for moment calculation is the CENTER OF MASS  = ( 0.000000,  0.000000  0.000000)

-------------
DIPOLE MOMENT
-------------
                                X             Y             Z
Electronic contribution:      0.00000      -0.00000       0.00000
Nuclear contribution   :      0.00000       0.00000       0.00000
                        -----------------------------------------
Total Dipole Moment    :      0.00000      -0.00000       0.00000
                        -----------------------------------------
Magnitude (a.u.)       :      0.00000
Magnitude (Debye)      :      0.00000



--------------------
Rotational spectrum 
--------------------
 
Rotational constants in cm-1:     0.000000     0.000000     0.000000 
Rotational constants in MHz :     0.000000     0.000000     0.000000 

 Dipole components along the rotational axes: 
x,y,z [a.u.] :     0.000000    -0.000000     0.000000 
x,y,z [Debye]:     0.000000    -0.000000     0.000000 

 

Timings for individual modules:

Sum of individual times         ...        5.981 sec (=   0.100 min)
GTO integral calculation        ...        0.235 sec (=   0.004 min)   3.9 %
SCF iterations                  ...        1.483 sec (=   0.025 min)  24.8 %
MDCI module                     ...        4.263 sec (=   0.071 min)  71.3 %
                             ****ORCA TERMINATED NORMALLY****
TOTAL RUN TIME: 0 days 0 hours 0 minutes 6 seconds 281 msec
