
                                 *****************
                                 * O   R   C   A *
                                 *****************

           --- An Ab Initio, DFT and Semiempirical electronic structure package ---

                  #######################################################
                  #                        -***-                        #
                  #          Department of theory and spectroscopy      #
                  #               Directorship: Frank Neese             #
                  #        Max Planck Institute fuer Kohlenforschung    #
                  #                Kaiser Wilhelm Platz 1               #
                  #                 D-45470 Muelheim/Ruhr               #
                  #                      Germany                        #
                  #                                                     #
                  #                  All rights reserved                #
                  #                        -***-                        #
                  #######################################################


                         Program Version 4.2.0 -  RELEASE  -


 With contributions from (in alphabetic order):
   Daniel Aravena         : Magnetic Suceptibility
   Michael Atanasov       : Ab Initio Ligand Field Theory (pilot matlab implementation)
   Alexander A. Auer      : GIAO ZORA, VPT2
   Ute Becker             : Parallelization
   Giovanni Bistoni       : ED, misc. LED, open-shell LED, HFLED
   Martin Brehm           : Molecular dynamics
   Dmytro Bykov           : SCF Hessian
   Vijay G. Chilkuri      : MRCI spin determinant printing, contributions to CSF-ICE
   Dipayan Datta          : RHF DLPNO-CCSD density
   Achintya Kumar Dutta   : EOM-CC, STEOM-CC
   Dmitry Ganyushin       : Spin-Orbit,Spin-Spin,Magnetic field MRCI
   Miquel Garcia          : C-PCM Hessian, Gaussian charge scheme
   Yang Guo               : DLPNO-NEVPT2, CIM, IAO-localization
   Andreas Hansen         : Spin unrestricted coupled pair/coupled cluster methods
   Benjamin Helmich-Paris : CASSCF linear response (MC-RPA)
   Lee Huntington         : MR-EOM, pCC
   Robert Izsak           : Overlap fitted RIJCOSX, COSX-SCS-MP3, EOM
   Christian Kollmar      : KDIIS, OOCD, Brueckner-CCSD(T), CCSD density
   Simone Kossmann        : Meta GGA functionals, TD-DFT gradient, OOMP2, MP2 Hessian
   Martin Krupicka        : AUTO-CI
   Lucas Lang             : DCDCAS
   Dagmar Lenk            : GEPOL surface, SMD
   Dimitrios Liakos       : Extrapolation schemes; Compound Job, initial MDCI parallelization
   Dimitrios Manganas     : Further ROCIS development; embedding schemes
   Dimitrios Pantazis     : SARC Basis sets
   Taras Petrenko         : DFT Hessian,TD-DFT gradient, ASA, ECA, R-Raman, ABS, FL, XAS/XES, NRVS
   Peter Pinski           : DLPNO-MP2, DLPNO-MP2 Gradient
   Christoph Reimann      : Effective Core Potentials
   Marius Retegan         : Local ZFS, SOC
   Christoph Riplinger    : Optimizer, TS searches, QM/MM, DLPNO-CCSD(T), (RO)-DLPNO pert. Triples
   Tobias Risthaus        : Range-separated hybrids, TD-DFT gradient, RPA, STAB
   Michael Roemelt        : Original ROCIS implementation
   Masaaki Saitow         : Open-shell DLPNO-CCSD energy and density
   Barbara Sandhoefer     : DKH picture change effects
   Avijit Sen             : IP-ROCIS
   Kantharuban Sivalingam : CASSCF convergence, NEVPT2, FIC-MRCI
   Bernardo de Souza      : ESD, SOC TD-DFT
   Georgi Stoychev        : AutoAux, RI-MP2 NMR
   Willem Van den Heuvel  : Paramagnetic NMR
   Boris Wezisla          : Elementary symmetry handling
   Frank Wennmohs         : Technical directorship


 We gratefully acknowledge several colleagues who have allowed us to
 interface, adapt or use parts of their codes:
   Stefan Grimme, W. Hujo, H. Kruse,             : VdW corrections, initial TS optimization,
                  C. Bannwarth                     DFT functionals, gCP, sTDA/sTD-DF
   Ed Valeev, F. Pavosevic, A. Kumar             : LibInt (2-el integral package), F12 methods
   Garnet Chan, S. Sharma, J. Yang, R. Olivares  : DMRG
   Ulf Ekstrom                                   : XCFun DFT Library
   Mihaly Kallay                                 : mrcc  (arbitrary order and MRCC methods)
   Andreas Klamt, Michael Diedenhofen            : otool_cosmo (COSMO solvation model)
   Jiri Pittner, Ondrej Demel                    : Mk-CCSD
   Frank Weinhold                                : gennbo (NPA and NBO analysis)
   Christopher J. Cramer and Donald G. Truhlar   : smd solvation model
   Lars Goerigk                                  : TD-DFT with DH, B97 family of functionals
   V. Asgeirsson, H. Jonsson                     : NEB implementation
   FAccTs GmbH                                   : IRC, NEB, NEB-TS, Multilevel, MM, QM/MM, CI optimization
   S Lehtola, MJT Oliveira, MAL Marques          : LibXC Library


 Your calculation uses the libint2 library for the computation of 2-el integrals
 For citations please refer to: http://libint.valeyev.net

 Your ORCA version has been built with support for libXC version: 4.2.3
 For citations please refer to: https://tddft.org/programs/libxc/

 This ORCA versions uses:
   CBLAS   interface :  Fast vector & matrix operations
   LAPACKE interface :  Fast linear algebra routines
   SCALAPACK package :  Parallel linear algebra routines


----- Orbital basis set information -----
Your calculation utilizes the basis: def2-QZVPPD
   F. Weigend and R. Ahlrichs, Phys. Chem. Chem. Phys. 7, 3297 (2005).
   D. Rappoport and F. Furche, J. Chem. Phys. 133 134105 (2010).

================================================================================
                                        WARNINGS
                       Please study these warnings very carefully!
================================================================================


WARNING: your system is open-shell and RHF/RKS was chosen
  ===> : WILL SWITCH to UHF/UKS


WARNING: MDCI localization with Augmented Hessian Foster-Boys
  ===> : Switching off randomization!

WARNING: Post HF methods need fully converged wavefunctions
  ===> : Setting SCFConvForced true
         You can overwrite this default with %scf ConvForced false 


INFO   : the flag for use of LIBINT has been found!

================================================================================
                                       INPUT FILE
================================================================================
NAME = 13_Al.in
|  1> #
|  2> # 13_Al CCSD(T)/Def2-QZVPPD
|  3> #
|  4> ! CCSD(T) Def2-QZVPPD tightscf
|  5> 
|  6> *xyz 0 2
|  7>  Al 0.0 0.0 0.0
|  8> *
|  9> 
| 10> %maxcore 5000 
| 11> 
| 12> %pal
| 13> nprocs 3
| 14> end
| 15> 
| 16> 
| 17>                          ****END OF INPUT****
================================================================================

                       ****************************
                       * Single Point Calculation *
                       ****************************

---------------------------------
CARTESIAN COORDINATES (ANGSTROEM)
---------------------------------
  Al     0.000000    0.000000    0.000000

----------------------------
CARTESIAN COORDINATES (A.U.)
----------------------------
  NO LB      ZA    FRAG     MASS         X           Y           Z
   0 Al   13.0000    0    26.982    0.000000    0.000000    0.000000

--------------------------------
INTERNAL COORDINATES (ANGSTROEM)
--------------------------------
 Al     0   0   0     0.000000000000     0.00000000     0.00000000

---------------------------
INTERNAL COORDINATES (A.U.)
---------------------------
 Al     0   0   0     0.000000000000     0.00000000     0.00000000

---------------------
BASIS SET INFORMATION
---------------------
There are 1 groups of distinct atoms

 Group   1 Type Al  : 21s14p5d2f1g contracted to 10s6p5d2f1g pattern {10311111111/821111/11111/11/1}

Atom   0Al   basis set group =>   1


           ************************************************************
           *        Program running with 3 parallel MPI-processes     *
           *              working on a common directory               *
           ************************************************************
------------------------------------------------------------------------------
                           ORCA GTO INTEGRAL CALCULATION
------------------------------------------------------------------------------

                         BASIS SET STATISTICS AND STARTUP INFO

 # of primitive gaussian shells          ...   43
 # of primitive gaussian functions       ...  111
 # of contracted shells                  ...   24
 # of contracted basis functions         ...   76
 Highest angular momentum                ...    4
 Maximum contraction depth               ...   10
 Integral package used                   ... LIBINT
 Integral threshhold            Thresh   ...  2.500e-11
 Primitive cut-off              TCut     ...  2.500e-12


------------------------------ INTEGRAL EVALUATION ----------------------------


 * One electron integrals 
 Pre-screening matrix                    ... done
 Shell pair data                         ... done (   0.000 sec)



           ************************************************************
           *        Program running with 3 parallel MPI-processes     *
           *              working on a common directory               *
           ************************************************************
-------------------------------------------------------------------------------
                                 ORCA SCF
-------------------------------------------------------------------------------

------------
SCF SETTINGS
------------
Hamiltonian:
 Ab initio Hamiltonian  Method          .... Hartree-Fock(GTOs)


General Settings:
 Integral files         IntName         .... 13_Al
 Hartree-Fock type      HFTyp           .... UHF
 Total Charge           Charge          ....    0
 Multiplicity           Mult            ....    2
 Number of Electrons    NEL             ....   13
 Basis Dimension        Dim             ....   76
 Nuclear Repulsion      ENuc            ....      0.0000000000 Eh

Convergence Acceleration:
 DIIS                   CNVDIIS         .... on
   Start iteration      DIISMaxIt       ....    12
   Startup error        DIISStart       ....  0.200000
   # of expansion vecs  DIISMaxEq       ....     5
   Bias factor          DIISBfac        ....   1.050
   Max. coefficient     DIISMaxC        ....  10.000
 Newton-Raphson         CNVNR           .... off
 SOSCF                  CNVSOSCF        .... off
 Level Shifting         CNVShift        .... on
   Level shift para.    LevelShift      ....    0.2500
   Turn off err/grad.   ShiftErr        ....    0.0010
 Zerner damping         CNVZerner       .... off
 Static damping         CNVDamp         .... on
   Fraction old density DampFac         ....    0.7000
   Max. Damping (<1)    DampMax         ....    0.9800
   Min. Damping (>=0)   DampMin         ....    0.0000
   Turn off err/grad.   DampErr         ....    0.1000
 Fernandez-Rico         CNVRico         .... off

SCF Procedure:
 Maximum # iterations   MaxIter         ....   125
 SCF integral mode      SCFMode         .... Direct
   Integral package                     .... LIBINT
 Reset frequency        DirectResetFreq ....    20
 Integral Threshold     Thresh          ....  2.500e-11 Eh
 Primitive CutOff       TCut            ....  2.500e-12 Eh

Convergence Tolerance:
 Convergence Check Mode ConvCheckMode   .... Total+1el-Energy
 Convergence forced     ConvForced      .... 1
 Energy Change          TolE            ....  1.000e-08 Eh
 1-El. energy change                    ....  1.000e-05 Eh
 DIIS Error             TolErr          ....  5.000e-07


Diagonalization of the overlap matrix:
Smallest eigenvalue                        ... 2.882e-03
Time for diagonalization                   ...    0.001 sec
Threshold for overlap eigenvalues          ... 1.000e-08
Number of eigenvalues below threshold      ... 0
Time for construction of square roots      ...    0.004 sec
Total time needed                          ...    0.005 sec

-------------------
DFT GRID GENERATION
-------------------

General Integration Accuracy     IntAcc      ...  4.340
Radial Grid Type                 RadialGrid  ... Gauss-Chebyshev
Angular Grid (max. acc.)         AngularGrid ... Lebedev-110
Angular grid pruning method      GridPruning ... 3 (G Style)
Weight generation scheme         WeightScheme... Becke
Basis function cutoff            BFCut       ...    1.0000e-11
Integration weight cutoff        WCut        ...    1.0000e-14
Grids for H and He will be reduced by one unit

# of grid points (after initial pruning)     ...   1866 (   0.0 sec)
# of grid points (after weights+screening)   ...   1866 (   0.0 sec)
Grid point division into batches done        ...    0.0 sec
Reduced shell lists constructed in    0.0 sec

Total number of grid points                  ...     1866
Total number of batches                      ...       30
Average number of points per batch           ...       62
Average number of grid points per atom       ...     1866
Average number of shells per batch           ...    14.82 (61.74%)
Average number of basis functions per batch  ...    57.00 (75.00%)
Average number of large shells per batch     ...    13.18 (88.96%)
Average number of large basis fcns per batch ...    50.82 (89.15%)
Maximum spatial batch extension              ...  21.07, 38.78, 38.78 au
Average spatial batch extension              ...   5.73,  7.22,  8.87 au

Time for grid setup =    0.022 sec

------------------------------
INITIAL GUESS: MODEL POTENTIAL
------------------------------
Loading Hartree-Fock densities                     ... done
Calculating cut-offs                               ... done
Setting up the integral package                    ... done
Initializing the effective Hamiltonian             ... done
Starting the Coulomb interaction                   ... done (   0.0 sec)
Reading the grid                                   ... done
Mapping shells                                     ... done
Starting the XC term evaluation                    ... done (   0.0 sec)
Transforming the Hamiltonian                       ... done (   0.0 sec)
Diagonalizing the Hamiltonian                      ... done (   0.0 sec)
Back transforming the eigenvectors                 ... done (   0.0 sec)
Now organizing SCF variables                       ... done
                      ------------------
                      INITIAL GUESS DONE (   0.1 sec)
                      ------------------
--------------
SCF ITERATIONS
--------------
ITER       Energy         Delta-E        Max-DP      RMS-DP      [F,P]     Damp
               ***  Starting incremental Fock matrix formation  ***
  0   -241.8599741946   0.000000000000 0.00986781  0.00035054  0.4848281 0.7000
  1   -241.8653101433  -0.005335948703 0.00751511  0.00028200  0.3423367 0.7000
  2   -241.8693470638  -0.004036920499 0.00550943  0.00021612  0.2416424 0.7000
                               ***Turning on DIIS***
  3   -241.8723546964  -0.003007632608 0.00402887  0.00016475  0.1707514 0.7000
  4   -241.8663835619   0.005971134489 0.00333352  0.00013886  0.1207764 0.7000
  5   -241.8739472955  -0.007563733613 0.00940715  0.00036787  0.0850487 0.0000
  6   -241.8806373243  -0.006690028828 0.00131203  0.00004973  0.0011823 0.0000
  7   -241.8809945042  -0.000357179836 0.00213596  0.00006683  0.0005725 0.0000
  8   -241.8803512878   0.000643216343 0.00122219  0.00003718  0.0002298 0.0000
  9   -241.8802830406   0.000068247228 0.00022797  0.00000843  0.0000642 0.0000
 10   -241.8806103735  -0.000327332950 0.00009754  0.00000251  0.0000149 0.0000
 11   -241.8806410836  -0.000030710098 0.00004357  0.00000112  0.0000051 0.0000
 12   -241.8806705986  -0.000029515004 0.00001326  0.00000026  0.0000015 0.0000
                            ***DIIS convergence achieved***

               *****************************************************
               *                     SUCCESS                       *
               *           SCF CONVERGED AFTER  13 CYCLES          *
               *****************************************************


----------------
TOTAL SCF ENERGY
----------------

Total Energy       :         -241.88067495 Eh           -6581.90778 eV

Components:
Nuclear Repulsion  :            0.00000000 Eh               0.00000 eV
Electronic Energy  :         -241.88067495 Eh           -6581.90778 eV
One Electron Energy:         -336.63682304 Eh           -9160.35366 eV
Two Electron Energy:           94.75614809 Eh            2578.44588 eV

Virial components:
Potential Energy   :         -483.76118030 Eh          -13163.81095 eV
Kinetic Energy     :          241.88050535 Eh            6581.90317 eV
Virial Ratio       :            2.00000070


---------------
SCF CONVERGENCE
---------------

  Last Energy change         ...   -4.3520e-06  Tolerance :   1.0000e-08
  Last MAX-Density change    ...    2.1375e-06  Tolerance :   1.0000e-07
  Last RMS-Density change    ...    4.4645e-08  Tolerance :   5.0000e-09
  Last DIIS Error            ...    1.9485e-07  Tolerance :   5.0000e-07

             **** THE GBW FILE WAS UPDATED (13_Al.gbw) ****
             **** DENSITY FILE WAS UPDATED (13_Al.scfp) ****
             **** ENERGY FILE WAS UPDATED (13_Al.en.tmp) ****
----------------------
UHF SPIN CONTAMINATION
----------------------

Expectation value of <S**2>     :     0.770589
Ideal value S*(S+1) for S=0.5   :     0.750000
Deviation                       :     0.020589

             **** THE GBW FILE WAS UPDATED (13_Al.gbw) ****
             **** DENSITY FILE WAS UPDATED (13_Al.scfp) ****
----------------
ORBITAL ENERGIES
----------------
                 SPIN UP ORBITALS
  NO   OCC          E(Eh)            E(eV) 
   0   1.0000     -58.500912     -1591.8908 
   1   1.0000      -4.910698      -133.6269 
   2   1.0000      -3.225171       -87.7614 
   3   1.0000      -3.217865       -87.5625 
   4   1.0000      -3.217865       -87.5625 
   5   1.0000      -0.425507       -11.5786 
   6   1.0000      -0.218507        -5.9459 
   7   0.0000       0.016939         0.4609 
   8   0.0000       0.016939         0.4609 
   9   0.0000       0.039834         1.0840 
  10   0.0000       0.088817         2.4168 
  11   0.0000       0.088817         2.4168 
  12   0.0000       0.089522         2.4360 
  13   0.0000       0.089522         2.4360 
  14   0.0000       0.090173         2.4537 
  15   0.0000       0.132543         3.6067 
  16   0.0000       0.155119         4.2210 
  17   0.0000       0.155119         4.2210 
  18   0.0000       0.222317         6.0496 
  19   0.0000       0.252640         6.8747 
  20   0.0000       0.254489         6.9250 
  21   0.0000       0.254489         6.9250 
  22   0.0000       0.263605         7.1730 
  23   0.0000       0.263605         7.1730 
  24   0.0000       0.578661        15.7462 
  25   0.0000       0.578661        15.7462 
  26   0.0000       0.583462        15.8768 
  27   0.0000       0.583462        15.8768 
  28   0.0000       0.585567        15.9341 
  29   0.0000       0.585567        15.9341 
  30   0.0000       0.586018        15.9464 
  31   0.0000       0.623953        16.9786 
  32   0.0000       0.631795        17.1920 
  33   0.0000       0.631795        17.1920 
  34   0.0000       0.647562        17.6211 
  35   0.0000       0.647682        17.6243 
  36   0.0000       0.647682        17.6243 
  37   0.0000       0.648824        17.6554 
  38   0.0000       0.648824        17.6554 
  39   0.0000       0.821146        22.3445 
  40   0.0000       1.499732        40.8098 
  41   0.0000       1.499732        40.8098 
  42   0.0000       1.511299        41.1245 
  43   0.0000       1.511299        41.1245 
  44   0.0000       1.515257        41.2322 
  45   0.0000       1.718187        46.7543 
  46   0.0000       1.718187        46.7543 
  47   0.0000       1.727336        47.0032 
  48   0.0000       1.727336        47.0032 
  49   0.0000       1.732819        47.1524 
  50   0.0000       1.732819        47.1524 
  51   0.0000       1.732950        47.1560 
  52   0.0000       1.732950        47.1560 
  53   0.0000       1.734641        47.2020 
  54   0.0000       1.742766        47.4231 
  55   0.0000       1.742766        47.4231 
  56   0.0000       1.749829        47.6153 
  57   0.0000       1.749829        47.6153 
  58   0.0000       1.754082        47.7310 
  59   0.0000       1.754082        47.7310 
  60   0.0000       1.755502        47.7696 
  61   0.0000       2.276236        61.9395 
  62   0.0000       2.276236        61.9395 
  63   0.0000       2.284288        62.1586 
  64   0.0000       3.403326        92.6092 
  65   0.0000       4.702617       127.9647 
  66   0.0000       4.702617       127.9647 
  67   0.0000       4.711974       128.2193 
  68   0.0000       4.711974       128.2193 
  69   0.0000       4.715202       128.3072 
  70   0.0000       8.006299       217.8625 
  71   0.0000       8.006299       217.8625 
  72   0.0000       8.012637       218.0349 
  73   0.0000      12.834229       349.2371 
  74   0.0000      46.722655      1271.3881 
  75   0.0000     256.796343      6987.7837 

                 SPIN DOWN ORBITALS
  NO   OCC          E(Eh)            E(eV) 
   0   1.0000     -58.497847     -1591.8073 
   1   1.0000      -4.907265      -133.5335 
   2   1.0000      -3.216299       -87.5199 
   3   1.0000      -3.216299       -87.5199 
   4   1.0000      -3.206949       -87.2655 
   5   1.0000      -0.363345        -9.8871 
   6   0.0000       0.023211         0.6316 
   7   0.0000       0.023211         0.6316 
   8   0.0000       0.042870         1.1666 
   9   0.0000       0.053451         1.4545 
  10   0.0000       0.089314         2.4304 
  11   0.0000       0.089314         2.4304 
  12   0.0000       0.095955         2.6111 
  13   0.0000       0.095955         2.6111 
  14   0.0000       0.098698         2.6857 
  15   0.0000       0.158199         4.3048 
  16   0.0000       0.158199         4.3048 
  17   0.0000       0.186819         5.0836 
  18   0.0000       0.230973         6.2851 
  19   0.0000       0.265064         7.2128 
  20   0.0000       0.265064         7.2128 
  21   0.0000       0.284838         7.7508 
  22   0.0000       0.284838         7.7508 
  23   0.0000       0.293473         7.9858 
  24   0.0000       0.579180        15.7603 
  25   0.0000       0.579180        15.7603 
  26   0.0000       0.598376        16.2827 
  27   0.0000       0.598376        16.2827 
  28   0.0000       0.609580        16.5875 
  29   0.0000       0.609580        16.5875 
  30   0.0000       0.614311        16.7162 
  31   0.0000       0.635426        17.2908 
  32   0.0000       0.635426        17.2908 
  33   0.0000       0.649264        17.6674 
  34   0.0000       0.649264        17.6674 
  35   0.0000       0.668021        18.1778 
  36   0.0000       0.675095        18.3703 
  37   0.0000       0.675095        18.3703 
  38   0.0000       0.685143        18.6437 
  39   0.0000       0.831627        22.6297 
  40   0.0000       1.499863        40.8133 
  41   0.0000       1.499863        40.8133 
  42   0.0000       1.522662        41.4337 
  43   0.0000       1.522662        41.4337 
  44   0.0000       1.531238        41.6671 
  45   0.0000       1.717436        46.7338 
  46   0.0000       1.717436        46.7338 
  47   0.0000       1.732163        47.1345 
  48   0.0000       1.732163        47.1345 
  49   0.0000       1.739662        47.3386 
  50   0.0000       1.739662        47.3386 
  51   0.0000       1.751608        47.6637 
  52   0.0000       1.751608        47.6637 
  53   0.0000       1.753513        47.7155 
  54   0.0000       1.753513        47.7155 
  55   0.0000       1.758242        47.8442 
  56   0.0000       1.765952        48.0540 
  57   0.0000       1.765952        48.0540 
  58   0.0000       1.774763        48.2938 
  59   0.0000       1.774763        48.2938 
  60   0.0000       1.777738        48.3747 
  61   0.0000       2.278300        61.9957 
  62   0.0000       2.278300        61.9957 
  63   0.0000       2.307991        62.8036 
  64   0.0000       3.408774        92.7575 
  65   0.0000       4.702749       127.9683 
  66   0.0000       4.702749       127.9683 
  67   0.0000       4.715912       128.3265 
  68   0.0000       4.715912       128.3265 
  69   0.0000       4.720525       128.4520 
  70   0.0000       8.007652       217.8993 
  71   0.0000       8.007652       217.8993 
  72   0.0000       8.025504       218.3851 
  73   0.0000      12.836927       349.3106 
  74   0.0000      46.724649      1271.4424 
  75   0.0000     256.796956      6987.8004 

                    ********************************
                    * MULLIKEN POPULATION ANALYSIS *
                    ********************************

--------------------------------------------
MULLIKEN ATOMIC CHARGES AND SPIN POPULATIONS
--------------------------------------------
   0 Al:   -0.000000    1.000000
Sum of atomic charges         :   -0.0000000
Sum of atomic spin populations:    1.0000000

-----------------------------------------------------
MULLIKEN REDUCED ORBITAL CHARGES AND SPIN POPULATIONS
-----------------------------------------------------
CHARGE
  0 Als       :     5.989550  s :     5.989550
      pz      :     2.000280  p :     6.999941
      px      :     2.492274
      py      :     2.507388
      dz2     :     0.002608  d :     0.010450
      dxz     :     0.000004
      dyz     :     0.000004
      dx2y2   :     0.000002
      dxy     :     0.007831
      f0      :     0.000000  f :     0.000059
      f+1     :     0.000011
      f-1     :     0.000011
      f+2     :     0.000000
      f-2     :     0.000000
      f+3     :     0.000019
      f-3     :     0.000017
      g0      :     0.000000  g :     0.000001
      g+1     :     0.000000
      g-1     :     0.000000
      g+2     :     0.000000
      g-2     :     0.000000
      g+3     :     0.000000
      g-3     :     0.000000
      g+4     :     0.000000
      g-4     :     0.000000

SPIN
  0 Als       :    -0.002109  s :    -0.002109
      pz      :     0.000281  p :     0.999945
      px      :     0.492275
      py      :     0.507389
      dz2     :     0.000526  d :     0.002109
      dxz     :     0.000001
      dyz     :     0.000001
      dx2y2   :     0.000000
      dxy     :     0.001581
      f0      :    -0.000000  f :     0.000055
      f+1     :     0.000010
      f-1     :     0.000011
      f+2     :    -0.000000
      f-2     :    -0.000000
      f+3     :     0.000018
      f-3     :     0.000016
      g0      :    -0.000000  g :    -0.000001
      g+1     :    -0.000000
      g-1     :    -0.000000
      g+2     :    -0.000000
      g-2     :    -0.000000
      g+3     :    -0.000000
      g-3     :    -0.000000
      g+4     :    -0.000000
      g-4     :    -0.000000


                     *******************************
                     * LOEWDIN POPULATION ANALYSIS *
                     *******************************

-------------------------------------------
LOEWDIN ATOMIC CHARGES AND SPIN POPULATIONS
-------------------------------------------
   0 Al:   -0.000000    1.000000

----------------------------------------------------
LOEWDIN REDUCED ORBITAL CHARGES AND SPIN POPULATIONS
----------------------------------------------------
CHARGE
  0 Als       :     5.989550  s :     5.989550
      pz      :     2.000280  p :     6.999941
      px      :     2.492274
      py      :     2.507388
      dz2     :     0.002608  d :     0.010450
      dxz     :     0.000004
      dyz     :     0.000004
      dx2y2   :     0.000002
      dxy     :     0.007831
      f0      :     0.000000  f :     0.000059
      f+1     :     0.000011
      f-1     :     0.000011
      f+2     :     0.000000
      f-2     :     0.000000
      f+3     :     0.000019
      f-3     :     0.000017
      g0      :     0.000000  g :     0.000001
      g+1     :     0.000000
      g-1     :     0.000000
      g+2     :     0.000000
      g-2     :     0.000000
      g+3     :     0.000000
      g-3     :     0.000000
      g+4     :     0.000000
      g-4     :     0.000000

SPIN
  0 Als       :    -0.002109  s :    -0.002109
      pz      :     0.000281  p :     0.999945
      px      :     0.492275
      py      :     0.507389
      dz2     :     0.000526  d :     0.002109
      dxz     :     0.000001
      dyz     :     0.000001
      dx2y2   :     0.000000
      dxy     :     0.001581
      f0      :    -0.000000  f :     0.000055
      f+1     :     0.000010
      f-1     :     0.000011
      f+2     :    -0.000000
      f-2     :    -0.000000
      f+3     :     0.000018
      f-3     :     0.000016
      g0      :    -0.000000  g :    -0.000001
      g+1     :    -0.000000
      g-1     :    -0.000000
      g+2     :    -0.000000
      g-2     :    -0.000000
      g+3     :    -0.000000
      g-3     :    -0.000000
      g+4     :    -0.000000
      g-4     :    -0.000000


                      *****************************
                      * MAYER POPULATION ANALYSIS *
                      *****************************

  NA   - Mulliken gross atomic population
  ZA   - Total nuclear charge
  QA   - Mulliken gross atomic charge
  VA   - Mayer's total valence
  BVA  - Mayer's bonded valence
  FA   - Mayer's free valence

  ATOM       NA         ZA         QA         VA         BVA        FA
  0 Al    13.0000    13.0000    -0.0000     1.0412     0.0000     1.0412

  Mayer bond orders larger than 0.100000


-------
TIMINGS
-------

Total SCF time: 0 days 0 hours 0 min 13 sec 

Total time                  ....      13.149 sec
Sum of individual times     ....      12.900 sec  ( 98.1%)

Fock matrix formation       ....       2.680 sec  ( 20.4%)
Diagonalization             ....       0.037 sec  (  0.3%)
Density matrix formation    ....       0.003 sec  (  0.0%)
Population analysis         ....       0.028 sec  (  0.2%)
Initial guess               ....       0.084 sec  (  0.6%)
Orbital Transformation      ....       0.000 sec  (  0.0%)
Orbital Orthonormalization  ....       0.000 sec  (  0.0%)
DIIS solution               ....      10.045 sec  ( 76.4%)


           ************************************************************
           *        Program running with 3 parallel MPI-processes     *
           *              working on a common directory               *
           ************************************************************


------------------------------------------------------------------------------- 
                              ORCA-MATRIX DRIVEN CI                            
------------------------------------------------------------------------------- 

--------------------------------
AUTOMATIC CHOICE OF INCORE LEVEL
--------------------------------

Memory available                           ...   2500.00 MB
Memory needed for S+T                      ...      0.33 MB
Memory needed for J+K                      ...      0.66 MB
Memory needed for DIIS                     ...      4.58 MB
Memory needed for 3-ext                    ...      5.01 MB
Memory needed for 4-ext                    ...     87.72 MB
Memory needed for triples                  ...     12.53 MB
 -> Final InCoreLevel    ... 5
 -> check shows that triples correction can be computed


Wavefunction type
-----------------
Correlation treatment                      ...      CCSD     
Single excitations                         ... ON
Orbital optimization                       ... OFF
Calculation of Z vector                    ... OFF
Calculation of Brueckner orbitals          ... OFF
Perturbative triple excitations            ... ON
Calculation of F12 correction              ... OFF
Frozen core treatment                      ... chemical core (10 el)
Reference Wavefunction                     ... UHF
  Alpha-MOs occ    :     5 ...    6 (  2 MO's/  2 electrons)
  Beta-MOs occ     :     5 ...    5 (  1 MO's/  1 electrons)
  Alpha-MOs virt   :     7 ...   75 ( 69 MO's              )
  Beta-MOs virt    :     6 ...   75 ( 70 MO's              )
Number of AO's                             ...     76
Number of electrons                        ...     13
Number of correlated electrons             ...      3

Algorithmic settings
--------------------
Integral transformation                    ... AO direct full transformation
K(C) Formation                             ... FULL-MO TRAFO
Maximum number of iterations               ...        50
Convergence tolerance (max. residuum)      ... 1.000e-05
Level shift for amplitude update           ... 2.000e-01
Maximum number of DIIS vectors             ...         7
DIIS turned on at iteration                ...         0
Damping before turning on DIIS             ...     0.500
Damping after turning on DIIS              ...     0.000
Pair specific amplitude update             ... OFF
Natural orbital iterations                 ... OFF
Perturbative natural orbital generation    ... OFF
Printlevel                                 ... 2

Memory handling:
----------------
Maximum memory for working arrays          ...   2500 MB
Data storage in matrix containers          ... UNCOMPRESSED
Data type for integral storage             ... DOUBLE
In-Core Storage of quantities:
   Amplitudes+Sigma Vector      ... YES
   J+K operators                ... YES
   DIIS vectors                 ... YES
   3-external integrals         ... YES
   4-external integrals         ... YES


Initializing the integral package          ... done
Warning: reference  - re-canonicalizations have been set to INT 1 VIRT 1

--------------------------
UNRESTRICTED FOCK OPERATOR
--------------------------

<ss|ss>:         1540 b            0 skpd (  0.0%)    0.001 s ( 0.001 ms/b)
<ss|sp>:         3300 b            0 skpd (  0.0%)    0.002 s ( 0.001 ms/b)
<ss|sd>:         2750 b            0 skpd (  0.0%)    0.001 s ( 0.000 ms/b)
<ss|sf>:         1100 b            0 skpd (  0.0%)    0.000 s ( 0.000 ms/b)
<ss|sg>:          550 b            0 skpd (  0.0%)    0.001 s ( 0.001 ms/b)
<ss|pp>:         1155 b            0 skpd (  0.0%)    0.002 s ( 0.002 ms/b)
<ss|pd>:         1650 b            0 skpd (  0.0%)    0.001 s ( 0.001 ms/b)
<ss|pf>:          660 b            0 skpd (  0.0%)    0.001 s ( 0.001 ms/b)
<ss|pg>:          330 b            0 skpd (  0.0%)    0.001 s ( 0.002 ms/b)
<ss|dd>:          825 b            0 skpd (  0.0%)    0.001 s ( 0.001 ms/b)
<ss|df>:          550 b            0 skpd (  0.0%)    0.001 s ( 0.001 ms/b)
<ss|dg>:          275 b            0 skpd (  0.0%)    0.000 s ( 0.002 ms/b)
<ss|ff>:          165 b            0 skpd (  0.0%)    0.000 s ( 0.001 ms/b)
<ss|fg>:          110 b            0 skpd (  0.0%)    0.000 s ( 0.003 ms/b)
<ss|gg>:           55 b            0 skpd (  0.0%)    0.000 s ( 0.008 ms/b)
<sp|sp>:         1830 b            0 skpd (  0.0%)    0.002 s ( 0.001 ms/b)
<sp|sd>:         3000 b            0 skpd (  0.0%)    0.002 s ( 0.001 ms/b)
<sp|sf>:         1200 b            0 skpd (  0.0%)    0.001 s ( 0.001 ms/b)
<sp|sg>:          600 b            0 skpd (  0.0%)    0.001 s ( 0.002 ms/b)
<sp|pp>:         1260 b            0 skpd (  0.0%)    0.004 s ( 0.003 ms/b)
<sp|pd>:         1800 b            0 skpd (  0.0%)    0.003 s ( 0.002 ms/b)
<sp|pf>:          720 b            0 skpd (  0.0%)    0.002 s ( 0.003 ms/b)
<sp|pg>:          360 b            0 skpd (  0.0%)    0.002 s ( 0.005 ms/b)
<sp|dd>:          900 b            0 skpd (  0.0%)    0.001 s ( 0.002 ms/b)
<sp|df>:          600 b            0 skpd (  0.0%)    0.002 s ( 0.003 ms/b)
<sp|dg>:          300 b            0 skpd (  0.0%)    0.001 s ( 0.004 ms/b)
<sp|ff>:          180 b            0 skpd (  0.0%)    0.001 s ( 0.003 ms/b)
<sp|fg>:          120 b            0 skpd (  0.0%)    0.001 s ( 0.007 ms/b)
<sp|gg>:           60 b            0 skpd (  0.0%)    0.001 s ( 0.019 ms/b)
<sd|sd>:         1275 b            6 skpd (  0.5%)    0.001 s ( 0.001 ms/b)
<sd|sf>:         1000 b            9 skpd (  0.9%)    0.001 s ( 0.001 ms/b)
<sd|sg>:          500 b            8 skpd (  1.6%)    0.001 s ( 0.002 ms/b)
<sd|pp>:         1050 b            0 skpd (  0.0%)    0.003 s ( 0.003 ms/b)
<sd|pd>:         1500 b            8 skpd (  0.5%)    0.003 s ( 0.002 ms/b)
<sd|pf>:          600 b            2 skpd (  0.3%)    0.002 s ( 0.003 ms/b)
<sd|pg>:          300 b            2 skpd (  0.7%)    0.002 s ( 0.005 ms/b)
<sd|dd>:          750 b            2 skpd (  0.3%)    0.002 s ( 0.002 ms/b)
<sd|df>:          500 b            0 skpd (  0.0%)    0.002 s ( 0.004 ms/b)
<sd|dg>:          250 b            0 skpd (  0.0%)    0.002 s ( 0.006 ms/b)
<sd|ff>:          150 b            0 skpd (  0.0%)    0.001 s ( 0.005 ms/b)
<sd|fg>:          100 b            0 skpd (  0.0%)    0.001 s ( 0.011 ms/b)
<sd|gg>:           50 b            0 skpd (  0.0%)    0.002 s ( 0.031 ms/b)
<sf|sf>:          210 b            4 skpd (  1.9%)    0.000 s ( 0.002 ms/b)
<sf|sg>:          200 b            8 skpd (  4.0%)    0.001 s ( 0.004 ms/b)
<sf|pp>:          420 b            0 skpd (  0.0%)    0.002 s ( 0.005 ms/b)
<sf|pd>:          600 b            6 skpd (  1.0%)    0.002 s ( 0.004 ms/b)
<sf|pf>:          240 b            3 skpd (  1.2%)    0.001 s ( 0.006 ms/b)
<sf|pg>:          120 b            1 skpd (  0.8%)    0.001 s ( 0.013 ms/b)
<sf|dd>:          300 b            2 skpd (  0.7%)    0.001 s ( 0.003 ms/b)
<sf|df>:          200 b            0 skpd (  0.0%)    0.002 s ( 0.008 ms/b)
<sf|dg>:          100 b            0 skpd (  0.0%)    0.001 s ( 0.010 ms/b)
<sf|ff>:           60 b            1 skpd (  1.7%)    0.001 s ( 0.012 ms/b)
<sf|fg>:           40 b            0 skpd (  0.0%)    0.001 s ( 0.023 ms/b)
<sf|gg>:           20 b            0 skpd (  0.0%)    0.001 s ( 0.059 ms/b)
<sg|sg>:           55 b            4 skpd (  7.3%)    0.000 s ( 0.005 ms/b)
<sg|pp>:          210 b            0 skpd (  0.0%)    0.002 s ( 0.010 ms/b)
<sg|pd>:          300 b            8 skpd (  2.7%)    0.002 s ( 0.006 ms/b)
<sg|pf>:          120 b            7 skpd (  5.8%)    0.001 s ( 0.009 ms/b)
<sg|pg>:           60 b           11 skpd ( 18.3%)    0.001 s ( 0.013 ms/b)
<sg|dd>:          150 b            2 skpd (  1.3%)    0.001 s ( 0.006 ms/b)
<sg|df>:          100 b            2 skpd (  2.0%)    0.001 s ( 0.011 ms/b)
<sg|dg>:           50 b            0 skpd (  0.0%)    0.001 s ( 0.021 ms/b)
<sg|ff>:           30 b            0 skpd (  0.0%)    0.000 s ( 0.016 ms/b)
<sg|fg>:           20 b            0 skpd (  0.0%)    0.001 s ( 0.041 ms/b)
<sg|gg>:           10 b            0 skpd (  0.0%)    0.001 s ( 0.108 ms/b)
<pp|pp>:          231 b            0 skpd (  0.0%)    0.003 s ( 0.012 ms/b)
<pp|pd>:          630 b            0 skpd (  0.0%)    0.004 s ( 0.006 ms/b)
<pp|pf>:          252 b            0 skpd (  0.0%)    0.002 s ( 0.007 ms/b)
<pp|pg>:          126 b            0 skpd (  0.0%)    0.002 s ( 0.016 ms/b)
<pp|dd>:          315 b            0 skpd (  0.0%)    0.001 s ( 0.005 ms/b)
<pp|df>:          210 b            0 skpd (  0.0%)    0.002 s ( 0.009 ms/b)
<pp|dg>:          105 b            0 skpd (  0.0%)    0.001 s ( 0.013 ms/b)
<pp|ff>:           63 b            0 skpd (  0.0%)    0.001 s ( 0.012 ms/b)
<pp|fg>:           42 b            0 skpd (  0.0%)    0.001 s ( 0.025 ms/b)
<pp|gg>:           21 b            0 skpd (  0.0%)    0.001 s ( 0.068 ms/b)
<pd|pd>:          465 b            0 skpd (  0.0%)    0.003 s ( 0.006 ms/b)
<pd|pf>:          360 b            0 skpd (  0.0%)    0.003 s ( 0.008 ms/b)
<pd|pg>:          180 b            0 skpd (  0.0%)    0.003 s ( 0.017 ms/b)
<pd|dd>:          450 b            0 skpd (  0.0%)    0.003 s ( 0.007 ms/b)
<pd|df>:          300 b            0 skpd (  0.0%)    0.004 s ( 0.013 ms/b)
<pd|dg>:          150 b            0 skpd (  0.0%)    0.003 s ( 0.018 ms/b)
<pd|ff>:           90 b            0 skpd (  0.0%)    0.001 s ( 0.016 ms/b)
<pd|fg>:           60 b            0 skpd (  0.0%)    0.002 s ( 0.034 ms/b)
<pd|gg>:           30 b            0 skpd (  0.0%)    0.003 s ( 0.093 ms/b)
<pf|pf>:           78 b            0 skpd (  0.0%)    0.001 s ( 0.019 ms/b)
<pf|pg>:           72 b            0 skpd (  0.0%)    0.002 s ( 0.032 ms/b)
<pf|dd>:          180 b            0 skpd (  0.0%)    0.002 s ( 0.009 ms/b)
<pf|df>:          120 b            0 skpd (  0.0%)    0.003 s ( 0.022 ms/b)
<pf|dg>:           60 b            0 skpd (  0.0%)    0.002 s ( 0.028 ms/b)
<pf|ff>:           36 b            0 skpd (  0.0%)    0.001 s ( 0.034 ms/b)
<pf|fg>:           24 b            0 skpd (  0.0%)    0.002 s ( 0.065 ms/b)
<pf|gg>:           12 b            0 skpd (  0.0%)    0.002 s ( 0.161 ms/b)
<pg|pg>:           21 b            0 skpd (  0.0%)    0.001 s ( 0.058 ms/b)
<pg|dd>:           90 b            0 skpd (  0.0%)    0.001 s ( 0.015 ms/b)
<pg|df>:           60 b            0 skpd (  0.0%)    0.002 s ( 0.030 ms/b)
<pg|dg>:           30 b            0 skpd (  0.0%)    0.002 s ( 0.055 ms/b)
<pg|ff>:           18 b            0 skpd (  0.0%)    0.001 s ( 0.041 ms/b)
<pg|fg>:           12 b            0 skpd (  0.0%)    0.001 s ( 0.107 ms/b)
<pg|gg>:            6 b            0 skpd (  0.0%)    0.002 s ( 0.269 ms/b)
<dd|dd>:          120 b            0 skpd (  0.0%)    0.001 s ( 0.012 ms/b)
<dd|df>:          150 b            0 skpd (  0.0%)    0.003 s ( 0.019 ms/b)
<dd|dg>:           75 b            0 skpd (  0.0%)    0.002 s ( 0.027 ms/b)
<dd|ff>:           45 b            0 skpd (  0.0%)    0.001 s ( 0.023 ms/b)
<dd|fg>:           30 b            0 skpd (  0.0%)    0.001 s ( 0.050 ms/b)
<dd|gg>:           15 b            0 skpd (  0.0%)    0.002 s ( 0.133 ms/b)
<df|df>:           55 b            0 skpd (  0.0%)    0.002 s ( 0.032 ms/b)
<df|dg>:           50 b            0 skpd (  0.0%)    0.002 s ( 0.043 ms/b)
<df|ff>:           30 b            0 skpd (  0.0%)    0.002 s ( 0.051 ms/b)
<df|fg>:           20 b            0 skpd (  0.0%)    0.002 s ( 0.113 ms/b)
<df|gg>:           10 b            0 skpd (  0.0%)    0.002 s ( 0.235 ms/b)
<dg|dg>:           15 b            0 skpd (  0.0%)    0.001 s ( 0.081 ms/b)
<dg|ff>:           15 b            0 skpd (  0.0%)    0.001 s ( 0.055 ms/b)
<dg|fg>:           10 b            0 skpd (  0.0%)    0.001 s ( 0.142 ms/b)
<dg|gg>:            5 b            0 skpd (  0.0%)    0.002 s ( 0.343 ms/b)
<ff|ff>:            6 b            0 skpd (  0.0%)    0.001 s ( 0.086 ms/b)
<ff|fg>:            6 b            0 skpd (  0.0%)    0.001 s ( 0.149 ms/b)
<ff|gg>:            3 b            0 skpd (  0.0%)    0.001 s ( 0.397 ms/b)
<fg|fg>:            3 b            0 skpd (  0.0%)    0.001 s ( 0.305 ms/b)
<fg|gg>:            2 b            0 skpd (  0.0%)    0.001 s ( 0.666 ms/b)
<gg|gg>:            1 b            0 skpd (  0.0%)    0.001 s ( 1.131 ms/b)
Recanonicalizing the internal orbitals
Recanonicalizing the virtual orbitals
Time needed for Fock operator              ...            5.203 sec
Reference energy                           ...   -241.880675522
Warning: for UHF the TrafoType has to be JK
Warning: for UHF the K(C)-option cannot be MO but must be AOX

-------------------------------
PARTIAL EXCHANGE TRANSFORMATION
-------------------------------

Transformation type                        ... two-operators
Generation of integrals (i,mue|j,nue)      ... ON
Generation of integrals (mue,kappa|nue,tau)... ON
Generation of integrals (i,mue|a,nue)      ... ON
Dimension of the basis                     ...   76
Number of internal alpha-MOs               ...    2 (   5-   6)
Number of internal beta-MOs                ...    1 (   5-   5)
Number of external alpha-MOs               ...   69 (   7-  75)
Number of external beta-MOs                ...   70 (   6-  75)
Pair cutoff                                ... 0.000e+00 Eh
Number of AO pairs in the trafo            ... 2926
Total Number of distinct AO pairs          ... 2926
Memory devoted for trafo                   ... 2500.0 MB 
Max. Number of MO pairs treated together   ... 56731      
Number Format for Storage                  ... Double (8 Byte)
Integral package used                      ... LIBINT

Starting integral evaluation:
    ... done with AO integral generation
Closing buffer AOK[aa] ( 0.00 GB; CompressionRatio= 0.73)
Closing buffer AOK[bb] ( 0.00 GB; CompressionRatio= 0.40)
Closing buffer AOK[ab] ( 0.00 GB; CompressionRatio= 0.57)
Closing buffer AOK[ba] ( 0.00 GB; CompressionRatio= 0.57)
Collecting buffer AOK 
Closing buffer IAAO1[aa] ( 0.00 GB; CompressionRatio= 0.99)
Closing buffer IAAO1[bb] ( 0.00 GB; CompressionRatio= 0.98)
Closing buffer IAAO1[ab] ( 0.00 GB; CompressionRatio= 0.99)
Closing buffer IAAO1[ba] ( 0.00 GB; CompressionRatio= 0.98)
Closing buffer IAAO2[aa] ( 0.00 GB; CompressionRatio= 0.99)
Closing buffer IAAO2[bb] ( 0.00 GB; CompressionRatio= 0.98)
Closing buffer IAAO2[ab] ( 0.00 GB; CompressionRatio= 0.99)
Closing buffer IAAO2[ba] ( 0.00 GB; CompressionRatio= 0.98)
Collecting buffer IAAO 
Closing buffer PRQS    ( 0.04 GB; CompressionRatio= 1.00)
Collecting buffer PRQS 
Number of alpha/alpha MO pairs in trafo    ...    3
Number of beta /beta  MO pairs in trafo    ...    1
Number of alpha/ beta MO pairs in trafo    ...    2
------------------------
SORTING OF (i,mue|j,nue)
------------------------

SORTING OF ALPHA/ALPHA PAIRS
IBATCH = 1 of  1
Closing buffer KAO[aa] ( 0.00 GB; CompressionRatio= 1.00)
Collecting buffer KAO 
SORTING OF BETA /BETA  PAIRS
IBATCH = 1 of  1
Closing buffer KAO[bb] ( 0.00 GB; CompressionRatio= 1.00)
Collecting buffer KAO 
SORTING OF ALPHA/BETA  PAIRS
IBATCH = 1 of  1
Closing buffer KAO[ab] ( 0.00 GB; CompressionRatio= 0.999740372133)
Collecting buffer KAO[ab] 
------------------------
SORTING OF (i,mue|a,nue)
------------------------

Number of alpha/alpha (i,a) pairs in trafo  ...  138
Number of beta /beta  (i,a) pairs in trafo  ...   70
Number of alpha/ beta (i,a) pairs in trafo  ...  140
Number of beta /alpha (i,a) pairs in trafo  ...   69
Setting up the alpha/alpha list             ... done
Setting up the beta /beta  list             ... done
Setting up the alpha/beta  list             ... done
Setting up the beta /alpha list             ... done
    ... Now sorting (i,mue|a,nue)integrals
    ... Integrals (i,b|a,c) will be made on the fly
SORTING OF ALPHA/ALPHA PAIRS
IBATCH = 1 of  1
Closing buffer IPAQ[aa]  0.00 GB; CompressionRatio= 1.00)
SORTING OF BETA /BETA  PAIRS
IBATCH = 1 of  1
Closing buffer IPAQ[bb]( 0.00 GB; CompressionRatio= 1.00)
SORTING OF ALPHA/BETA  PAIRS (NMatSort_ab=47)
IBATCH = 1 of  1
Closing buffer IPAQ[ab]( 0.00 GB; CompressionRatio= 1.00)
SORTING OF BETA/ALPHA  PAIRS
IBATCH = 1 of  1
Closing buffer IPAQ[ba]( 0.00 GB; CompressionRatio= 1.00)
N(AO-Batches) Done                         ...     52992 
N(AO-Batches) Skipped                      ...         0 
N(IJ)-pairs Skipped                        ...         0 
TOTAL TIME for half transformation         ...     6.288 sec
AO-integral generation                     ...     0.657 sec
Half transformation                        ...     4.232 sec
K-integral sorting                         ...     0.195 sec
<ss|**>: 
------------------------------
PARTIAL COULOMB TRANSFORMATION
------------------------------

Transformation type                        ... two-operators
Dimension of the basis                     ...   76
Number of internal alpha-MOs               ...    2 (5-6)
Number of internal beta-MOs                ...    1 (5-5)
Pair cutoff                                ... 0.000e+00 Eh
Number of AO pairs included in the trafo   ... 2926
Total Number of distinct AO pairs          ... 2926
Memory devoted for trafo                   ... 2500.0 MB 
Max. Number of MO pairs treated together   ... 111989      
Max. Number of MOs treated per batch       ... 1473      
Number Format for Storage                  ... Double (8 Byte)
AO-integral source                         ... DIRECT
Integral package used                      ... LIBINT

Starting integral evaluation:
<sp|**>:        16500 b        0 skpd     0.031 s (  0.002 ms/b)
       18000 b        0 skpd     0.074 s (  0.004 ms/b)
<sd|**>: <sf|**>:        15000 b        0 skpd     0.102 s (  0.007 ms/b)
<sg|**>:         6000 b        0 skpd     0.071 s (  0.012 ms/b)
        3000 b        0 skpd     0.063 s (  0.021 ms/b)
<pp|**>: <pd|**>:         6300 b        0 skpd     0.081 s (  0.013 ms/b)
        9000 b        0 skpd     0.199 s (  0.022 ms/b)
<pf|**>:         3600 b        0 skpd     0.106 s (  0.030 ms/b)
<pg|**>:         1800 b        0 skpd     0.069 s (  0.039 ms/b)
<dd|**>:         4500 b        0 skpd     0.125 s (  0.028 ms/b)
<df|**>:         3000 b        0 skpd     0.156 s (  0.052 ms/b)
<dg|**>:         1500 b        0 skpd     0.101 s (  0.067 ms/b)
<ff|**>:          900 b        0 skpd     0.053 s (  0.059 ms/b)
<fg|**>:          600 b        0 skpd     0.070 s (  0.116 ms/b)
<gg|**>:          300 b        0 skpd     0.043 s (  0.144 ms/b)
Closing buffer AOJ[aa] ( 0.00 GB; CompressionRatio= 0.67)
Closing buffer AOJ[bb] ( 0.00 GB; CompressionRatio= 0.00)
Collecting buffer AOJ 
    ... done with AO integral generation
Number of Alpha-MO pairs included          ...    3
Number of Beta-MO pairs included           ...    1
    ... Now sorting integrals
SORTING ALPHA/ALPHA PAIRS
IBATCH = 1 of  1
Closing buffer JAO[aa] ( 0.00 GB; CompressionRatio= 1.00)
SORTING BETA/BETA PAIRS
IBATCH = 1 of  1
Closing buffer JAO[bb] ( 0.00 GB; CompressionRatio= 1.00)
Collecting buffer JAO 
TOTAL TIME for half transformation         ...     1.376 sec
AO-integral generation                     ...     0.650 sec
Half transformation                        ...     0.696 sec
J-integral sorting                         ...     0.021 sec

-------------------------- SECOND HALF TRANSFORMATION -------------------------
Formation of (ij|kl),(ij|ka), (ij|ab)      ... ok (     0.015 sec)
Formation of (ik|jl),(ik|ja), (ia|jb)      ... ok (     0.023 sec)


-----------------------
SPIN UNRESTRICTED GUESS
-----------------------

Entering MDCI_UHF_Guess, Tailored=0
Spin-components of the MP2 energy:
EMP2(aa)=     -0.002658816
EMP2(bb)=      0.000000000
EMP2(ab)=     -0.035678423

Initial guess performed in     0.001 sec
E(0)                                       ...   -241.880675522
E(MP2)                                     ...     -0.038337239
Initial E(tot)                             ...   -241.919012761
<T|T>                                      ...      0.030903513
Number of pairs included                   ... 3

------------------------------------------------
                  UHF COUPLED CLUSTER ITERATIONS
------------------------------------------------

Number of amplitudes to be optimized       ...        12144

Iter       E(tot)           E(Corr)          Delta-E          Residual     Time      <S|S>**1/2
  0   -241.919012761     -0.038337239     -0.000000000      0.012265510    0.26      0.000000421
                           *** Turning on DIIS ***
  1   -241.925549284     -0.044873762     -0.006536523      0.007287468    0.25      0.012866507
  2   -241.931407391     -0.050731869     -0.005858107      0.002674410    0.25      0.027195013
  3   -241.932729413     -0.052053891     -0.001322022      0.000783649    0.25      0.033268298
  4   -241.932901162     -0.052225640     -0.000171749      0.000219666    0.25      0.035256368
  5   -241.932940569     -0.052265047     -0.000039406      0.000056740    0.24      0.035593713
  6   -241.932938098     -0.052262576      0.000002471      0.000027719    0.24      0.035601282
  7   -241.932938715     -0.052263193     -0.000000617      0.000011860    0.24      0.035606390
  8   -241.932938960     -0.052263438     -0.000000245      0.000003893    0.25      0.035609943
               --- The Coupled-Cluster iterations have converged ---

----------------------
COUPLED CLUSTER ENERGY
----------------------

E(0)                                       ...   -241.880675522
E(CORR)                                    ...     -0.052263438
E(TOT)                                     ...   -241.932938960
Singles norm <S|S>**1/2                    ...      0.035609943 ( 0.029901348, 0.005708595)  
T1 diagnostic                              ...      0.020559410                              

------------------
LARGEST AMPLITUDES
------------------
   5a->  8a   5b->  7b       0.071186
   5a->  7a   5b->  6b       0.071186
   6a-> 19a   5b->  9b       0.051833
   5a->  8a   5b-> 16b       0.047845
   5a->  7a   5b-> 15b       0.047845
   6a-> 19a   5b-> 17b       0.046542
   5a-> 16a   5b->  6b       0.044322
   5a-> 17a   5b->  7b       0.044322
   6a-> 21a   5b->  6b       0.043018
   6a-> 20a   5b->  7b       0.043018
   5a->  7a   5b->  7b       0.041114
   5a->  8a   5b->  6b       0.041114
   5a->  7a   5b-> 16b       0.036330
   5a->  8a   5b-> 15b       0.036330
   5a-> 17a   5b->  6b       0.035960
   5a-> 16a   5b->  7b       0.035960

----------------------
UHF TRIPLES CORRECTION (Algorithm 1)
----------------------

Multiplier for the singles contribution    ...      1.000000000

SPIN-CASE Alpha-Alpha-Alpha:

SPIN-CASE Beta-Beta-Beta:

SPIN-CASE Alpha-Alpha-Beta:
10% done
20% done
30% done
40% done
50% done
60% done
70% done
80% done
90% done


SPIN-CASE Beta-Beta-Alpha:

Triples Correction (T)                     ...     -0.001289076
    alpha-alpha-alpha ...  0.000000000 ( -0.0%)
    alpha-alpha-beta  ... -0.001289076 (100.0%)
    alpha-beta -beta  ...  0.000000000 ( -0.0%)
    beta -beta -beta  ...  0.000000000 ( -0.0%)
Scaling of triples based on CCSD energies (Peterson et al. Molecular Physics 113, 1551 (2015))
E(T*) = f*E(T) where f = E(F12-CCSD)/E(CCSD) 
f = CCSD (with F12)/ CCSD (without F12)    ...      1.000000000
Scaled triples correction (T)              ...     -0.001289076

Final correlation energy                   ...     -0.053552514
E(CCSD)                                    ...   -241.932938960
E(CCSD(T))                                 ...   -241.934228036



        !!!!!!!!!!!!!!!!!!!!!!!!!!!!!!!!!!!!!!!!!!!!!!!!!!!!!!!!!!!!!!!!!!!!!!!!!! 
        !  Warning: Densities are linearized densities                           !
        !!!!!!!!!!!!!!!!!!!!!!!!!!!!!!!!!!!!!!!!!!!!!!!!!!!!!!!!!!!!!!!!!!!!!!!!!! 

NORM  =      1.074271133 sqrt=     1.036470517
W(HF) =      0.930863699
------------------------------------------------------------------------------
                           ORCA POPULATION ANALYSIS
------------------------------------------------------------------------------
Input electron density              ... 13_Al.mdcip
Input spin density                  ... 13_Al.mdcir
BaseName (.gbw .S,...)              ... 13_Al

                    ********************************
                    * MULLIKEN POPULATION ANALYSIS *
                    ********************************

------------------------------------------
MULLIKEN ATOMIC CHARGES AND SPIN DENSITIES
------------------------------------------
   0 Al:   -0.000000    1.000000
Sum of atomic charges       :   -0.0000000
Sum of atomic spin densities:    1.0000000

---------------------------------------------------
MULLIKEN REDUCED ORBITAL CHARGES AND SPIN DENSITIES
---------------------------------------------------
CHARGE
  0 Als       :     5.888353  s :     5.888353
      pz      :     2.045034  p :     7.072849
      px      :     2.506814
      py      :     2.521001
      dz2     :     0.003937  d :     0.037312
      dxz     :     0.005727
      dyz     :     0.005886
      dx2y2   :     0.011060
      dxy     :     0.010703
      f0      :     0.000136  f :     0.001365
      f+1     :     0.000143
      f-1     :     0.000146
      f+2     :     0.000167
      f-2     :     0.000203
      f+3     :     0.000285
      f-3     :     0.000285
      g0      :     0.000010  g :     0.000121
      g+1     :     0.000011
      g-1     :     0.000011
      g+2     :     0.000012
      g-2     :     0.000012
      g+3     :     0.000015
      g-3     :     0.000015
      g+4     :     0.000018
      g-4     :     0.000018

SPIN
  0 Als       :     0.025794  s :     0.025794
      pz      :    -0.002936  p :     0.956379
      px      :     0.472357
      py      :     0.486958
      dz2     :     0.001761  d :     0.017049
      dxz     :     0.002438
      dyz     :     0.002514
      dx2y2   :     0.004986
      dxy     :     0.005350
      f0      :     0.000066  f :     0.000736
      f+1     :     0.000070
      f-1     :     0.000072
      f+2     :     0.000082
      f-2     :     0.000111
      f+3     :     0.000167
      f-3     :     0.000167
      g0      :     0.000003  g :     0.000043
      g+1     :     0.000003
      g-1     :     0.000003
      g+2     :     0.000004
      g-2     :     0.000004
      g+3     :     0.000005
      g-3     :     0.000005
      g+4     :     0.000007
      g-4     :     0.000007


                     *******************************
                     * LOEWDIN POPULATION ANALYSIS *
                     *******************************

-----------------------------------------
LOEWDIN ATOMIC CHARGES AND SPIN DENSITIES
-----------------------------------------
   0 Al:   -0.000000    1.000000

--------------------------------------------------
LOEWDIN REDUCED ORBITAL CHARGES AND SPIN DENSITIES
--------------------------------------------------
CHARGE
  0 Als       :     5.888353  s :     5.888353
      pz      :     2.045034  p :     7.072849
      px      :     2.506814
      py      :     2.521001
      dz2     :     0.003937  d :     0.037312
      dxz     :     0.005727
      dyz     :     0.005886
      dx2y2   :     0.011060
      dxy     :     0.010703
      f0      :     0.000136  f :     0.001365
      f+1     :     0.000143
      f-1     :     0.000146
      f+2     :     0.000167
      f-2     :     0.000203
      f+3     :     0.000285
      f-3     :     0.000285
      g0      :     0.000010  g :     0.000121
      g+1     :     0.000011
      g-1     :     0.000011
      g+2     :     0.000012
      g-2     :     0.000012
      g+3     :     0.000015
      g-3     :     0.000015
      g+4     :     0.000018
      g-4     :     0.000018

SPIN
  0 Als       :     0.025794  s :     0.025794
      pz      :    -0.002936  p :     0.956379
      px      :     0.472357
      py      :     0.486958
      dz2     :     0.001761  d :     0.017049
      dxz     :     0.002438
      dyz     :     0.002514
      dx2y2   :     0.004986
      dxy     :     0.005350
      f0      :     0.000066  f :     0.000736
      f+1     :     0.000070
      f-1     :     0.000072
      f+2     :     0.000082
      f-2     :     0.000111
      f+3     :     0.000167
      f-3     :     0.000167
      g0      :     0.000003  g :     0.000043
      g+1     :     0.000003
      g-1     :     0.000003
      g+2     :     0.000004
      g-2     :     0.000004
      g+3     :     0.000005
      g-3     :     0.000005
      g+4     :     0.000007
      g-4     :     0.000007


                      *****************************
                      * MAYER POPULATION ANALYSIS *
                      *****************************

  NA   - Mulliken gross atomic population
  ZA   - Total nuclear charge
  QA   - Mulliken gross atomic charge
  VA   - Mayer's total valence
  BVA  - Mayer's bonded valence
  FA   - Mayer's free valence

  ATOM       NA         ZA         QA         VA         BVA        FA
  0 Al    13.0000    13.0000    -0.0000     1.4914     0.0000     1.4914





------------------------------------------------------------------------------- 
                                     TIMINGS                                   
------------------------------------------------------------------------------- 


Total execution time                   ...       15.386 sec

Fock Matrix Formation                  ...        5.203 sec ( 33.8%)
Initial Guess                          ...        0.001 sec (  0.0%)
DIIS Solver                            ...        0.007 sec (  0.0%)
State Vector Update                    ...        0.000 sec (  0.0%)
Sigma-vector construction              ...        2.224 sec ( 14.5%)
  <D|H|D>(2-ext)                       ...        0.002 sec (  0.1% of sigma)
  <D|H|D>(4-ext)                       ...        1.070 sec ( 48.1% of sigma)
  <S|H|0>                              ...        0.003 sec (  0.1% of sigma)
  <D|H|S>(1-ext)                       ...        0.002 sec (  0.1% of sigma)
  Fock-dressing                        ...        1.042 sec ( 46.8% of sigma)
  (ij|ab),(ia|jb)-dressing             ...        0.064 sec (  2.9% of sigma)
Total Time for computing (T)           ...        0.031 sec (  0.2% of ALL)
  I/O of integral and amplitudes       ...        0.009 sec ( 31.0% of (T))
  External N**7 contributions          ...        0.004 sec ( 13.6% of (T))
  Internal N**7 contributions          ...        0.001 sec (  3.9% of (T))
  N**6 triples energy contributions    ...        0.005 sec ( 16.5% of (T))


-------------------------   --------------------
FINAL SINGLE POINT ENERGY      -241.934228035909
-------------------------   --------------------


                            ***************************************
                            *     ORCA property calculations      *
                            ***************************************

                                    ---------------------
                                    Active property flags
                                    ---------------------
   (+) Dipole Moment


------------------------------------------------------------------------------
                       ORCA ELECTRIC PROPERTIES CALCULATION
------------------------------------------------------------------------------

Dipole Moment Calculation                       ... on
Quadrupole Moment Calculation                   ... off
Polarizability Calculation                      ... off
GBWName                                         ... 13_Al.gbw
Electron density file                           ... 13_Al.scfp
The origin for moment calculation is the CENTER OF MASS  = ( 0.000000,  0.000000  0.000000)

-------------
DIPOLE MOMENT
-------------
                                X             Y             Z
Electronic contribution:     -0.00000      -0.00000       0.00000
Nuclear contribution   :      0.00000       0.00000       0.00000
                        -----------------------------------------
Total Dipole Moment    :     -0.00000      -0.00000       0.00000
                        -----------------------------------------
Magnitude (a.u.)       :      0.00000
Magnitude (Debye)      :      0.00000



--------------------
Rotational spectrum 
--------------------
 
Rotational constants in cm-1:     0.000000     0.000000     0.000000 
Rotational constants in MHz :     0.000000     0.000000     0.000000 

 Dipole components along the rotational axes: 
x,y,z [a.u.] :    -0.000000    -0.000000     0.000000 
x,y,z [Debye]:    -0.000000    -0.000000     0.000000 

 

                           *** MDCI DENSITY ***

------------------------------------------------------------------------------
                       ORCA ELECTRIC PROPERTIES CALCULATION
------------------------------------------------------------------------------

Dipole Moment Calculation                       ... on
Quadrupole Moment Calculation                   ... off
Polarizability Calculation                      ... off
GBWName                                         ... 13_Al.gbw
Electron density file                           ... 13_Al.mdcip
The origin for moment calculation is the CENTER OF MASS  = ( 0.000000,  0.000000  0.000000)

-------------
DIPOLE MOMENT
-------------
                                X             Y             Z
Electronic contribution:      0.00000      -0.00000      -0.00000
Nuclear contribution   :      0.00000       0.00000       0.00000
                        -----------------------------------------
Total Dipole Moment    :      0.00000      -0.00000      -0.00000
                        -----------------------------------------
Magnitude (a.u.)       :      0.00000
Magnitude (Debye)      :      0.00000



--------------------
Rotational spectrum 
--------------------
 
Rotational constants in cm-1:     0.000000     0.000000     0.000000 
Rotational constants in MHz :     0.000000     0.000000     0.000000 

 Dipole components along the rotational axes: 
x,y,z [a.u.] :     0.000000    -0.000000    -0.000000 
x,y,z [Debye]:     0.000000    -0.000000    -0.000000 

 

Timings for individual modules:

Sum of individual times         ...       29.818 sec (=   0.497 min)
GTO integral calculation        ...        0.600 sec (=   0.010 min)   2.0 %
SCF iterations                  ...       13.426 sec (=   0.224 min)  45.0 %
MDCI module                     ...       15.792 sec (=   0.263 min)  53.0 %
                             ****ORCA TERMINATED NORMALLY****
TOTAL RUN TIME: 0 days 0 hours 0 minutes 30 seconds 380 msec
