
                                 *****************
                                 * O   R   C   A *
                                 *****************

           --- An Ab Initio, DFT and Semiempirical electronic structure package ---

                  #######################################################
                  #                        -***-                        #
                  #          Department of theory and spectroscopy      #
                  #               Directorship: Frank Neese             #
                  #        Max Planck Institute fuer Kohlenforschung    #
                  #                Kaiser Wilhelm Platz 1               #
                  #                 D-45470 Muelheim/Ruhr               #
                  #                      Germany                        #
                  #                                                     #
                  #                  All rights reserved                #
                  #                        -***-                        #
                  #######################################################


                         Program Version 4.2.0 -  RELEASE  -


 With contributions from (in alphabetic order):
   Daniel Aravena         : Magnetic Suceptibility
   Michael Atanasov       : Ab Initio Ligand Field Theory (pilot matlab implementation)
   Alexander A. Auer      : GIAO ZORA, VPT2
   Ute Becker             : Parallelization
   Giovanni Bistoni       : ED, misc. LED, open-shell LED, HFLED
   Martin Brehm           : Molecular dynamics
   Dmytro Bykov           : SCF Hessian
   Vijay G. Chilkuri      : MRCI spin determinant printing, contributions to CSF-ICE
   Dipayan Datta          : RHF DLPNO-CCSD density
   Achintya Kumar Dutta   : EOM-CC, STEOM-CC
   Dmitry Ganyushin       : Spin-Orbit,Spin-Spin,Magnetic field MRCI
   Miquel Garcia          : C-PCM Hessian, Gaussian charge scheme
   Yang Guo               : DLPNO-NEVPT2, CIM, IAO-localization
   Andreas Hansen         : Spin unrestricted coupled pair/coupled cluster methods
   Benjamin Helmich-Paris : CASSCF linear response (MC-RPA)
   Lee Huntington         : MR-EOM, pCC
   Robert Izsak           : Overlap fitted RIJCOSX, COSX-SCS-MP3, EOM
   Christian Kollmar      : KDIIS, OOCD, Brueckner-CCSD(T), CCSD density
   Simone Kossmann        : Meta GGA functionals, TD-DFT gradient, OOMP2, MP2 Hessian
   Martin Krupicka        : AUTO-CI
   Lucas Lang             : DCDCAS
   Dagmar Lenk            : GEPOL surface, SMD
   Dimitrios Liakos       : Extrapolation schemes; Compound Job, initial MDCI parallelization
   Dimitrios Manganas     : Further ROCIS development; embedding schemes
   Dimitrios Pantazis     : SARC Basis sets
   Taras Petrenko         : DFT Hessian,TD-DFT gradient, ASA, ECA, R-Raman, ABS, FL, XAS/XES, NRVS
   Peter Pinski           : DLPNO-MP2, DLPNO-MP2 Gradient
   Christoph Reimann      : Effective Core Potentials
   Marius Retegan         : Local ZFS, SOC
   Christoph Riplinger    : Optimizer, TS searches, QM/MM, DLPNO-CCSD(T), (RO)-DLPNO pert. Triples
   Tobias Risthaus        : Range-separated hybrids, TD-DFT gradient, RPA, STAB
   Michael Roemelt        : Original ROCIS implementation
   Masaaki Saitow         : Open-shell DLPNO-CCSD energy and density
   Barbara Sandhoefer     : DKH picture change effects
   Avijit Sen             : IP-ROCIS
   Kantharuban Sivalingam : CASSCF convergence, NEVPT2, FIC-MRCI
   Bernardo de Souza      : ESD, SOC TD-DFT
   Georgi Stoychev        : AutoAux, RI-MP2 NMR
   Willem Van den Heuvel  : Paramagnetic NMR
   Boris Wezisla          : Elementary symmetry handling
   Frank Wennmohs         : Technical directorship


 We gratefully acknowledge several colleagues who have allowed us to
 interface, adapt or use parts of their codes:
   Stefan Grimme, W. Hujo, H. Kruse,             : VdW corrections, initial TS optimization,
                  C. Bannwarth                     DFT functionals, gCP, sTDA/sTD-DF
   Ed Valeev, F. Pavosevic, A. Kumar             : LibInt (2-el integral package), F12 methods
   Garnet Chan, S. Sharma, J. Yang, R. Olivares  : DMRG
   Ulf Ekstrom                                   : XCFun DFT Library
   Mihaly Kallay                                 : mrcc  (arbitrary order and MRCC methods)
   Andreas Klamt, Michael Diedenhofen            : otool_cosmo (COSMO solvation model)
   Jiri Pittner, Ondrej Demel                    : Mk-CCSD
   Frank Weinhold                                : gennbo (NPA and NBO analysis)
   Christopher J. Cramer and Donald G. Truhlar   : smd solvation model
   Lars Goerigk                                  : TD-DFT with DH, B97 family of functionals
   V. Asgeirsson, H. Jonsson                     : NEB implementation
   FAccTs GmbH                                   : IRC, NEB, NEB-TS, Multilevel, MM, QM/MM, CI optimization
   S Lehtola, MJT Oliveira, MAL Marques          : LibXC Library


 Your calculation uses the libint2 library for the computation of 2-el integrals
 For citations please refer to: http://libint.valeyev.net

 Your ORCA version has been built with support for libXC version: 4.2.3
 For citations please refer to: https://tddft.org/programs/libxc/

 This ORCA versions uses:
   CBLAS   interface :  Fast vector & matrix operations
   LAPACKE interface :  Fast linear algebra routines
   SCALAPACK package :  Parallel linear algebra routines


----- Orbital basis set information -----
Your calculation utilizes the basis: def2-QZVPPD
   F. Weigend and R. Ahlrichs, Phys. Chem. Chem. Phys. 7, 3297 (2005).
   D. Rappoport and F. Furche, J. Chem. Phys. 133 134105 (2010).

================================================================================
                                        WARNINGS
                       Please study these warnings very carefully!
================================================================================


WARNING: your system is open-shell and RHF/RKS was chosen
  ===> : WILL SWITCH to UHF/UKS


WARNING: MDCI localization with Augmented Hessian Foster-Boys
  ===> : Switching off randomization!

WARNING: Post HF methods need fully converged wavefunctions
  ===> : Setting SCFConvForced true
         You can overwrite this default with %scf ConvForced false 


INFO   : the flag for use of LIBINT has been found!

================================================================================
                                       INPUT FILE
================================================================================
NAME = 19_K.in
|  1> #
|  2> # 19_K CCSD(T)/Def2-QZVPPD
|  3> #
|  4> ! CCSD(T) Def2-QZVPPD tightscf
|  5> 
|  6> *xyz 0 2
|  7>  K 0.0 0.0 0.0
|  8> *
|  9> 
| 10> %maxcore 5000 
| 11> 
| 12> %pal
| 13> nprocs 24
| 14> end
| 15> 
| 16> 
| 17>                          ****END OF INPUT****
================================================================================

                       ****************************
                       * Single Point Calculation *
                       ****************************

---------------------------------
CARTESIAN COORDINATES (ANGSTROEM)
---------------------------------
  K      0.000000    0.000000    0.000000

----------------------------
CARTESIAN COORDINATES (A.U.)
----------------------------
  NO LB      ZA    FRAG     MASS         X           Y           Z
   0 K    19.0000    0    39.100    0.000000    0.000000    0.000000

--------------------------------
INTERNAL COORDINATES (ANGSTROEM)
--------------------------------
 K      0   0   0     0.000000000000     0.00000000     0.00000000

---------------------------
INTERNAL COORDINATES (A.U.)
---------------------------
 K      0   0   0     0.000000000000     0.00000000     0.00000000

---------------------
BASIS SET INFORMATION
---------------------
There are 1 groups of distinct atoms

 Group   1 Type K   : 24s18p4d3f contracted to 11s6p4d3f pattern {114111111111/951111/1111/111}

Atom   0K    basis set group =>   1


           ************************************************************
           *        Program running with 24 parallel MPI-processes    *
           *              working on a common directory               *
           ************************************************************
------------------------------------------------------------------------------
                           ORCA GTO INTEGRAL CALCULATION
------------------------------------------------------------------------------

                         BASIS SET STATISTICS AND STARTUP INFO

 # of primitive gaussian shells          ...   49
 # of primitive gaussian functions       ...  119
 # of contracted shells                  ...   24
 # of contracted basis functions         ...   70
 Highest angular momentum                ...    3
 Maximum contraction depth               ...   11
 Integral package used                   ... LIBINT
 Integral threshhold            Thresh   ...  2.500e-11
 Primitive cut-off              TCut     ...  2.500e-12


------------------------------ INTEGRAL EVALUATION ----------------------------


 * One electron integrals 
 Pre-screening matrix                    ... done
 Shell pair data                         ... done (   0.000 sec)



           ************************************************************
           *        Program running with 24 parallel MPI-processes    *
           *              working on a common directory               *
           ************************************************************
-------------------------------------------------------------------------------
                                 ORCA SCF
-------------------------------------------------------------------------------

------------
SCF SETTINGS
------------
Hamiltonian:
 Ab initio Hamiltonian  Method          .... Hartree-Fock(GTOs)


General Settings:
 Integral files         IntName         .... 19_K
 Hartree-Fock type      HFTyp           .... UHF
 Total Charge           Charge          ....    0
 Multiplicity           Mult            ....    2
 Number of Electrons    NEL             ....   19
 Basis Dimension        Dim             ....   70
 Nuclear Repulsion      ENuc            ....      0.0000000000 Eh

Convergence Acceleration:
 DIIS                   CNVDIIS         .... on
   Start iteration      DIISMaxIt       ....    12
   Startup error        DIISStart       ....  0.200000
   # of expansion vecs  DIISMaxEq       ....     5
   Bias factor          DIISBfac        ....   1.050
   Max. coefficient     DIISMaxC        ....  10.000
 Newton-Raphson         CNVNR           .... off
 SOSCF                  CNVSOSCF        .... off
 Level Shifting         CNVShift        .... on
   Level shift para.    LevelShift      ....    0.2500
   Turn off err/grad.   ShiftErr        ....    0.0010
 Zerner damping         CNVZerner       .... off
 Static damping         CNVDamp         .... on
   Fraction old density DampFac         ....    0.7000
   Max. Damping (<1)    DampMax         ....    0.9800
   Min. Damping (>=0)   DampMin         ....    0.0000
   Turn off err/grad.   DampErr         ....    0.1000
 Fernandez-Rico         CNVRico         .... off

SCF Procedure:
 Maximum # iterations   MaxIter         ....   125
 SCF integral mode      SCFMode         .... Direct
   Integral package                     .... LIBINT
 Reset frequency        DirectResetFreq ....    20
 Integral Threshold     Thresh          ....  2.500e-11 Eh
 Primitive CutOff       TCut            ....  2.500e-12 Eh

Convergence Tolerance:
 Convergence Check Mode ConvCheckMode   .... Total+1el-Energy
 Convergence forced     ConvForced      .... 1
 Energy Change          TolE            ....  1.000e-08 Eh
 1-El. energy change                    ....  1.000e-05 Eh
 DIIS Error             TolErr          ....  5.000e-07


Diagonalization of the overlap matrix:
Smallest eigenvalue                        ... 1.365e-03
Time for diagonalization                   ...    0.002 sec
Threshold for overlap eigenvalues          ... 1.000e-08
Number of eigenvalues below threshold      ... 0
Time for construction of square roots      ...    0.011 sec
Total time needed                          ...    0.013 sec

-------------------
DFT GRID GENERATION
-------------------

General Integration Accuracy     IntAcc      ...  4.340
Radial Grid Type                 RadialGrid  ... Gauss-Chebyshev
Angular Grid (max. acc.)         AngularGrid ... Lebedev-110
Angular grid pruning method      GridPruning ... 3 (G Style)
Weight generation scheme         WeightScheme... Becke
Basis function cutoff            BFCut       ...    1.0000e-11
Integration weight cutoff        WCut        ...    1.0000e-14
Grids for H and He will be reduced by one unit

# of grid points (after initial pruning)     ...   2948 (   0.0 sec)
# of grid points (after weights+screening)   ...   2948 (   0.0 sec)
Grid point division into batches done        ...    0.0 sec
Reduced shell lists constructed in    0.0 sec

Total number of grid points                  ...     2948
Total number of batches                      ...       47
Average number of points per batch           ...       62
Average number of grid points per atom       ...     2948
Average number of shells per batch           ...     6.67 (27.78%)
Average number of basis functions per batch  ...    21.33 (30.48%)
Average number of large shells per batch     ...     5.33 (80.00%)
Average number of large basis fcns per batch ...    16.00 (75.00%)
Maximum spatial batch extension              ...  22.57, 27.87, 27.87 au
Average spatial batch extension              ...   0.96,  1.19,  1.19 au

Time for grid setup =    0.064 sec

------------------------------
INITIAL GUESS: MODEL POTENTIAL
------------------------------
Loading Hartree-Fock densities                     ... done
Calculating cut-offs                               ... done
Setting up the integral package                    ... done
Initializing the effective Hamiltonian             ... done
Starting the Coulomb interaction                   ... done (   0.0 sec)
Reading the grid                                   ... done
Mapping shells                                     ... done
Starting the XC term evaluation                    ... done (   0.0 sec)
Transforming the Hamiltonian                       ... done (   0.0 sec)
Diagonalizing the Hamiltonian                      ... done (   0.0 sec)
Back transforming the eigenvectors                 ... done (   0.0 sec)
Now organizing SCF variables                       ... done
                      ------------------
                      INITIAL GUESS DONE (   0.2 sec)
                      ------------------
--------------
SCF ITERATIONS
--------------
ITER       Energy         Delta-E        Max-DP      RMS-DP      [F,P]     Damp
               ***  Starting incremental Fock matrix formation  ***
  0   -599.1508852116   0.000000000000 0.01473704  0.00039353  0.4121265 0.7000
  1   -599.1546973746  -0.003812163030 0.01312551  0.00036543  0.2893126 0.7000
  2   -599.1574733385  -0.002775963898 0.01141849  0.00030042  0.2029779 0.7000
                               ***Turning on DIIS***
  3   -599.1594768100  -0.002003471444 0.00984676  0.00024001  0.1424134 0.7000
  4   -599.1515712237   0.007905586295 0.03460555  0.00072908  0.0999237 0.0000
  5   -599.1644512923  -0.012880068595 0.00999757  0.00016886  0.0020666 0.0000
  6   -599.1697012313  -0.005249939026 0.00802787  0.00015097  0.0014885 0.0000
  7   -599.1700094769  -0.000308245586 0.00937195  0.00014300  0.0010096 0.0000
  8   -599.1700202672  -0.000010790297 0.03186641  0.00037789  0.0006606 0.0000
  9   -599.1678936021   0.002126665067 0.01548587  0.00018139  0.0001846 0.0000
 10   -599.1648746502   0.003018951925 0.00303609  0.00003534  0.0000200 0.0000
 11   -599.1646998586   0.000174791535 0.00096596  0.00001126  0.0000052 0.0000
                            ***DIIS convergence achieved***

               *****************************************************
               *                     SUCCESS                       *
               *           SCF CONVERGED AFTER  12 CYCLES          *
               *****************************************************


----------------
TOTAL SCF ENERGY
----------------

Total Energy       :         -599.16460789 Eh          -16304.09786 eV

Components:
Nuclear Repulsion  :            0.00000000 Eh               0.00000 eV
Electronic Energy  :         -599.16460789 Eh          -16304.09786 eV
One Electron Energy:         -823.79290108 Eh          -22416.54447 eV
Two Electron Energy:          224.62829320 Eh            6112.44661 eV

Virial components:
Potential Energy   :        -1198.32486920 Eh          -32608.07745 eV
Kinetic Energy     :          599.16026131 Eh           16303.97959 eV
Virial Ratio       :            2.00000725


---------------
SCF CONVERGENCE
---------------

  Last Energy change         ...    9.1972e-05  Tolerance :   1.0000e-08
  Last MAX-Density change    ...    1.4010e-04  Tolerance :   1.0000e-07
  Last RMS-Density change    ...    1.6441e-06  Tolerance :   5.0000e-09
  Last DIIS Error            ...    6.2616e-07  Tolerance :   5.0000e-07

             **** THE GBW FILE WAS UPDATED (19_K.gbw) ****
             **** DENSITY FILE WAS UPDATED (19_K.scfp) ****
             **** ENERGY FILE WAS UPDATED (19_K.en.tmp) ****
----------------------
UHF SPIN CONTAMINATION
----------------------

Expectation value of <S**2>     :     0.750198
Ideal value S*(S+1) for S=0.5   :     0.750000
Deviation                       :     0.000198

             **** THE GBW FILE WAS UPDATED (19_K.gbw) ****
             **** DENSITY FILE WAS UPDATED (19_K.scfp) ****
----------------
ORBITAL ENERGIES
----------------
                 SPIN UP ORBITALS
  NO   OCC          E(Eh)            E(eV) 
   0   1.0000    -133.534044     -3633.6461 
   1   1.0000     -14.491227      -394.3263 
   2   1.0000     -11.519811      -313.4700 
   3   1.0000     -11.519811      -313.4700 
   4   1.0000     -11.519811      -313.4700 
   5   1.0000      -1.751166       -47.6517 
   6   1.0000      -0.955128       -25.9903 
   7   1.0000      -0.955128       -25.9903 
   8   1.0000      -0.955128       -25.9903 
   9   1.0000      -0.147642        -4.0175 
  10   0.0000       0.013302         0.3620 
  11   0.0000       0.013302         0.3620 
  12   0.0000       0.013302         0.3620 
  13   0.0000       0.062175         1.6919 
  14   0.0000       0.077438         2.1072 
  15   0.0000       0.077438         2.1072 
  16   0.0000       0.077438         2.1072 
  17   0.0000       0.128130         3.4866 
  18   0.0000       0.128130         3.4866 
  19   0.0000       0.128130         3.4866 
  20   0.0000       0.128130         3.4866 
  21   0.0000       0.128130         3.4866 
  22   0.0000       0.257065         6.9951 
  23   0.0000       0.257065         6.9951 
  24   0.0000       0.257065         6.9951 
  25   0.0000       0.309140         8.4121 
  26   0.0000       0.349807         9.5187 
  27   0.0000       0.349807         9.5187 
  28   0.0000       0.349807         9.5187 
  29   0.0000       0.349807         9.5187 
  30   0.0000       0.349807         9.5187 
  31   0.0000       0.349807         9.5187 
  32   0.0000       0.349807         9.5187 
  33   0.0000       0.381805        10.3894 
  34   0.0000       0.381805        10.3894 
  35   0.0000       0.381805        10.3894 
  36   0.0000       0.381805        10.3894 
  37   0.0000       0.381805        10.3894 
  38   0.0000       0.815647        22.1949 
  39   0.0000       0.815647        22.1949 
  40   0.0000       0.815647        22.1949 
  41   0.0000       1.042854        28.3775 
  42   0.0000       1.042854        28.3775 
  43   0.0000       1.042854        28.3775 
  44   0.0000       1.042854        28.3775 
  45   0.0000       1.042854        28.3775 
  46   0.0000       1.244266        33.8582 
  47   0.0000       2.475049        67.3495 
  48   0.0000       2.475049        67.3495 
  49   0.0000       2.475049        67.3495 
  50   0.0000       2.475049        67.3495 
  51   0.0000       2.475049        67.3495 
  52   0.0000       2.475049        67.3495 
  53   0.0000       2.475049        67.3495 
  54   0.0000       3.315962        90.2319 
  55   0.0000       3.315962        90.2319 
  56   0.0000       3.315962        90.2319 
  57   0.0000       3.315962        90.2319 
  58   0.0000       3.315962        90.2319 
  59   0.0000       4.410702       120.0213 
  60   0.0000       8.000188       217.6962 
  61   0.0000       8.000188       217.6962 
  62   0.0000       8.000188       217.6962 
  63   0.0000       8.000188       217.6962 
  64   0.0000       8.000188       217.6962 
  65   0.0000       8.000188       217.6962 
  66   0.0000       8.000188       217.6962 
  67   0.0000      14.970557       407.3696 
  68   0.0000      50.826145      1383.0497 
  69   0.0000     346.294554      9423.1539 

                 SPIN DOWN ORBITALS
  NO   OCC          E(Eh)            E(eV) 
   0   1.0000    -133.533021     -3633.6182 
   1   1.0000     -14.489316      -394.2743 
   2   1.0000     -11.519382      -313.4583 
   3   1.0000     -11.519382      -313.4583 
   4   1.0000     -11.519382      -313.4583 
   5   1.0000      -1.746285       -47.5188 
   6   1.0000      -0.953542       -25.9472 
   7   1.0000      -0.953542       -25.9472 
   8   1.0000      -0.953542       -25.9472 
   9   0.0000       0.011587         0.3153 
  10   0.0000       0.028285         0.7697 
  11   0.0000       0.028285         0.7697 
  12   0.0000       0.028285         0.7697 
  13   0.0000       0.086948         2.3660 
  14   0.0000       0.097802         2.6613 
  15   0.0000       0.097802         2.6613 
  16   0.0000       0.097802         2.6613 
  17   0.0000       0.146073         3.9749 
  18   0.0000       0.146073         3.9749 
  19   0.0000       0.146073         3.9749 
  20   0.0000       0.146073         3.9749 
  21   0.0000       0.146073         3.9749 
  22   0.0000       0.271640         7.3917 
  23   0.0000       0.271640         7.3917 
  24   0.0000       0.271640         7.3917 
  25   0.0000       0.326440         8.8829 
  26   0.0000       0.361428         9.8350 
  27   0.0000       0.361428         9.8350 
  28   0.0000       0.361428         9.8350 
  29   0.0000       0.361428         9.8350 
  30   0.0000       0.361428         9.8350 
  31   0.0000       0.361428         9.8350 
  32   0.0000       0.361428         9.8350 
  33   0.0000       0.387112        10.5338 
  34   0.0000       0.387112        10.5338 
  35   0.0000       0.387112        10.5338 
  36   0.0000       0.387112        10.5338 
  37   0.0000       0.387112        10.5338 
  38   0.0000       0.822750        22.3882 
  39   0.0000       0.822750        22.3882 
  40   0.0000       0.822750        22.3882 
  41   0.0000       1.047494        28.5038 
  42   0.0000       1.047494        28.5038 
  43   0.0000       1.047494        28.5038 
  44   0.0000       1.047494        28.5038 
  45   0.0000       1.047494        28.5038 
  46   0.0000       1.251789        34.0629 
  47   0.0000       2.475389        67.3588 
  48   0.0000       2.475389        67.3588 
  49   0.0000       2.475389        67.3588 
  50   0.0000       2.475389        67.3588 
  51   0.0000       2.475389        67.3588 
  52   0.0000       2.475389        67.3588 
  53   0.0000       2.475389        67.3588 
  54   0.0000       3.317573        90.2758 
  55   0.0000       3.317573        90.2758 
  56   0.0000       3.317573        90.2758 
  57   0.0000       3.317573        90.2758 
  58   0.0000       3.317573        90.2758 
  59   0.0000       4.413742       120.1040 
  60   0.0000       8.001035       217.7192 
  61   0.0000       8.001035       217.7192 
  62   0.0000       8.001035       217.7192 
  63   0.0000       8.001035       217.7192 
  64   0.0000       8.001035       217.7192 
  65   0.0000       8.001035       217.7192 
  66   0.0000       8.001035       217.7192 
  67   0.0000      14.972183       407.4138 
  68   0.0000      50.827208      1383.0786 
  69   0.0000     346.295600      9423.1823 

                    ********************************
                    * MULLIKEN POPULATION ANALYSIS *
                    ********************************

--------------------------------------------
MULLIKEN ATOMIC CHARGES AND SPIN POPULATIONS
--------------------------------------------
   0 K :   -0.000000    1.000000
Sum of atomic charges         :   -0.0000000
Sum of atomic spin populations:    1.0000000

-----------------------------------------------------
MULLIKEN REDUCED ORBITAL CHARGES AND SPIN POPULATIONS
-----------------------------------------------------
CHARGE
  0 K s       :     7.000000  s :     7.000000
      pz      :     4.000000  p :    12.000000
      px      :     4.000000
      py      :     4.000000
      dz2     :     0.000000  d :     0.000000
      dxz     :     0.000000
      dyz     :     0.000000
      dx2y2   :     0.000000
      dxy     :     0.000000
      f0      :     0.000000  f :     0.000000
      f+1     :     0.000000
      f-1     :     0.000000
      f+2     :     0.000000
      f-2     :     0.000000
      f+3     :     0.000000
      f-3     :     0.000000

SPIN
  0 K s       :     1.000000  s :     1.000000
      pz      :    -0.000000  p :    -0.000000
      px      :    -0.000000
      py      :     0.000000
      dz2     :     0.000000  d :     0.000000
      dxz     :     0.000000
      dyz     :    -0.000000
      dx2y2   :     0.000000
      dxy     :    -0.000000
      f0      :    -0.000000  f :    -0.000000
      f+1     :    -0.000000
      f-1     :    -0.000000
      f+2     :     0.000000
      f-2     :     0.000000
      f+3     :    -0.000000
      f-3     :    -0.000000


                     *******************************
                     * LOEWDIN POPULATION ANALYSIS *
                     *******************************

-------------------------------------------
LOEWDIN ATOMIC CHARGES AND SPIN POPULATIONS
-------------------------------------------
   0 K :   -0.000000    1.000000

----------------------------------------------------
LOEWDIN REDUCED ORBITAL CHARGES AND SPIN POPULATIONS
----------------------------------------------------
CHARGE
  0 K s       :     7.000000  s :     7.000000
      pz      :     4.000000  p :    12.000000
      px      :     4.000000
      py      :     4.000000
      dz2     :     0.000000  d :     0.000000
      dxz     :     0.000000
      dyz     :     0.000000
      dx2y2   :     0.000000
      dxy     :     0.000000
      f0      :     0.000000  f :     0.000000
      f+1     :     0.000000
      f-1     :     0.000000
      f+2     :     0.000000
      f-2     :     0.000000
      f+3     :     0.000000
      f-3     :     0.000000

SPIN
  0 K s       :     1.000000  s :     1.000000
      pz      :    -0.000000  p :    -0.000000
      px      :    -0.000000
      py      :     0.000000
      dz2     :     0.000000  d :     0.000000
      dxz     :     0.000000
      dyz     :    -0.000000
      dx2y2   :     0.000000
      dxy     :    -0.000000
      f0      :    -0.000000  f :    -0.000000
      f+1     :    -0.000000
      f-1     :    -0.000000
      f+2     :     0.000000
      f-2     :     0.000000
      f+3     :    -0.000000
      f-3     :    -0.000000


                      *****************************
                      * MAYER POPULATION ANALYSIS *
                      *****************************

  NA   - Mulliken gross atomic population
  ZA   - Total nuclear charge
  QA   - Mulliken gross atomic charge
  VA   - Mayer's total valence
  BVA  - Mayer's bonded valence
  FA   - Mayer's free valence

  ATOM       NA         ZA         QA         VA         BVA        FA
  0 K     19.0000    19.0000    -0.0000     1.0004     0.0000     1.0004

  Mayer bond orders larger than 0.100000


-------
TIMINGS
-------

Total SCF time: 0 days 0 hours 0 min 3 sec 

Total time                  ....       3.004 sec
Sum of individual times     ....       2.603 sec  ( 86.6%)

Fock matrix formation       ....       2.039 sec  ( 67.9%)
Diagonalization             ....       0.066 sec  (  2.2%)
Density matrix formation    ....       0.007 sec  (  0.2%)
Population analysis         ....       0.073 sec  (  2.4%)
Initial guess               ....       0.113 sec  (  3.7%)
Orbital Transformation      ....       0.000 sec  (  0.0%)
Orbital Orthonormalization  ....       0.000 sec  (  0.0%)
DIIS solution               ....       0.242 sec  (  8.1%)


           ************************************************************
           *        Program running with 24 parallel MPI-processes    *
           *              working on a common directory               *
           ************************************************************


------------------------------------------------------------------------------- 
                              ORCA-MATRIX DRIVEN CI                            
------------------------------------------------------------------------------- 

--------------------------------
AUTOMATIC CHOICE OF INCORE LEVEL
--------------------------------

Memory available                           ...   2500.00 MB
Memory needed for S+T                      ...      1.24 MB
Memory needed for J+K                      ...      2.49 MB
Memory needed for DIIS                     ...     17.30 MB
Memory needed for 3-ext                    ...      8.24 MB
Memory needed for 4-ext                    ...     50.26 MB
Memory needed for triples                  ...      8.24 MB
 -> Final InCoreLevel    ... 5
 -> check shows that triples correction can be computed


Wavefunction type
-----------------
Correlation treatment                      ...      CCSD     
Single excitations                         ... ON
Orbital optimization                       ... OFF
Calculation of Z vector                    ... OFF
Calculation of Brueckner orbitals          ... OFF
Perturbative triple excitations            ... ON
Calculation of F12 correction              ... OFF
Frozen core treatment                      ... chemical core (10 el)
Reference Wavefunction                     ... UHF
  Alpha-MOs occ    :     5 ...    9 (  5 MO's/  5 electrons)
  Beta-MOs occ     :     5 ...    8 (  4 MO's/  4 electrons)
  Alpha-MOs virt   :    10 ...   69 ( 60 MO's              )
  Beta-MOs virt    :     9 ...   69 ( 61 MO's              )
Number of AO's                             ...     70
Number of electrons                        ...     19
Number of correlated electrons             ...      9

Algorithmic settings
--------------------
Integral transformation                    ... AO direct full transformation
K(C) Formation                             ... FULL-MO TRAFO
Maximum number of iterations               ...        50
Convergence tolerance (max. residuum)      ... 1.000e-05
Level shift for amplitude update           ... 2.000e-01
Maximum number of DIIS vectors             ...         7
DIIS turned on at iteration                ...         0
Damping before turning on DIIS             ...     0.500
Damping after turning on DIIS              ...     0.000
Pair specific amplitude update             ... OFF
Natural orbital iterations                 ... OFF
Perturbative natural orbital generation    ... OFF
Printlevel                                 ... 2

Memory handling:
----------------
Maximum memory for working arrays          ...   2500 MB
Data storage in matrix containers          ... UNCOMPRESSED
Data type for integral storage             ... DOUBLE
In-Core Storage of quantities:
   Amplitudes+Sigma Vector      ... YES
   J+K operators                ... YES
   DIIS vectors                 ... YES
   3-external integrals         ... YES
   4-external integrals         ... YES


Initializing the integral package          ... done
Warning: reference  - re-canonicalizations have been set to INT 1 VIRT 1

--------------------------
UNRESTRICTED FOCK OPERATOR
--------------------------

<ss|ss>:         2211 b            0 skpd (  0.0%)    0.003 s ( 0.001 ms/b)
<ss|sp>:         4356 b            0 skpd (  0.0%)    0.005 s ( 0.001 ms/b)
<ss|sd>:         2904 b            0 skpd (  0.0%)    0.001 s ( 0.000 ms/b)
<ss|sf>:         2178 b            0 skpd (  0.0%)    0.001 s ( 0.000 ms/b)
<ss|pp>:         1386 b            0 skpd (  0.0%)    0.006 s ( 0.004 ms/b)
<ss|pd>:         1584 b            0 skpd (  0.0%)    0.001 s ( 0.000 ms/b)
<ss|pf>:         1188 b            0 skpd (  0.0%)    0.001 s ( 0.001 ms/b)
<ss|dd>:          660 b            0 skpd (  0.0%)    0.000 s ( 0.000 ms/b)
<ss|df>:          792 b            0 skpd (  0.0%)    0.000 s ( 0.000 ms/b)
<ss|ff>:          396 b            0 skpd (  0.0%)    0.001 s ( 0.001 ms/b)
<sp|sp>:         2211 b            0 skpd (  0.0%)    0.004 s ( 0.002 ms/b)
<sp|sd>:         2904 b            0 skpd (  0.0%)    0.001 s ( 0.000 ms/b)
<sp|sf>:         2178 b            5 skpd (  0.2%)    0.001 s ( 0.000 ms/b)
<sp|pp>:         1386 b            0 skpd (  0.0%)    0.006 s ( 0.004 ms/b)
<sp|pd>:         1584 b           12 skpd (  0.8%)    0.001 s ( 0.001 ms/b)
<sp|pf>:         1188 b           14 skpd (  1.2%)    0.002 s ( 0.002 ms/b)
<sp|dd>: done
<sp|df>: done
<sp|ff>: done
<sd|sd>:          990 b            2 skpd (  0.2%)    0.000 s ( 0.000 ms/b)
<sd|sf>:         1452 b           12 skpd (  0.8%)    0.001 s ( 0.000 ms/b)
<sd|pp>:          924 b            3 skpd (  0.3%)    0.002 s ( 0.002 ms/b)
<sd|pd>: done
<sd|pf>: done
<sd|dd>: done
<sd|df>: done
<sd|ff>: done
<sf|sf>:          561 b           11 skpd (  2.0%)    0.001 s ( 0.001 ms/b)
<sf|pp>:          693 b           14 skpd (  2.0%)    0.003 s ( 0.005 ms/b)
<sf|pd>: done
<sf|pf>: done
<sf|dd>: done
<sf|df>: done
<sf|ff>: done
<pp|pp>:          231 b            0 skpd (  0.0%)    0.005 s ( 0.022 ms/b)
<pp|pd>:          504 b            0 skpd (  0.0%)    0.001 s ( 0.002 ms/b)
<pp|pf>:          378 b            0 skpd (  0.0%)    0.002 s ( 0.005 ms/b)
<pp|dd>:          210 b            0 skpd (  0.0%)    0.001 s ( 0.004 ms/b)
<pp|df>:          252 b            0 skpd (  0.0%)    0.001 s ( 0.006 ms/b)
<pp|ff>:          126 b            0 skpd (  0.0%)    0.002 s ( 0.017 ms/b)
<pd|pd>:          300 b            0 skpd (  0.0%)    0.001 s ( 0.003 ms/b)
<pd|pf>:          432 b            0 skpd (  0.0%)    0.002 s ( 0.004 ms/b)
<pd|dd>: done
<pd|df>: done
<pd|ff>: done
<pf|pf>:          171 b            0 skpd (  0.0%)    0.002 s ( 0.010 ms/b)
<pf|dd>: done
<pf|df>: done
<pf|ff>: done
<dd|dd>: done
<dd|df>: done
<dd|ff>: done
<df|df>: done
<df|ff>: done
<ff|ff>: done
Recanonicalizing the internal orbitals
Recanonicalizing the virtual orbitals
Time needed for Fock operator              ...            0.097 sec
Reference energy                           ...   -599.164594370
Warning: for UHF the TrafoType has to be JK
Warning: for UHF the K(C)-option cannot be MO but must be AOX

-------------------------------
PARTIAL EXCHANGE TRANSFORMATION
-------------------------------

Transformation type                        ... two-operators
Generation of integrals (i,mue|j,nue)      ... ON
Generation of integrals (mue,kappa|nue,tau)... ON
Generation of integrals (i,mue|a,nue)      ... ON
Dimension of the basis                     ...   70
Number of internal alpha-MOs               ...    5 (   5-   9)
Number of internal beta-MOs                ...    4 (   5-   8)
Number of external alpha-MOs               ...   60 (  10-  69)
Number of external beta-MOs                ...   61 (   9-  69)
Pair cutoff                                ... 0.000e+00 Eh
Number of AO pairs in the trafo            ... 2485
Total Number of distinct AO pairs          ... 2485
Memory devoted for trafo                   ... 2500.0 MB 
Max. Number of MO pairs treated together   ... 66873      
Number Format for Storage                  ... Double (8 Byte)
Integral package used                      ... LIBINT

Starting integral evaluation:
    ... done with AO integral generation
Closing buffer AOK[aa] ( 0.00 GB; CompressionRatio= 0.94)
Closing buffer AOK[bb] ( 0.00 GB; CompressionRatio= 0.91)
Closing buffer AOK[ab] ( 0.00 GB; CompressionRatio= 0.93)
Closing buffer AOK[ba] ( 0.00 GB; CompressionRatio= 0.93)
Collecting buffer AOK 
Closing buffer IAAO1[aa] ( 0.00 GB; CompressionRatio= 1.00)
Closing buffer IAAO1[bb] ( 0.00 GB; CompressionRatio= 0.99)
Closing buffer IAAO1[ab] ( 0.00 GB; CompressionRatio= 1.00)
Closing buffer IAAO1[ba] ( 0.00 GB; CompressionRatio= 0.99)
Closing buffer IAAO2[aa] ( 0.00 GB; CompressionRatio= 1.00)
Closing buffer IAAO2[bb] ( 0.00 GB; CompressionRatio= 0.99)
Closing buffer IAAO2[ab] ( 0.00 GB; CompressionRatio= 1.00)
Closing buffer IAAO2[ba] ( 0.00 GB; CompressionRatio= 0.99)
Collecting buffer IAAO 
Closing buffer PRQS    ( 0.00 GB; CompressionRatio= 1.00)
Collecting buffer PRQS 
Number of alpha/alpha MO pairs in trafo    ...   15
Number of beta /beta  MO pairs in trafo    ...   10
Number of alpha/ beta MO pairs in trafo    ...   20
------------------------
SORTING OF (i,mue|j,nue)
------------------------

SORTING OF ALPHA/ALPHA PAIRS
IBATCH = 1 of  1
Closing buffer KAO[aa] ( 0.00 GB; CompressionRatio= 1.00)
Collecting buffer KAO 
SORTING OF BETA /BETA  PAIRS
IBATCH = 1 of  1
Closing buffer KAO[bb] ( 0.00 GB; CompressionRatio= 1.00)
Collecting buffer KAO 
SORTING OF ALPHA/BETA  PAIRS
IBATCH = 1 of  1
Closing buffer KAO[ab] ( 0.00 GB; CompressionRatio= 0.999693971233)
Collecting buffer KAO[ab] 
------------------------
SORTING OF (i,mue|a,nue)
------------------------

Number of alpha/alpha (i,a) pairs in trafo  ...  300
Number of beta /beta  (i,a) pairs in trafo  ...  244
Number of alpha/ beta (i,a) pairs in trafo  ...  305
Number of beta /alpha (i,a) pairs in trafo  ...  240
Setting up the alpha/alpha list             ... done
Setting up the beta /beta  list             ... done
Setting up the alpha/beta  list             ... done
Setting up the beta /alpha list             ... done
    ... Now sorting (i,mue|a,nue)integrals
    ... Integrals (i,b|a,c) will be made on the fly
SORTING OF ALPHA/ALPHA PAIRS
IBATCH = 1 of  1
Closing buffer IPAQ[aa]  0.00 GB; CompressionRatio= 1.00)
SORTING OF BETA /BETA  PAIRS
IBATCH = 1 of  1
Closing buffer IPAQ[bb]( 0.00 GB; CompressionRatio= 1.00)
SORTING OF ALPHA/BETA  PAIRS (NMatSort_ab=13)
IBATCH = 1 of  1
Closing buffer IPAQ[ab]( 0.00 GB; CompressionRatio= 1.00)
SORTING OF BETA/ALPHA  PAIRS
IBATCH = 1 of  1
Closing buffer IPAQ[ba]( 0.00 GB; CompressionRatio= 1.00)
N(AO-Batches) Done                         ...       576 
N(AO-Batches) Skipped                      ...         0 
N(IJ)-pairs Skipped                        ...         0 
TOTAL TIME for half transformation         ...     4.157 sec
AO-integral generation                     ...     0.020 sec
Half transformation                        ...     0.143 sec
K-integral sorting                         ...     0.843 sec
<ss|**>: 
------------------------------
PARTIAL COULOMB TRANSFORMATION
------------------------------

Transformation type                        ... two-operators
Dimension of the basis                     ...   70
Number of internal alpha-MOs               ...    5 (5-9)
Number of internal beta-MOs                ...    4 (5-8)
Pair cutoff                                ... 0.000e+00 Eh
Number of AO pairs included in the trafo   ... 2485
Total Number of distinct AO pairs          ... 2485
Memory devoted for trafo                   ... 2500.0 MB 
Max. Number of MO pairs treated together   ... 131863      
Max. Number of MOs treated per batch       ... 1883      
Number Format for Storage                  ... Double (8 Byte)
AO-integral source                         ... DIRECT
Integral package used                      ... LIBINT

Starting integral evaluation:
<sp|**>:        19800 b        0 skpd     0.015 s (  0.001 ms/b)
<sd|**>:        19800 b        0 skpd     0.031 s (  0.002 ms/b)
<sf|**>:        13200 b        0 skpd     0.037 s (  0.003 ms/b)
<pp|**>:         9900 b        0 skpd     0.059 s (  0.006 ms/b)
        6300 b        0 skpd     0.034 s (  0.005 ms/b)
<pd|**>:         7200 b        0 skpd     0.058 s (  0.008 ms/b)
<pf|**>:         5400 b        0 skpd     0.065 s (  0.012 ms/b)
<dd|**>:         3000 b        0 skpd     0.038 s (  0.013 ms/b)
<df|**>:         3600 b        0 skpd     0.072 s (  0.020 ms/b)
<ff|**>:         1800 b        0 skpd     0.059 s (  0.033 ms/b)
Closing buffer AOJ[aa] ( 0.00 GB; CompressionRatio= 0.91)
Closing buffer AOJ[bb] ( 0.00 GB; CompressionRatio= 0.00)
Collecting buffer AOJ 
    ... done with AO integral generation
Number of Alpha-MO pairs included          ...   15
Number of Beta-MO pairs included           ...   10
    ... Now sorting integrals
SORTING ALPHA/ALPHA PAIRS
IBATCH = 1 of  1
Closing buffer JAO[aa] ( 0.00 GB; CompressionRatio= 1.00)
SORTING BETA/BETA PAIRS
IBATCH = 1 of  1
Closing buffer JAO[bb] ( 0.00 GB; CompressionRatio= 1.00)
Collecting buffer JAO 
TOTAL TIME for half transformation         ...     0.705 sec
AO-integral generation                     ...     0.169 sec
Half transformation                        ...     0.301 sec
J-integral sorting                         ...     0.102 sec

-------------------------- SECOND HALF TRANSFORMATION -------------------------
Formation of (ij|kl),(ij|ka), (ij|ab)      ... ok (     0.142 sec)
Formation of (ik|jl),(ik|ja), (ia|jb)      ... ok (     0.217 sec)


-----------------------
SPIN UNRESTRICTED GUESS
-----------------------

Entering MDCI_UHF_Guess, Tailored=0
Spin-components of the MP2 energy:
EMP2(aa)=     -0.029688855
EMP2(bb)=     -0.025080220
EMP2(ab)=     -0.153120269

Initial guess performed in     0.004 sec
E(0)                                       ...   -599.164594370
E(MP2)                                     ...     -0.207889344
Initial E(tot)                             ...   -599.372483714
<T|T>                                      ...      0.056189725
Number of pairs included                   ... 36

------------------------------------------------
                  UHF COUPLED CLUSTER ITERATIONS
------------------------------------------------

Number of amplitudes to be optimized       ...       102632

Iter       E(tot)           E(Corr)          Delta-E          Residual     Time      <S|S>**1/2
  0   -599.372483714     -0.207889344     -0.000000000      0.008963016    0.27      0.000001172
                           *** Turning on DIIS ***
  1   -599.386540391     -0.221946022     -0.014056678      0.005138805    0.17      0.012168402
  2   -599.390586018     -0.225991649     -0.004045627      0.003045122    0.18      0.021241015
  3   -599.390982169     -0.226387799     -0.000396150      0.002115880    0.18      0.027809443
  4   -599.391119330     -0.226524960     -0.000137161      0.001241997    0.17      0.033214278
  5   -599.391209977     -0.226615607     -0.000090647      0.000365119    0.17      0.038095304
  6   -599.391226183     -0.226631814     -0.000016206      0.000099565    0.17      0.039358701
  7   -599.391228834     -0.226634464     -0.000002651      0.000028324    0.17      0.039630910
  8   -599.391229554     -0.226635184     -0.000000720      0.000003317    0.17      0.039711482
               --- The Coupled-Cluster iterations have converged ---

----------------------
COUPLED CLUSTER ENERGY
----------------------

E(0)                                       ...   -599.164594370
E(CORR)                                    ...     -0.226635184
E(TOT)                                     ...   -599.391229554
Singles norm <S|S>**1/2                    ...      0.039711482 ( 0.037575765, 0.002135717)  
T1 diagnostic                              ...      0.013237161                              

------------------
LARGEST AMPLITUDES
------------------
   9a-> 13a  -1a-> -1a       0.056351
   9a-> 25a  -1a-> -1a       0.036178
   6a-> 34a   8b-> 35b       0.020569
   8a-> 33a   6b-> 33b       0.019936
   7a-> 43a   7b-> 41b       0.019397
   7a-> 33a   7b-> 33b       0.019301
   7b-> 33b   6b-> 34b       0.019261
   7b-> 34b   6b-> 33b       0.019261
   7a-> 36a   7b-> 34b       0.018684
   6a-> 35a   8b-> 37b       0.018032
   8b-> 35b   6b-> 37b       0.017794
   8b-> 37b   6b-> 35b       0.017794
   7a-> 37a   7b-> 36b       0.017203
   6a-> 37a   8b-> 36b       0.017051
   7a-> 33a   7b-> 41b       0.016522
   7a-> 43a   7b-> 33b       0.016511

----------------------
UHF TRIPLES CORRECTION (Algorithm 1)
----------------------

Multiplier for the singles contribution    ...      1.000000000

SPIN-CASE Alpha-Alpha-Alpha:
10% done
20% done
30% done
40% done
50% done
60% done
70% done
80% done
90% done


SPIN-CASE Beta-Beta-Beta:
10% done
20% done
30% done
40% done
50% done
60% done
70% done
80% done
90% done


SPIN-CASE Alpha-Alpha-Beta:
10% done
20% done
30% done
40% done
50% done
60% done
70% done
80% done
90% done


SPIN-CASE Beta-Beta-Alpha:
10% done
20% done
30% done
40% done
50% done
60% done
70% done
80% done
90% done


Triples Correction (T)                     ...     -0.006709545
    alpha-alpha-alpha ... -0.000254467 (  3.8%)
    alpha-alpha-beta  ... -0.003388614 ( 50.5%)
    alpha-beta -beta  ... -0.002911341 ( 43.4%)
    beta -beta -beta  ... -0.000155122 (  2.3%)
Scaling of triples based on CCSD energies (Peterson et al. Molecular Physics 113, 1551 (2015))
E(T*) = f*E(T) where f = E(F12-CCSD)/E(CCSD) 
f = CCSD (with F12)/ CCSD (without F12)    ...      1.000000000
Scaled triples correction (T)              ...     -0.006709545

Final correlation energy                   ...     -0.233344729
E(CCSD)                                    ...   -599.391229554
E(CCSD(T))                                 ...   -599.397939099



        !!!!!!!!!!!!!!!!!!!!!!!!!!!!!!!!!!!!!!!!!!!!!!!!!!!!!!!!!!!!!!!!!!!!!!!!!! 
        !  Warning: Densities are linearized densities                           !
        !!!!!!!!!!!!!!!!!!!!!!!!!!!!!!!!!!!!!!!!!!!!!!!!!!!!!!!!!!!!!!!!!!!!!!!!!! 

NORM  =      1.071750551 sqrt=     1.035253858
W(HF) =      0.933052937
------------------------------------------------------------------------------
                           ORCA POPULATION ANALYSIS
------------------------------------------------------------------------------
Input electron density              ... 19_K.mdcip
Input spin density                  ... 19_K.mdcir
BaseName (.gbw .S,...)              ... 19_K

                    ********************************
                    * MULLIKEN POPULATION ANALYSIS *
                    ********************************

------------------------------------------
MULLIKEN ATOMIC CHARGES AND SPIN DENSITIES
------------------------------------------
   0 K :    0.000000    1.000000
Sum of atomic charges       :    0.0000000
Sum of atomic spin densities:    1.0000000

---------------------------------------------------
MULLIKEN REDUCED ORBITAL CHARGES AND SPIN DENSITIES
---------------------------------------------------
CHARGE
  0 K s       :     6.983966  s :     6.983966
      pz      :     3.969196  p :    11.907587
      px      :     3.969196
      py      :     3.969196
      dz2     :     0.019755  d :     0.098777
      dxz     :     0.019755
      dyz     :     0.019755
      dx2y2   :     0.019755
      dxy     :     0.019755
      f0      :     0.001381  f :     0.009670
      f+1     :     0.001381
      f-1     :     0.001381
      f+2     :     0.001381
      f-2     :     0.001381
      f+3     :     0.001381
      f-3     :     0.001381

SPIN
  0 K s       :     0.993302  s :     0.993302
      pz      :     0.002352  p :     0.007056
      px      :     0.002352
      py      :     0.002352
      dz2     :    -0.000072  d :    -0.000358
      dxz     :    -0.000072
      dyz     :    -0.000072
      dx2y2   :    -0.000072
      dxy     :    -0.000072
      f0      :     0.000000  f :     0.000001
      f+1     :     0.000000
      f-1     :     0.000000
      f+2     :     0.000000
      f-2     :     0.000000
      f+3     :     0.000000
      f-3     :     0.000000


                     *******************************
                     * LOEWDIN POPULATION ANALYSIS *
                     *******************************

-----------------------------------------
LOEWDIN ATOMIC CHARGES AND SPIN DENSITIES
-----------------------------------------
   0 K :   -0.000000    1.000000

--------------------------------------------------
LOEWDIN REDUCED ORBITAL CHARGES AND SPIN DENSITIES
--------------------------------------------------
CHARGE
  0 K s       :     6.983966  s :     6.983966
      pz      :     3.969196  p :    11.907587
      px      :     3.969196
      py      :     3.969196
      dz2     :     0.019755  d :     0.098777
      dxz     :     0.019755
      dyz     :     0.019755
      dx2y2   :     0.019755
      dxy     :     0.019755
      f0      :     0.001381  f :     0.009670
      f+1     :     0.001381
      f-1     :     0.001381
      f+2     :     0.001381
      f-2     :     0.001381
      f+3     :     0.001381
      f-3     :     0.001381

SPIN
  0 K s       :     0.993302  s :     0.993302
      pz      :     0.002352  p :     0.007056
      px      :     0.002352
      py      :     0.002352
      dz2     :    -0.000072  d :    -0.000358
      dxz     :    -0.000072
      dyz     :    -0.000072
      dx2y2   :    -0.000072
      dxy     :    -0.000072
      f0      :     0.000000  f :     0.000001
      f+1     :     0.000000
      f-1     :     0.000000
      f+2     :     0.000000
      f-2     :     0.000000
      f+3     :     0.000000
      f-3     :     0.000000


                      *****************************
                      * MAYER POPULATION ANALYSIS *
                      *****************************

  NA   - Mulliken gross atomic population
  ZA   - Total nuclear charge
  QA   - Mulliken gross atomic charge
  VA   - Mayer's total valence
  BVA  - Mayer's bonded valence
  FA   - Mayer's free valence

  ATOM       NA         ZA         QA         VA         BVA        FA
  0 K     19.0000    19.0000     0.0000     1.5158     0.0000     1.5158





------------------------------------------------------------------------------- 
                                     TIMINGS                                   
------------------------------------------------------------------------------- 


Total execution time                   ...        7.737 sec

Fock Matrix Formation                  ...        0.097 sec (  1.3%)
Initial Guess                          ...        0.004 sec (  0.1%)
DIIS Solver                            ...        0.063 sec (  0.8%)
State Vector Update                    ...        0.004 sec (  0.0%)
Sigma-vector construction              ...        1.584 sec ( 20.5%)
  <D|H|D>(0-ext Fock)                  ...        0.001 sec (  0.1% of sigma)
  <D|H|D>(0-ext)                       ...        0.002 sec (  0.1% of sigma)
  <D|H|D>(2-ext)                       ...        0.011 sec (  0.7% of sigma)
  <D|H|D>(4-ext)                       ...        0.936 sec ( 59.1% of sigma)
  <S|H|0>                              ...        0.028 sec (  1.8% of sigma)
  <D|H|S>(1-ext)                       ...        0.007 sec (  0.4% of sigma)
  Fock-dressing                        ...        0.293 sec ( 18.5% of sigma)
  (ik|jl)-dressing                     ...        0.002 sec (  0.1% of sigma)
  (ij|ab),(ia|jb)-dressing             ...        0.221 sec ( 14.0% of sigma)
Total Time for computing (T)           ...        0.127 sec (  1.6% of ALL)
  I/O of integral and amplitudes       ...        0.038 sec ( 29.9% of (T))
  External N**7 contributions          ...        0.031 sec ( 24.2% of (T))
  Internal N**7 contributions          ...        0.012 sec (  9.2% of (T))
  N**6 triples energy contributions    ...        0.040 sec ( 31.5% of (T))


-------------------------   --------------------
FINAL SINGLE POINT ENERGY      -599.397939098522
-------------------------   --------------------


                            ***************************************
                            *     ORCA property calculations      *
                            ***************************************

                                    ---------------------
                                    Active property flags
                                    ---------------------
   (+) Dipole Moment


------------------------------------------------------------------------------
                       ORCA ELECTRIC PROPERTIES CALCULATION
------------------------------------------------------------------------------

Dipole Moment Calculation                       ... on
Quadrupole Moment Calculation                   ... off
Polarizability Calculation                      ... off
GBWName                                         ... 19_K.gbw
Electron density file                           ... 19_K.scfp
The origin for moment calculation is the CENTER OF MASS  = ( 0.000000,  0.000000  0.000000)

-------------
DIPOLE MOMENT
-------------
                                X             Y             Z
Electronic contribution:      0.00000      -0.00000       0.00000
Nuclear contribution   :      0.00000       0.00000       0.00000
                        -----------------------------------------
Total Dipole Moment    :      0.00000      -0.00000       0.00000
                        -----------------------------------------
Magnitude (a.u.)       :      0.00000
Magnitude (Debye)      :      0.00000



--------------------
Rotational spectrum 
--------------------
 
Rotational constants in cm-1:     0.000000     0.000000     0.000000 
Rotational constants in MHz :     0.000000     0.000000     0.000000 

 Dipole components along the rotational axes: 
x,y,z [a.u.] :     0.000000    -0.000000     0.000000 
x,y,z [Debye]:     0.000000    -0.000000     0.000000 

 

                           *** MDCI DENSITY ***

------------------------------------------------------------------------------
                       ORCA ELECTRIC PROPERTIES CALCULATION
------------------------------------------------------------------------------

Dipole Moment Calculation                       ... on
Quadrupole Moment Calculation                   ... off
Polarizability Calculation                      ... off
GBWName                                         ... 19_K.gbw
Electron density file                           ... 19_K.mdcip
The origin for moment calculation is the CENTER OF MASS  = ( 0.000000,  0.000000  0.000000)

-------------
DIPOLE MOMENT
-------------
                                X             Y             Z
Electronic contribution:      0.00000       0.00000       0.00000
Nuclear contribution   :      0.00000       0.00000       0.00000
                        -----------------------------------------
Total Dipole Moment    :      0.00000       0.00000       0.00000
                        -----------------------------------------
Magnitude (a.u.)       :      0.00000
Magnitude (Debye)      :      0.00000



--------------------
Rotational spectrum 
--------------------
 
Rotational constants in cm-1:     0.000000     0.000000     0.000000 
Rotational constants in MHz :     0.000000     0.000000     0.000000 

 Dipole components along the rotational axes: 
x,y,z [a.u.] :     0.000000     0.000000     0.000000 
x,y,z [Debye]:     0.000000     0.000000     0.000000 

 

Timings for individual modules:

Sum of individual times         ...       12.606 sec (=   0.210 min)
GTO integral calculation        ...        0.944 sec (=   0.016 min)   7.5 %
SCF iterations                  ...        3.399 sec (=   0.057 min)  27.0 %
MDCI module                     ...        8.263 sec (=   0.138 min)  65.6 %
                             ****ORCA TERMINATED NORMALLY****
TOTAL RUN TIME: 0 days 0 hours 0 minutes 13 seconds 398 msec
