
                                 *****************
                                 * O   R   C   A *
                                 *****************

           --- An Ab Initio, DFT and Semiempirical electronic structure package ---

                  #######################################################
                  #                        -***-                        #
                  #          Department of theory and spectroscopy      #
                  #               Directorship: Frank Neese             #
                  #        Max Planck Institute fuer Kohlenforschung    #
                  #                Kaiser Wilhelm Platz 1               #
                  #                 D-45470 Muelheim/Ruhr               #
                  #                      Germany                        #
                  #                                                     #
                  #                  All rights reserved                #
                  #                        -***-                        #
                  #######################################################


                         Program Version 4.2.0 -  RELEASE  -


 With contributions from (in alphabetic order):
   Daniel Aravena         : Magnetic Suceptibility
   Michael Atanasov       : Ab Initio Ligand Field Theory (pilot matlab implementation)
   Alexander A. Auer      : GIAO ZORA, VPT2
   Ute Becker             : Parallelization
   Giovanni Bistoni       : ED, misc. LED, open-shell LED, HFLED
   Martin Brehm           : Molecular dynamics
   Dmytro Bykov           : SCF Hessian
   Vijay G. Chilkuri      : MRCI spin determinant printing, contributions to CSF-ICE
   Dipayan Datta          : RHF DLPNO-CCSD density
   Achintya Kumar Dutta   : EOM-CC, STEOM-CC
   Dmitry Ganyushin       : Spin-Orbit,Spin-Spin,Magnetic field MRCI
   Miquel Garcia          : C-PCM Hessian, Gaussian charge scheme
   Yang Guo               : DLPNO-NEVPT2, CIM, IAO-localization
   Andreas Hansen         : Spin unrestricted coupled pair/coupled cluster methods
   Benjamin Helmich-Paris : CASSCF linear response (MC-RPA)
   Lee Huntington         : MR-EOM, pCC
   Robert Izsak           : Overlap fitted RIJCOSX, COSX-SCS-MP3, EOM
   Christian Kollmar      : KDIIS, OOCD, Brueckner-CCSD(T), CCSD density
   Simone Kossmann        : Meta GGA functionals, TD-DFT gradient, OOMP2, MP2 Hessian
   Martin Krupicka        : AUTO-CI
   Lucas Lang             : DCDCAS
   Dagmar Lenk            : GEPOL surface, SMD
   Dimitrios Liakos       : Extrapolation schemes; Compound Job, initial MDCI parallelization
   Dimitrios Manganas     : Further ROCIS development; embedding schemes
   Dimitrios Pantazis     : SARC Basis sets
   Taras Petrenko         : DFT Hessian,TD-DFT gradient, ASA, ECA, R-Raman, ABS, FL, XAS/XES, NRVS
   Peter Pinski           : DLPNO-MP2, DLPNO-MP2 Gradient
   Christoph Reimann      : Effective Core Potentials
   Marius Retegan         : Local ZFS, SOC
   Christoph Riplinger    : Optimizer, TS searches, QM/MM, DLPNO-CCSD(T), (RO)-DLPNO pert. Triples
   Tobias Risthaus        : Range-separated hybrids, TD-DFT gradient, RPA, STAB
   Michael Roemelt        : Original ROCIS implementation
   Masaaki Saitow         : Open-shell DLPNO-CCSD energy and density
   Barbara Sandhoefer     : DKH picture change effects
   Avijit Sen             : IP-ROCIS
   Kantharuban Sivalingam : CASSCF convergence, NEVPT2, FIC-MRCI
   Bernardo de Souza      : ESD, SOC TD-DFT
   Georgi Stoychev        : AutoAux, RI-MP2 NMR
   Willem Van den Heuvel  : Paramagnetic NMR
   Boris Wezisla          : Elementary symmetry handling
   Frank Wennmohs         : Technical directorship


 We gratefully acknowledge several colleagues who have allowed us to
 interface, adapt or use parts of their codes:
   Stefan Grimme, W. Hujo, H. Kruse,             : VdW corrections, initial TS optimization,
                  C. Bannwarth                     DFT functionals, gCP, sTDA/sTD-DF
   Ed Valeev, F. Pavosevic, A. Kumar             : LibInt (2-el integral package), F12 methods
   Garnet Chan, S. Sharma, J. Yang, R. Olivares  : DMRG
   Ulf Ekstrom                                   : XCFun DFT Library
   Mihaly Kallay                                 : mrcc  (arbitrary order and MRCC methods)
   Andreas Klamt, Michael Diedenhofen            : otool_cosmo (COSMO solvation model)
   Jiri Pittner, Ondrej Demel                    : Mk-CCSD
   Frank Weinhold                                : gennbo (NPA and NBO analysis)
   Christopher J. Cramer and Donald G. Truhlar   : smd solvation model
   Lars Goerigk                                  : TD-DFT with DH, B97 family of functionals
   V. Asgeirsson, H. Jonsson                     : NEB implementation
   FAccTs GmbH                                   : IRC, NEB, NEB-TS, Multilevel, MM, QM/MM, CI optimization
   S Lehtola, MJT Oliveira, MAL Marques          : LibXC Library


 Your calculation uses the libint2 library for the computation of 2-el integrals
 For citations please refer to: http://libint.valeyev.net

 Your ORCA version has been built with support for libXC version: 4.2.3
 For citations please refer to: https://tddft.org/programs/libxc/

 This ORCA versions uses:
   CBLAS   interface :  Fast vector & matrix operations
   LAPACKE interface :  Fast linear algebra routines
   SCALAPACK package :  Parallel linear algebra routines


----- Orbital basis set information -----
Your calculation utilizes the basis: def2-QZVPPD
   F. Weigend and R. Ahlrichs, Phys. Chem. Chem. Phys. 7, 3297 (2005).
   D. Rappoport and F. Furche, J. Chem. Phys. 133 134105 (2010).

================================================================================
                                        WARNINGS
                       Please study these warnings very carefully!
================================================================================


WARNING: your system is open-shell and RHF/RKS was chosen
  ===> : WILL SWITCH to UHF/UKS


WARNING: MDCI localization with Augmented Hessian Foster-Boys
  ===> : Switching off randomization!

WARNING: Post HF methods need fully converged wavefunctions
  ===> : Setting SCFConvForced true
         You can overwrite this default with %scf ConvForced false 


INFO   : the flag for use of LIBINT has been found!

================================================================================
                                       INPUT FILE
================================================================================
NAME = 29_Cu.in
|  1> #
|  2> # 29_Cu CCSD(T)/Def2-QZVPPD
|  3> #
|  4> ! CCSD(T) Def2-QZVPPD tightscf
|  5> 
|  6> *xyz 0 2
|  7>  Cu 0.0 0.0 0.0
|  8> *
|  9> 
| 10> %maxcore 5000 
| 11> 
| 12> %pal
| 13> nprocs 24
| 14> end
| 15> 
| 16> 
| 17>                          ****END OF INPUT****
================================================================================

                       ****************************
                       * Single Point Calculation *
                       ****************************

---------------------------------
CARTESIAN COORDINATES (ANGSTROEM)
---------------------------------
  Cu     0.000000    0.000000    0.000000

----------------------------
CARTESIAN COORDINATES (A.U.)
----------------------------
  NO LB      ZA    FRAG     MASS         X           Y           Z
   0 Cu   29.0000    0    63.550    0.000000    0.000000    0.000000

--------------------------------
INTERNAL COORDINATES (ANGSTROEM)
--------------------------------
 Cu     0   0   0     0.000000000000     0.00000000     0.00000000

---------------------------
INTERNAL COORDINATES (A.U.)
---------------------------
 Cu     0   0   0     0.000000000000     0.00000000     0.00000000

---------------------
BASIS SET INFORMATION
---------------------
There are 1 groups of distinct atoms

 Group   1 Type Cu  : 24s18p10d4f2g contracted to 11s6p5d4f2g pattern {114111111111/951111/61111/1111/11}

Atom   0Cu   basis set group =>   1


           ************************************************************
           *        Program running with 24 parallel MPI-processes    *
           *              working on a common directory               *
           ************************************************************
------------------------------------------------------------------------------
                           ORCA GTO INTEGRAL CALCULATION
------------------------------------------------------------------------------

                         BASIS SET STATISTICS AND STARTUP INFO

 # of primitive gaussian shells          ...   58
 # of primitive gaussian functions       ...  174
 # of contracted shells                  ...   28
 # of contracted basis functions         ...  100
 Highest angular momentum                ...    4
 Maximum contraction depth               ...   11
 Integral package used                   ... LIBINT
 Integral threshhold            Thresh   ...  2.500e-11
 Primitive cut-off              TCut     ...  2.500e-12


------------------------------ INTEGRAL EVALUATION ----------------------------


 * One electron integrals 
 Pre-screening matrix                    ... done
 Shell pair data                         ... done (   0.000 sec)



           ************************************************************
           *        Program running with 24 parallel MPI-processes    *
           *              working on a common directory               *
           ************************************************************
-------------------------------------------------------------------------------
                                 ORCA SCF
-------------------------------------------------------------------------------

------------
SCF SETTINGS
------------
Hamiltonian:
 Ab initio Hamiltonian  Method          .... Hartree-Fock(GTOs)


General Settings:
 Integral files         IntName         .... 29_Cu
 Hartree-Fock type      HFTyp           .... UHF
 Total Charge           Charge          ....    0
 Multiplicity           Mult            ....    2
 Number of Electrons    NEL             ....   29
 Basis Dimension        Dim             ....  100
 Nuclear Repulsion      ENuc            ....      0.0000000000 Eh

Convergence Acceleration:
 DIIS                   CNVDIIS         .... on
   Start iteration      DIISMaxIt       ....    12
   Startup error        DIISStart       ....  0.200000
   # of expansion vecs  DIISMaxEq       ....     5
   Bias factor          DIISBfac        ....   1.050
   Max. coefficient     DIISMaxC        ....  10.000
 Newton-Raphson         CNVNR           .... off
 SOSCF                  CNVSOSCF        .... off
 Level Shifting         CNVShift        .... on
   Level shift para.    LevelShift      ....    0.2500
   Turn off err/grad.   ShiftErr        ....    0.0010
 Zerner damping         CNVZerner       .... off
 Static damping         CNVDamp         .... on
   Fraction old density DampFac         ....    0.7000
   Max. Damping (<1)    DampMax         ....    0.9800
   Min. Damping (>=0)   DampMin         ....    0.0000
   Turn off err/grad.   DampErr         ....    0.1000
 Fernandez-Rico         CNVRico         .... off

SCF Procedure:
 Maximum # iterations   MaxIter         ....   125
 SCF integral mode      SCFMode         .... Direct
   Integral package                     .... LIBINT
 Reset frequency        DirectResetFreq ....    20
 Integral Threshold     Thresh          ....  2.500e-11 Eh
 Primitive CutOff       TCut            ....  2.500e-12 Eh

Convergence Tolerance:
 Convergence Check Mode ConvCheckMode   .... Total+1el-Energy
 Convergence forced     ConvForced      .... 1
 Energy Change          TolE            ....  1.000e-08 Eh
 1-El. energy change                    ....  1.000e-05 Eh
 DIIS Error             TolErr          ....  5.000e-07


Diagonalization of the overlap matrix:
Smallest eigenvalue                        ... 1.296e-03
Time for diagonalization                   ...    0.003 sec
Threshold for overlap eigenvalues          ... 1.000e-08
Number of eigenvalues below threshold      ... 0
Time for construction of square roots      ...    0.011 sec
Total time needed                          ...    0.014 sec

-------------------
DFT GRID GENERATION
-------------------

General Integration Accuracy     IntAcc      ...  4.340
Radial Grid Type                 RadialGrid  ... Gauss-Chebyshev
Angular Grid (max. acc.)         AngularGrid ... Lebedev-110
Angular grid pruning method      GridPruning ... 3 (G Style)
Weight generation scheme         WeightScheme... Becke
Basis function cutoff            BFCut       ...    1.0000e-11
Integration weight cutoff        WCut        ...    1.0000e-14
Grids for H and He will be reduced by one unit

# of grid points (after initial pruning)     ...   2912 (   0.0 sec)
# of grid points (after weights+screening)   ...   2912 (   0.0 sec)
Grid point division into batches done        ...    0.0 sec
Reduced shell lists constructed in    0.0 sec

Total number of grid points                  ...     2912
Total number of batches                      ...       46
Average number of points per batch           ...       63
Average number of grid points per atom       ...     2912
Average number of shells per batch           ...     7.33 (26.19%)
Average number of basis functions per batch  ...    24.67 (24.67%)
Average number of large shells per batch     ...     6.00 (81.82%)
Average number of large basis fcns per batch ...    19.33 (78.38%)
Maximum spatial batch extension              ...  17.39, 26.34, 26.34 au
Average spatial batch extension              ...   0.76,  1.15,  1.15 au

Time for grid setup =    0.057 sec

------------------------------
INITIAL GUESS: MODEL POTENTIAL
------------------------------
Loading Hartree-Fock densities                     ... done
Calculating cut-offs                               ... done
Setting up the integral package                    ... done
Initializing the effective Hamiltonian             ... done
Starting the Coulomb interaction                   ... done (   0.0 sec)
Reading the grid                                   ... done
Mapping shells                                     ... done
Starting the XC term evaluation                    ... done (   0.0 sec)
Transforming the Hamiltonian                       ... done (   0.0 sec)
Diagonalizing the Hamiltonian                      ... done (   0.0 sec)
Back transforming the eigenvectors                 ... done (   0.0 sec)
Now organizing SCF variables                       ... done
                      ------------------
                      INITIAL GUESS DONE (   0.2 sec)
                      ------------------
--------------
SCF ITERATIONS
--------------
ITER       Energy         Delta-E        Max-DP      RMS-DP      [F,P]     Damp
               ***  Starting incremental Fock matrix formation  ***
  0  -1638.9141321157   0.000000000000 0.05914287  0.00072253  0.6037419 0.7000
  1  -1638.9297149273  -0.015582811628 0.05586104  0.00059587  0.4243147 0.7000
  2  -1638.9384536352  -0.008738707927 0.04442342  0.00045218  0.2977936 0.7000
  3  -1638.9448385245  -0.006384889232 0.03475909  0.00035061  0.2088213 0.7000
                               ***Turning on DIIS***
  4  -1638.9496177734  -0.004779248962 0.02736505  0.00027759  0.1463839 0.7000
  5  -1638.9708999204  -0.021282146986 0.02438051  0.00025827  0.1026111 0.7000
  6  -1638.9825925758  -0.011692655368 0.06719343  0.00073420  0.0718738 0.0000
  7  -1638.9642443754   0.018348200335 0.00965046  0.00013530  0.0049287 0.0000
  8  -1638.9856351879  -0.021390812474 0.00996088  0.00014108  0.0032204 0.0000
  9  -1638.9746954716   0.010939716342 0.00970580  0.00009878  0.0016126 0.0000
 10  -1638.9686003909   0.006095080662 0.01532158  0.00013301  0.0008369 0.0000
 11  -1638.9628468326   0.005753558328 0.00387515  0.00003375  0.0002032 0.0000
 12  -1638.9651134956  -0.002266662985 0.00200474  0.00001679  0.0000740 0.0000
 13  -1638.9634872904   0.001626205173 0.00050576  0.00000425  0.0000113 0.0000
 14  -1638.9633494666   0.000137823818 0.00014083  0.00000132  0.0000045 0.0000
 15  -1638.9632443628   0.000105103790 0.00002079  0.00000030  0.0000018 0.0000
                            ***DIIS convergence achieved***

               *****************************************************
               *                     SUCCESS                       *
               *           SCF CONVERGED AFTER  16 CYCLES          *
               *****************************************************


----------------
TOTAL SCF ENERGY
----------------

Total Energy       :        -1638.96322392 Eh          -44598.45666 eV

Components:
Nuclear Repulsion  :            0.00000000 Eh               0.00000 eV
Electronic Energy  :        -1638.96322392 Eh          -44598.45666 eV
One Electron Energy:        -2289.86546068 Eh          -62310.40699 eV
Two Electron Energy:          650.90223676 Eh           17711.95032 eV

Virial components:
Potential Energy   :        -3277.92110209 Eh          -89196.76786 eV
Kinetic Energy     :         1638.95787817 Eh           44598.31120 eV
Virial Ratio       :            2.00000326


---------------
SCF CONVERGENCE
---------------

  Last Energy change         ...    2.0440e-05  Tolerance :   1.0000e-08
  Last MAX-Density change    ...    2.4876e-05  Tolerance :   1.0000e-07
  Last RMS-Density change    ...    2.1137e-07  Tolerance :   5.0000e-09
  Last DIIS Error            ...    4.8388e-07  Tolerance :   5.0000e-07

             **** THE GBW FILE WAS UPDATED (29_Cu.gbw) ****
             **** DENSITY FILE WAS UPDATED (29_Cu.scfp) ****
             **** ENERGY FILE WAS UPDATED (29_Cu.en.tmp) ****
----------------------
UHF SPIN CONTAMINATION
----------------------

Expectation value of <S**2>     :     0.751920
Ideal value S*(S+1) for S=0.5   :     0.750000
Deviation                       :     0.001920

             **** THE GBW FILE WAS UPDATED (29_Cu.gbw) ****
             **** DENSITY FILE WAS UPDATED (29_Cu.scfp) ****
----------------
ORBITAL ENERGIES
----------------
                 SPIN UP ORBITALS
  NO   OCC          E(Eh)            E(eV) 
   0   1.0000    -328.794679     -8946.9581 
   1   1.0000     -40.819190     -1110.7466 
   2   1.0000     -35.617253      -969.1947 
   3   1.0000     -35.617253      -969.1947 
   4   1.0000     -35.617253      -969.1947 
   5   1.0000      -5.012292      -136.3914 
   6   1.0000      -3.322091       -90.3987 
   7   1.0000      -3.322091       -90.3987 
   8   1.0000      -3.322091       -90.3987 
   9   1.0000      -0.488988       -13.3060 
  10   1.0000      -0.488988       -13.3060 
  11   1.0000      -0.488988       -13.3060 
  12   1.0000      -0.488988       -13.3060 
  13   1.0000      -0.488988       -13.3060 
  14   1.0000      -0.239622        -6.5204 
  15   0.0000       0.038601         1.0504 
  16   0.0000       0.038601         1.0504 
  17   0.0000       0.038601         1.0504 
  18   0.0000       0.097031         2.6403 
  19   0.0000       0.172861         4.7038 
  20   0.0000       0.172861         4.7038 
  21   0.0000       0.172861         4.7038 
  22   0.0000       0.199484         5.4282 
  23   0.0000       0.199484         5.4282 
  24   0.0000       0.199484         5.4282 
  25   0.0000       0.199484         5.4282 
  26   0.0000       0.199484         5.4282 
  27   0.0000       0.503890        13.7116 
  28   0.0000       0.598514        16.2864 
  29   0.0000       0.598514        16.2864 
  30   0.0000       0.598514        16.2864 
  31   0.0000       0.626678        17.0528 
  32   0.0000       0.626678        17.0528 
  33   0.0000       0.626678        17.0528 
  34   0.0000       0.626678        17.0528 
  35   0.0000       0.626678        17.0528 
  36   0.0000       0.925171        25.1752 
  37   0.0000       0.925171        25.1752 
  38   0.0000       0.925171        25.1752 
  39   0.0000       0.925171        25.1752 
  40   0.0000       0.925171        25.1752 
  41   0.0000       0.925171        25.1752 
  42   0.0000       0.925171        25.1752 
  43   0.0000       1.808157        49.2025 
  44   0.0000       1.808157        49.2025 
  45   0.0000       1.808157        49.2025 
  46   0.0000       1.808157        49.2025 
  47   0.0000       1.808157        49.2025 
  48   0.0000       2.129529        57.9474 
  49   0.0000       2.129529        57.9474 
  50   0.0000       2.129529        57.9474 
  51   0.0000       2.779137        75.6242 
  52   0.0000       2.844130        77.3927 
  53   0.0000       2.844130        77.3927 
  54   0.0000       2.844130        77.3927 
  55   0.0000       2.844130        77.3927 
  56   0.0000       2.844130        77.3927 
  57   0.0000       2.844130        77.3927 
  58   0.0000       2.844130        77.3927 
  59   0.0000       5.126706       139.5048 
  60   0.0000       5.126706       139.5048 
  61   0.0000       5.126706       139.5048 
  62   0.0000       5.126706       139.5048 
  63   0.0000       5.126706       139.5048 
  64   0.0000       7.705139       209.6675 
  65   0.0000       7.705139       209.6675 
  66   0.0000       7.705139       209.6675 
  67   0.0000       7.705139       209.6675 
  68   0.0000       7.705139       209.6675 
  69   0.0000       7.705139       209.6675 
  70   0.0000       7.705139       209.6675 
  71   0.0000       7.960398       216.6134 
  72   0.0000       7.960398       216.6134 
  73   0.0000       7.960398       216.6134 
  74   0.0000       7.960398       216.6134 
  75   0.0000       7.960398       216.6134 
  76   0.0000       7.960398       216.6134 
  77   0.0000       7.960398       216.6134 
  78   0.0000       7.960398       216.6134 
  79   0.0000       7.960398       216.6134 
  80   0.0000      11.783094       320.6343 
  81   0.0000      21.985224       598.2484 
  82   0.0000      21.985224       598.2484 
  83   0.0000      21.985224       598.2484 
  84   0.0000      21.985224       598.2484 
  85   0.0000      21.985224       598.2484 
  86   0.0000      21.985224       598.2484 
  87   0.0000      21.985224       598.2484 
  88   0.0000      26.168354       712.0771 
  89   0.0000      26.168354       712.0771 
  90   0.0000      26.168354       712.0771 
  91   0.0000      26.168354       712.0771 
  92   0.0000      26.168354       712.0771 
  93   0.0000      26.168354       712.0771 
  94   0.0000      26.168354       712.0771 
  95   0.0000      26.168354       712.0771 
  96   0.0000      26.168354       712.0771 
  97   0.0000      41.415442      1126.9715 
  98   0.0000     139.556689      3797.5306 
  99   0.0000     906.690948     24672.3150 

                 SPIN DOWN ORBITALS
  NO   OCC          E(Eh)            E(eV) 
   0   1.0000    -328.792867     -8946.9088 
   1   1.0000     -40.819908     -1110.7662 
   2   1.0000     -35.619898      -969.2667 
   3   1.0000     -35.619898      -969.2667 
   4   1.0000     -35.619898      -969.2667 
   5   1.0000      -5.011574      -136.3719 
   6   1.0000      -3.327357       -90.5420 
   7   1.0000      -3.327357       -90.5420 
   8   1.0000      -3.327357       -90.5420 
   9   1.0000      -0.493226       -13.4213 
  10   1.0000      -0.493226       -13.4213 
  11   1.0000      -0.493226       -13.4213 
  12   1.0000      -0.493226       -13.4213 
  13   1.0000      -0.493226       -13.4213 
  14   0.0000       0.012658         0.3444 
  15   0.0000       0.060231         1.6390 
  16   0.0000       0.060231         1.6390 
  17   0.0000       0.060231         1.6390 
  18   0.0000       0.134174         3.6511 
  19   0.0000       0.209719         5.7067 
  20   0.0000       0.209719         5.7067 
  21   0.0000       0.209719         5.7067 
  22   0.0000       0.209764         5.7080 
  23   0.0000       0.209764         5.7080 
  24   0.0000       0.209764         5.7080 
  25   0.0000       0.209764         5.7080 
  26   0.0000       0.209764         5.7080 
  27   0.0000       0.536742        14.6055 
  28   0.0000       0.624612        16.9965 
  29   0.0000       0.624612        16.9965 
  30   0.0000       0.624612        16.9965 
  31   0.0000       0.644633        17.5414 
  32   0.0000       0.644633        17.5414 
  33   0.0000       0.644633        17.5414 
  34   0.0000       0.644633        17.5414 
  35   0.0000       0.644633        17.5414 
  36   0.0000       0.943992        25.6873 
  37   0.0000       0.943992        25.6873 
  38   0.0000       0.943992        25.6873 
  39   0.0000       0.943992        25.6873 
  40   0.0000       0.943992        25.6873 
  41   0.0000       0.943992        25.6873 
  42   0.0000       0.943992        25.6873 
  43   0.0000       1.819609        49.5141 
  44   0.0000       1.819609        49.5141 
  45   0.0000       1.819609        49.5141 
  46   0.0000       1.819609        49.5141 
  47   0.0000       1.819609        49.5141 
  48   0.0000       2.140481        58.2455 
  49   0.0000       2.140481        58.2455 
  50   0.0000       2.140481        58.2455 
  51   0.0000       2.793998        76.0285 
  52   0.0000       2.853568        77.6495 
  53   0.0000       2.853568        77.6495 
  54   0.0000       2.853568        77.6495 
  55   0.0000       2.853568        77.6495 
  56   0.0000       2.853568        77.6495 
  57   0.0000       2.853568        77.6495 
  58   0.0000       2.853568        77.6495 
  59   0.0000       5.127307       139.5211 
  60   0.0000       5.127307       139.5211 
  61   0.0000       5.127307       139.5211 
  62   0.0000       5.127307       139.5211 
  63   0.0000       5.127307       139.5211 
  64   0.0000       7.702725       209.6018 
  65   0.0000       7.702725       209.6018 
  66   0.0000       7.702725       209.6018 
  67   0.0000       7.702725       209.6018 
  68   0.0000       7.702725       209.6018 
  69   0.0000       7.702725       209.6018 
  70   0.0000       7.702725       209.6018 
  71   0.0000       7.962654       216.6748 
  72   0.0000       7.962654       216.6748 
  73   0.0000       7.962654       216.6748 
  74   0.0000       7.962654       216.6748 
  75   0.0000       7.962654       216.6748 
  76   0.0000       7.962654       216.6748 
  77   0.0000       7.962654       216.6748 
  78   0.0000       7.962654       216.6748 
  79   0.0000       7.962654       216.6748 
  80   0.0000      11.786350       320.7229 
  81   0.0000      21.981605       598.1499 
  82   0.0000      21.981605       598.1499 
  83   0.0000      21.981605       598.1499 
  84   0.0000      21.981605       598.1499 
  85   0.0000      21.981605       598.1499 
  86   0.0000      21.981605       598.1499 
  87   0.0000      21.981605       598.1499 
  88   0.0000      26.165675       712.0042 
  89   0.0000      26.165675       712.0042 
  90   0.0000      26.165675       712.0042 
  91   0.0000      26.165675       712.0042 
  92   0.0000      26.165675       712.0042 
  93   0.0000      26.165675       712.0042 
  94   0.0000      26.165675       712.0042 
  95   0.0000      26.165675       712.0042 
  96   0.0000      26.165675       712.0042 
  97   0.0000      41.416269      1126.9940 
  98   0.0000     139.557648      3797.5567 
  99   0.0000     906.692549     24672.3586 

                    ********************************
                    * MULLIKEN POPULATION ANALYSIS *
                    ********************************

--------------------------------------------
MULLIKEN ATOMIC CHARGES AND SPIN POPULATIONS
--------------------------------------------
   0 Cu:   -0.000000    1.000000
Sum of atomic charges         :   -0.0000000
Sum of atomic spin populations:    1.0000000

-----------------------------------------------------
MULLIKEN REDUCED ORBITAL CHARGES AND SPIN POPULATIONS
-----------------------------------------------------
CHARGE
  0 Cus       :     7.000000  s :     7.000000
      pz      :     4.000000  p :    12.000000
      px      :     4.000000
      py      :     4.000000
      dz2     :     2.000000  d :    10.000000
      dxz     :     2.000000
      dyz     :     2.000000
      dx2y2   :     2.000000
      dxy     :     2.000000
      f0      :     0.000000  f :     0.000000
      f+1     :     0.000000
      f-1     :     0.000000
      f+2     :     0.000000
      f-2     :     0.000000
      f+3     :     0.000000
      f-3     :     0.000000
      g0      :     0.000000  g :     0.000000
      g+1     :     0.000000
      g-1     :     0.000000
      g+2     :     0.000000
      g-2     :     0.000000
      g+3     :     0.000000
      g-3     :     0.000000
      g+4     :     0.000000
      g-4     :     0.000000

SPIN
  0 Cus       :     1.000000  s :     1.000000
      pz      :     0.000000  p :     0.000000
      px      :    -0.000000
      py      :    -0.000000
      dz2     :     0.000000  d :    -0.000000
      dxz     :    -0.000000
      dyz     :     0.000000
      dx2y2   :    -0.000000
      dxy     :     0.000000
      f0      :     0.000000  f :     0.000000
      f+1     :     0.000000
      f-1     :     0.000000
      f+2     :    -0.000000
      f-2     :    -0.000000
      f+3     :     0.000000
      f-3     :     0.000000
      g0      :     0.000000  g :     0.000000
      g+1     :    -0.000000
      g-1     :    -0.000000
      g+2     :    -0.000000
      g-2     :    -0.000000
      g+3     :    -0.000000
      g-3     :    -0.000000
      g+4     :     0.000000
      g-4     :    -0.000000


                     *******************************
                     * LOEWDIN POPULATION ANALYSIS *
                     *******************************

-------------------------------------------
LOEWDIN ATOMIC CHARGES AND SPIN POPULATIONS
-------------------------------------------
   0 Cu:   -0.000000    1.000000

----------------------------------------------------
LOEWDIN REDUCED ORBITAL CHARGES AND SPIN POPULATIONS
----------------------------------------------------
CHARGE
  0 Cus       :     7.000000  s :     7.000000
      pz      :     4.000000  p :    12.000000
      px      :     4.000000
      py      :     4.000000
      dz2     :     2.000000  d :    10.000000
      dxz     :     2.000000
      dyz     :     2.000000
      dx2y2   :     2.000000
      dxy     :     2.000000
      f0      :     0.000000  f :     0.000000
      f+1     :     0.000000
      f-1     :     0.000000
      f+2     :     0.000000
      f-2     :     0.000000
      f+3     :     0.000000
      f-3     :     0.000000
      g0      :     0.000000  g :     0.000000
      g+1     :     0.000000
      g-1     :     0.000000
      g+2     :     0.000000
      g-2     :     0.000000
      g+3     :     0.000000
      g-3     :     0.000000
      g+4     :     0.000000
      g-4     :     0.000000

SPIN
  0 Cus       :     1.000000  s :     1.000000
      pz      :     0.000000  p :     0.000000
      px      :    -0.000000
      py      :    -0.000000
      dz2     :     0.000000  d :    -0.000000
      dxz     :    -0.000000
      dyz     :     0.000000
      dx2y2   :    -0.000000
      dxy     :     0.000000
      f0      :     0.000000  f :     0.000000
      f+1     :     0.000000
      f-1     :     0.000000
      f+2     :    -0.000000
      f-2     :    -0.000000
      f+3     :     0.000000
      f-3     :     0.000000
      g0      :     0.000000  g :     0.000000
      g+1     :    -0.000000
      g-1     :    -0.000000
      g+2     :    -0.000000
      g-2     :    -0.000000
      g+3     :    -0.000000
      g-3     :    -0.000000
      g+4     :     0.000000
      g-4     :    -0.000000


                      *****************************
                      * MAYER POPULATION ANALYSIS *
                      *****************************

  NA   - Mulliken gross atomic population
  ZA   - Total nuclear charge
  QA   - Mulliken gross atomic charge
  VA   - Mayer's total valence
  BVA  - Mayer's bonded valence
  FA   - Mayer's free valence

  ATOM       NA         ZA         QA         VA         BVA        FA
  0 Cu    29.0000    29.0000    -0.0000     1.0038     0.0000     1.0038

  Mayer bond orders larger than 0.100000


-------
TIMINGS
-------

Total SCF time: 0 days 0 hours 0 min 4 sec 

Total time                  ....       4.895 sec
Sum of individual times     ....       4.437 sec  ( 90.6%)

Fock matrix formation       ....       3.718 sec  ( 75.9%)
Diagonalization             ....       0.133 sec  (  2.7%)
Density matrix formation    ....       0.018 sec  (  0.4%)
Population analysis         ....       0.072 sec  (  1.5%)
Initial guess               ....       0.117 sec  (  2.4%)
Orbital Transformation      ....       0.000 sec  (  0.0%)
Orbital Orthonormalization  ....       0.000 sec  (  0.0%)
DIIS solution               ....       0.322 sec  (  6.6%)


           ************************************************************
           *        Program running with 24 parallel MPI-processes    *
           *              working on a common directory               *
           ************************************************************


------------------------------------------------------------------------------- 
                              ORCA-MATRIX DRIVEN CI                            
------------------------------------------------------------------------------- 

--------------------------------
AUTOMATIC CHOICE OF INCORE LEVEL
--------------------------------

Memory available                           ...   2500.00 MB
Memory needed for S+T                      ...      9.10 MB
Memory needed for J+K                      ...     18.26 MB
Memory needed for DIIS                     ...    127.33 MB
Memory needed for 3-ext                    ...     46.85 MB
Memory needed for 4-ext                    ...    201.47 MB
Memory needed for triples                  ...     23.43 MB
 -> Final InCoreLevel    ... 5
 -> check shows that triples correction can be computed


Wavefunction type
-----------------
Correlation treatment                      ...      CCSD     
Single excitations                         ... ON
Orbital optimization                       ... OFF
Calculation of Z vector                    ... OFF
Calculation of Brueckner orbitals          ... OFF
Perturbative triple excitations            ... ON
Calculation of F12 correction              ... OFF
Frozen core treatment                      ... chemical core (10 el)
Reference Wavefunction                     ... UHF
  Alpha-MOs occ    :     5 ...   14 ( 10 MO's/ 10 electrons)
  Beta-MOs occ     :     5 ...   13 (  9 MO's/  9 electrons)
  Alpha-MOs virt   :    15 ...   99 ( 85 MO's              )
  Beta-MOs virt    :    14 ...   99 ( 86 MO's              )
Number of AO's                             ...    100
Number of electrons                        ...     29
Number of correlated electrons             ...     19

Algorithmic settings
--------------------
Integral transformation                    ... AO direct full transformation
K(C) Formation                             ... FULL-MO TRAFO
Maximum number of iterations               ...        50
Convergence tolerance (max. residuum)      ... 1.000e-05
Level shift for amplitude update           ... 2.000e-01
Maximum number of DIIS vectors             ...         7
DIIS turned on at iteration                ...         0
Damping before turning on DIIS             ...     0.500
Damping after turning on DIIS              ...     0.000
Pair specific amplitude update             ... OFF
Natural orbital iterations                 ... OFF
Perturbative natural orbital generation    ... OFF
Printlevel                                 ... 2

Memory handling:
----------------
Maximum memory for working arrays          ...   2500 MB
Data storage in matrix containers          ... UNCOMPRESSED
Data type for integral storage             ... DOUBLE
In-Core Storage of quantities:
   Amplitudes+Sigma Vector      ... YES
   J+K operators                ... YES
   DIIS vectors                 ... YES
   3-external integrals         ... YES
   4-external integrals         ... YES


Initializing the integral package          ... done
Warning: reference  - re-canonicalizations have been set to INT 1 VIRT 1

--------------------------
UNRESTRICTED FOCK OPERATOR
--------------------------

<ss|ss>:         2211 b            0 skpd (  0.0%)    0.002 s ( 0.001 ms/b)
<ss|sp>:         4356 b            0 skpd (  0.0%)    0.003 s ( 0.001 ms/b)
<ss|sd>:         3630 b            0 skpd (  0.0%)    0.002 s ( 0.001 ms/b)
<ss|sf>:         2904 b            0 skpd (  0.0%)    0.001 s ( 0.000 ms/b)
<ss|sg>:         1452 b            0 skpd (  0.0%)    0.001 s ( 0.000 ms/b)
<ss|pp>:         1386 b            0 skpd (  0.0%)    0.004 s ( 0.003 ms/b)
<ss|pd>:         1980 b            0 skpd (  0.0%)    0.003 s ( 0.002 ms/b)
<ss|pf>:         1584 b            0 skpd (  0.0%)    0.001 s ( 0.000 ms/b)
<ss|pg>:          792 b            0 skpd (  0.0%)    0.001 s ( 0.001 ms/b)
<ss|dd>:          990 b            0 skpd (  0.0%)    0.002 s ( 0.002 ms/b)
<ss|df>:         1320 b            0 skpd (  0.0%)    0.001 s ( 0.001 ms/b)
<ss|dg>:          660 b            0 skpd (  0.0%)    0.001 s ( 0.002 ms/b)
<ss|ff>:          660 b            0 skpd (  0.0%)    0.000 s ( 0.000 ms/b)
<ss|fg>:          528 b            0 skpd (  0.0%)    0.000 s ( 0.001 ms/b)
<ss|gg>:          198 b            0 skpd (  0.0%)    0.001 s ( 0.003 ms/b)
<sp|sp>:         2211 b            0 skpd (  0.0%)    0.003 s ( 0.002 ms/b)
<sp|sd>:         3630 b            0 skpd (  0.0%)    0.004 s ( 0.001 ms/b)
<sp|sf>:         2904 b            4 skpd (  0.1%)    0.001 s ( 0.000 ms/b)
<sp|sg>:         1452 b            0 skpd (  0.0%)    0.001 s ( 0.001 ms/b)
<sp|pp>:         1386 b            0 skpd (  0.0%)    0.005 s ( 0.004 ms/b)
<sp|pd>:         1980 b           26 skpd (  1.3%)    0.006 s ( 0.003 ms/b)
<sp|pf>:         1584 b           34 skpd (  2.1%)    0.002 s ( 0.001 ms/b)
<sp|pg>:          792 b           26 skpd (  3.3%)    0.002 s ( 0.003 ms/b)
<sp|dd>:          990 b            0 skpd (  0.0%)    0.006 s ( 0.006 ms/b)
<sp|df>: done
<sp|dg>: done
<sp|ff>: done
<sp|fg>: done
<sp|gg>: done
<sd|sd>:         1540 b           10 skpd (  0.6%)    0.002 s ( 0.001 ms/b)
<sd|sf>:         2420 b           23 skpd (  1.0%)    0.001 s ( 0.001 ms/b)
<sd|sg>:         1210 b            4 skpd (  0.3%)    0.002 s ( 0.001 ms/b)
<sd|pp>:         1155 b           19 skpd (  1.6%)    0.005 s ( 0.005 ms/b)
<sd|pd>:         1650 b           21 skpd (  1.3%)    0.007 s ( 0.004 ms/b)
<sd|pf>: done
<sd|pg>: done
<sd|dd>:          825 b            0 skpd (  0.0%)    0.008 s ( 0.009 ms/b)
<sd|df>:         1100 b           13 skpd (  1.2%)    0.003 s ( 0.002 ms/b)
<sd|dg>:          550 b           10 skpd (  1.8%)    0.004 s ( 0.008 ms/b)
<sd|ff>: done
<sd|fg>: done
<sd|gg>: done
<sf|sf>:          990 b           13 skpd (  1.3%)    0.001 s ( 0.001 ms/b)
<sf|sg>:          968 b            7 skpd (  0.7%)    0.002 s ( 0.002 ms/b)
<sf|pp>:          924 b           25 skpd (  2.7%)    0.005 s ( 0.005 ms/b)
<sf|pd>: done
<sf|pf>: done
<sf|pg>: done
<sf|dd>:          660 b            1 skpd (  0.2%)    0.007 s ( 0.011 ms/b)
<sf|df>: done
<sf|dg>: done
<sf|ff>: done
<sf|fg>: done
<sf|gg>: done
<sg|sg>:          253 b            0 skpd (  0.0%)    0.001 s ( 0.003 ms/b)
<sg|pp>:          462 b            7 skpd (  1.5%)    0.004 s ( 0.010 ms/b)
<sg|pd>: done
<sg|pf>: done
<sg|pg>: done
<sg|dd>:          330 b            0 skpd (  0.0%)    0.007 s ( 0.021 ms/b)
<sg|df>: done
<sg|dg>: done
<sg|ff>: done
<sg|fg>: done
<sg|gg>: done
<pp|pp>:          231 b            0 skpd (  0.0%)    0.005 s ( 0.023 ms/b)
<pp|pd>:          630 b            0 skpd (  0.0%)    0.007 s ( 0.011 ms/b)
<pp|pf>:          504 b            0 skpd (  0.0%)    0.002 s ( 0.003 ms/b)
<pp|pg>:          252 b            0 skpd (  0.0%)    0.003 s ( 0.012 ms/b)
<pp|dd>:          315 b            0 skpd (  0.0%)    0.007 s ( 0.023 ms/b)
<pp|df>:          420 b            0 skpd (  0.0%)    0.002 s ( 0.006 ms/b)
<pp|dg>:          210 b            0 skpd (  0.0%)    0.004 s ( 0.018 ms/b)
<pp|ff>:          210 b            0 skpd (  0.0%)    0.001 s ( 0.005 ms/b)
<pp|fg>:          168 b            0 skpd (  0.0%)    0.001 s ( 0.008 ms/b)
<pp|gg>:           63 b            0 skpd (  0.0%)    0.002 s ( 0.033 ms/b)
<pd|pd>:          465 b            0 skpd (  0.0%)    0.009 s ( 0.020 ms/b)
<pd|pf>:          720 b            0 skpd (  0.0%)    0.003 s ( 0.005 ms/b)
<pd|pg>:          360 b            0 skpd (  0.0%)    0.006 s ( 0.017 ms/b)
<pd|dd>:          450 b            0 skpd (  0.0%)    0.014 s ( 0.031 ms/b)
<pd|df>:          600 b            1 skpd (  0.2%)    0.005 s ( 0.009 ms/b)
<pd|dg>:          300 b            1 skpd (  0.3%)    0.008 s ( 0.026 ms/b)
<pd|ff>: done
<pd|fg>: done
<pd|gg>: done
<pf|pf>:          300 b            1 skpd (  0.3%)    0.002 s ( 0.008 ms/b)
<pf|pg>:          288 b            1 skpd (  0.3%)    0.005 s ( 0.018 ms/b)
<pf|dd>:          360 b            0 skpd (  0.0%)    0.011 s ( 0.031 ms/b)
<pf|df>: done
<pf|dg>: done
<pf|ff>: done
<pf|fg>: done
<pf|gg>: done
<pg|pg>:           78 b            1 skpd (  1.3%)    0.003 s ( 0.044 ms/b)
<pg|dd>:          180 b            0 skpd (  0.0%)    0.011 s ( 0.063 ms/b)
<pg|df>: done
<pg|dg>: done
<pg|ff>: done
<pg|fg>: done
<pg|gg>: done
<dd|dd>:          120 b            0 skpd (  0.0%)    0.011 s ( 0.090 ms/b)
<dd|df>:          300 b            0 skpd (  0.0%)    0.004 s ( 0.015 ms/b)
<dd|dg>:          150 b            0 skpd (  0.0%)    0.006 s ( 0.043 ms/b)
<dd|ff>:          150 b            0 skpd (  0.0%)    0.002 s ( 0.013 ms/b)
<dd|fg>:          120 b            0 skpd (  0.0%)    0.003 s ( 0.024 ms/b)
<dd|gg>:           45 b            0 skpd (  0.0%)    0.004 s ( 0.092 ms/b)
<df|df>:          210 b            0 skpd (  0.0%)    0.005 s ( 0.024 ms/b)
<df|dg>:          200 b            0 skpd (  0.0%)    0.008 s ( 0.041 ms/b)
<df|ff>: done
<df|fg>: done
<df|gg>: done
<dg|dg>:           55 b            0 skpd (  0.0%)    0.007 s ( 0.125 ms/b)
<dg|ff>: done
<dg|fg>: done
<dg|gg>: done
<ff|ff>: done
<ff|fg>: done
<ff|gg>: done
<fg|fg>: done
<fg|gg>: done
<gg|gg>: done
Recanonicalizing the internal orbitals
Recanonicalizing the virtual orbitals
Time needed for Fock operator              ...            0.325 sec
Reference energy                           ...  -1638.963228442
Warning: for UHF the TrafoType has to be JK
Warning: for UHF the K(C)-option cannot be MO but must be AOX

-------------------------------
PARTIAL EXCHANGE TRANSFORMATION
-------------------------------

Transformation type                        ... two-operators
Generation of integrals (i,mue|j,nue)      ... ON
Generation of integrals (mue,kappa|nue,tau)... ON
Generation of integrals (i,mue|a,nue)      ... ON
Dimension of the basis                     ...  100
Number of internal alpha-MOs               ...   10 (   5-  14)
Number of internal beta-MOs                ...    9 (   5-  13)
Number of external alpha-MOs               ...   85 (  15-  99)
Number of external beta-MOs                ...   86 (  14-  99)
Pair cutoff                                ... 0.000e+00 Eh
Number of AO pairs in the trafo            ... 5050
Total Number of distinct AO pairs          ... 5050
Memory devoted for trafo                   ... 2500.0 MB 
Max. Number of MO pairs treated together   ... 32768      
Number Format for Storage                  ... Double (8 Byte)
Integral package used                      ... LIBINT

Starting integral evaluation:
    ... done with AO integral generation
Closing buffer AOK[aa] ( 0.00 GB; CompressionRatio= 0.99)
Closing buffer AOK[bb] ( 0.00 GB; CompressionRatio= 0.98)
Closing buffer AOK[ab] ( 0.00 GB; CompressionRatio= 0.98)
Closing buffer AOK[ba] ( 0.00 GB; CompressionRatio= 0.98)
Collecting buffer AOK 
Closing buffer IAAO1[aa] ( 0.00 GB; CompressionRatio= 1.00)
Closing buffer IAAO1[bb] ( 0.00 GB; CompressionRatio= 1.00)
Closing buffer IAAO1[ab] ( 0.00 GB; CompressionRatio= 1.00)
Closing buffer IAAO1[ba] ( 0.00 GB; CompressionRatio= 1.00)
Closing buffer IAAO2[aa] ( 0.00 GB; CompressionRatio= 1.00)
Closing buffer IAAO2[bb] ( 0.00 GB; CompressionRatio= 1.00)
Closing buffer IAAO2[ab] ( 0.00 GB; CompressionRatio= 1.00)
Closing buffer IAAO2[ba] ( 0.00 GB; CompressionRatio= 1.00)
Collecting buffer IAAO 
Closing buffer PRQS    ( 0.00 GB; CompressionRatio= 1.00)
Collecting buffer PRQS 
Number of alpha/alpha MO pairs in trafo    ...   55
Number of beta /beta  MO pairs in trafo    ...   45
Number of alpha/ beta MO pairs in trafo    ...   90
------------------------
SORTING OF (i,mue|j,nue)
------------------------

SORTING OF ALPHA/ALPHA PAIRS
IBATCH = 1 of  1
Closing buffer KAO[aa] ( 0.00 GB; CompressionRatio= 1.00)
Collecting buffer KAO 
SORTING OF BETA /BETA  PAIRS
IBATCH = 1 of  1
Closing buffer KAO[bb] ( 0.00 GB; CompressionRatio= 1.00)
Collecting buffer KAO 
SORTING OF ALPHA/BETA  PAIRS
IBATCH = 1 of  1
Closing buffer KAO[ab] ( 0.00 GB; CompressionRatio= 0.999850022497)
Collecting buffer KAO[ab] 
------------------------
SORTING OF (i,mue|a,nue)
------------------------

Number of alpha/alpha (i,a) pairs in trafo  ...  850
Number of beta /beta  (i,a) pairs in trafo  ...  774
Number of alpha/ beta (i,a) pairs in trafo  ...  860
Number of beta /alpha (i,a) pairs in trafo  ...  765
Setting up the alpha/alpha list             ... done
Setting up the beta /beta  list             ... done
Setting up the alpha/beta  list             ... done
Setting up the beta /alpha list             ... done
    ... Now sorting (i,mue|a,nue)integrals
    ... Integrals (i,b|a,c) will be made on the fly
SORTING OF ALPHA/ALPHA PAIRS
IBATCH = 1 of  1
Closing buffer IPAQ[aa]  0.00 GB; CompressionRatio= 1.00)
SORTING OF BETA /BETA  PAIRS
IBATCH = 1 of  1
Closing buffer IPAQ[bb]( 0.00 GB; CompressionRatio= 1.00)
SORTING OF ALPHA/BETA  PAIRS (NMatSort_ab=36)
IBATCH = 1 of  1
Closing buffer IPAQ[ab]( 0.00 GB; CompressionRatio= 1.00)
SORTING OF BETA/ALPHA  PAIRS
IBATCH = 1 of  1
Closing buffer IPAQ[ba]( 0.00 GB; CompressionRatio= 1.00)
N(AO-Batches) Done                         ...      3920 
N(AO-Batches) Skipped                      ...         0 
N(IJ)-pairs Skipped                        ...         0 
TOTAL TIME for half transformation         ...     8.767 sec
AO-integral generation                     ...     0.089 sec
Half transformation                        ...     0.915 sec
K-integral sorting                         ...     1.682 sec
<ss|**>: 
------------------------------
PARTIAL COULOMB TRANSFORMATION
------------------------------

Transformation type                        ... two-operators
Dimension of the basis                     ...  100
Number of internal alpha-MOs               ...   10 (5-14)
Number of internal beta-MOs                ...    9 (5-13)
Pair cutoff                                ... 0.000e+00 Eh
Number of AO pairs included in the trafo   ... 5050
Total Number of distinct AO pairs          ... 5050
Memory devoted for trafo                   ... 2500.0 MB 
Max. Number of MO pairs treated together   ... 64887      
Max. Number of MOs treated per batch       ...  648      
Number Format for Storage                  ... Double (8 Byte)
AO-integral source                         ... DIRECT
Integral package used                      ... LIBINT

Starting integral evaluation:
<sp|**>:        26796 b        0 skpd     0.023 s (  0.001 ms/b)
<sd|**>:        26796 b        0 skpd     0.041 s (  0.002 ms/b)
<sf|**>:        22330 b        0 skpd     0.079 s (  0.004 ms/b)
       17864 b        0 skpd     0.065 s (  0.004 ms/b)
<sg|**>:         8932 b        0 skpd     0.042 s (  0.005 ms/b)
<pp|**>:         8526 b        0 skpd     0.070 s (  0.008 ms/b)
<pd|**>:        12180 b        0 skpd     0.129 s (  0.011 ms/b)
<pf|**>:         9744 b        0 skpd     0.091 s (  0.009 ms/b)
<pg|**>:         4872 b        0 skpd     0.083 s (  0.017 ms/b)
<dd|**>:         6090 b        0 skpd     0.132 s (  0.022 ms/b)
<df|**>:         8120 b        0 skpd     0.128 s (  0.016 ms/b)
<dg|**>:         4060 b        0 skpd     0.109 s (  0.027 ms/b)
<ff|**>:         4060 b        0 skpd     0.090 s (  0.022 ms/b)
<fg|**>:         3248 b        0 skpd     0.115 s (  0.036 ms/b)
<gg|**>:         1218 b        0 skpd     0.109 s (  0.090 ms/b)
Closing buffer AOJ[aa] ( 0.00 GB; CompressionRatio= 0.97)
Closing buffer AOJ[bb] ( 0.00 GB; CompressionRatio= 0.00)
Collecting buffer AOJ 
    ... done with AO integral generation
Number of Alpha-MO pairs included          ...   55
Number of Beta-MO pairs included           ...   45
    ... Now sorting integrals
SORTING ALPHA/ALPHA PAIRS
IBATCH = 1 of  1
Closing buffer JAO[aa] ( 0.00 GB; CompressionRatio= 1.00)
SORTING BETA/BETA PAIRS
IBATCH = 1 of  1
Closing buffer JAO[bb] ( 0.00 GB; CompressionRatio= 1.00)
Collecting buffer JAO 
TOTAL TIME for half transformation         ...     1.493 sec
AO-integral generation                     ...     0.921 sec
Half transformation                        ...     0.396 sec
J-integral sorting                         ...     0.131 sec

-------------------------- SECOND HALF TRANSFORMATION -------------------------
Formation of (ij|kl),(ij|ka), (ij|ab)      ... ok (     0.180 sec)
Formation of (ik|jl),(ik|ja), (ia|jb)      ... ok (     0.302 sec)


-----------------------
SPIN UNRESTRICTED GUESS
-----------------------

Entering MDCI_UHF_Guess, Tailored=0
Spin-components of the MP2 energy:
EMP2(aa)=     -0.152988276
EMP2(bb)=     -0.137373335
EMP2(ab)=     -0.560733420

Initial guess performed in     0.035 sec
E(0)                                       ...  -1638.963228442
E(MP2)                                     ...     -0.851095031
Initial E(tot)                             ...  -1639.814323473
<T|T>                                      ...      0.119989180
Number of pairs included                   ... 171

------------------------------------------------
                  UHF COUPLED CLUSTER ITERATIONS
------------------------------------------------

Number of amplitudes to be optimized       ...       954380

Iter       E(tot)           E(Corr)          Delta-E          Residual     Time      <S|S>**1/2
  0  -1639.814323473     -0.851095031     -0.000000000      0.038571479    1.23      0.000000274
                           *** Turning on DIIS ***
  1  -1639.663544850     -0.700316408      0.150778624      0.019424251    1.02      0.089714763
  2  -1639.711835939     -0.748607497     -0.048291089      0.006940849    1.04      0.063721722
  3  -1639.710334354     -0.747105912      0.001501585      0.004474251    1.08      0.079260152
  4  -1639.711439467     -0.748211025     -0.001105113      0.002750859    1.09      0.086226707
  5  -1639.712238367     -0.749009925     -0.000798900      0.001324177    1.08      0.091964473
  6  -1639.712499560     -0.749271118     -0.000261193      0.000472856    1.12      0.094970434
  7  -1639.712496753     -0.749268311      0.000002807      0.000132115    1.14      0.096019394
  8  -1639.712506722     -0.749278280     -0.000009969      0.000048543    1.14      0.096183803
  9  -1639.712512556     -0.749284114     -0.000005834      0.000010645    1.07      0.096252876
 10  -1639.712509827     -0.749281385      0.000002729      0.000002889    1.07      0.096266901
               --- The Coupled-Cluster iterations have converged ---

----------------------
COUPLED CLUSTER ENERGY
----------------------

E(0)                                       ...  -1638.963228442
E(CORR)                                    ...     -0.749281385
E(TOT)                                     ...  -1639.712509827
Singles norm <S|S>**1/2                    ...      0.096266901 ( 0.056350894, 0.039916007)  
T1 diagnostic                              ...      0.022085142                              

------------------
LARGEST AMPLITUDES
------------------
  14a-> 18a  -1a-> -1a       0.064089
  14a-> 27a  -1a-> -1a       0.044453
  10b-> 33b  -1b-> -1b       0.025731
  11b-> 32b  -1b-> -1b       0.023771
   9b-> 31b  -1b-> -1b       0.022954
  10b-> 23b  -1b-> -1b       0.022735
  12b-> 35b  -1b-> -1b       0.022681
  13b-> 34b  -1b-> -1b       0.022681
   9b-> 22b  -1b-> -1b       0.022583
  11b-> 24b  -1b-> -1b       0.022113
  12a-> 34a  -1a-> -1a       0.022091
  13a-> 35a  -1a-> -1a       0.022091
  11a-> 32a  -1a-> -1a       0.021328
   9a-> 31a  -1a-> -1a       0.020730
  10a-> 33a  -1a-> -1a       0.019957
  12a-> 26a  -1a-> -1a       0.018914

----------------------
UHF TRIPLES CORRECTION (Algorithm 1)
----------------------

Multiplier for the singles contribution    ...      1.000000000

SPIN-CASE Alpha-Alpha-Alpha:
10% done
20% done
30% done
40% done
50% done
60% done
70% done
80% done
90% done


SPIN-CASE Beta-Beta-Beta:
10% done
20% done
30% done
40% done
50% done
60% done
70% done
80% done
90% done


SPIN-CASE Alpha-Alpha-Beta:
10% done
20% done
30% done
40% done
50% done
60% done
70% done
80% done
90% done


SPIN-CASE Beta-Beta-Alpha:
10% done
20% done
30% done
40% done
50% done
60% done
70% done
80% done
90% done


Triples Correction (T)                     ...     -0.026162467
    alpha-alpha-alpha ... -0.001610909 (  6.2%)
    alpha-alpha-beta  ... -0.013263266 ( 50.7%)
    alpha-beta -beta  ... -0.010486022 ( 40.1%)
    beta -beta -beta  ... -0.000802270 (  3.1%)
Scaling of triples based on CCSD energies (Peterson et al. Molecular Physics 113, 1551 (2015))
E(T*) = f*E(T) where f = E(F12-CCSD)/E(CCSD) 
f = CCSD (with F12)/ CCSD (without F12)    ...      1.000000000
Scaled triples correction (T)              ...     -0.026162467

Final correlation energy                   ...     -0.775443852
E(CCSD)                                    ...  -1639.712509827
E(CCSD(T))                                 ...  -1639.738672294



        !!!!!!!!!!!!!!!!!!!!!!!!!!!!!!!!!!!!!!!!!!!!!!!!!!!!!!!!!!!!!!!!!!!!!!!!!! 
        !  Warning: Densities are linearized densities                           !
        !!!!!!!!!!!!!!!!!!!!!!!!!!!!!!!!!!!!!!!!!!!!!!!!!!!!!!!!!!!!!!!!!!!!!!!!!! 

NORM  =      1.109604327 sqrt=     1.053377581
W(HF) =      0.901222152
------------------------------------------------------------------------------
                           ORCA POPULATION ANALYSIS
------------------------------------------------------------------------------
Input electron density              ... 29_Cu.mdcip
Input spin density                  ... 29_Cu.mdcir
BaseName (.gbw .S,...)              ... 29_Cu

                    ********************************
                    * MULLIKEN POPULATION ANALYSIS *
                    ********************************

------------------------------------------
MULLIKEN ATOMIC CHARGES AND SPIN DENSITIES
------------------------------------------
   0 Cu:   -0.000000    1.000000
Sum of atomic charges       :   -0.0000000
Sum of atomic spin densities:    1.0000000

---------------------------------------------------
MULLIKEN REDUCED ORBITAL CHARGES AND SPIN DENSITIES
---------------------------------------------------
CHARGE
  0 Cus       :     6.989222  s :     6.989222
      pz      :     4.006223  p :    12.018668
      px      :     4.006223
      py      :     4.006223
      dz2     :     1.989838  d :     9.949190
      dxz     :     1.989838
      dyz     :     1.989838
      dx2y2   :     1.989838
      dxy     :     1.989838
      f0      :     0.005490  f :     0.038432
      f+1     :     0.005490
      f-1     :     0.005490
      f+2     :     0.005490
      f-2     :     0.005490
      f+3     :     0.005490
      f-3     :     0.005490
      g0      :     0.000499  g :     0.004488
      g+1     :     0.000499
      g-1     :     0.000499
      g+2     :     0.000499
      g-2     :     0.000499
      g+3     :     0.000499
      g-3     :     0.000499
      g+4     :     0.000499
      g-4     :     0.000499

SPIN
  0 Cus       :     0.986433  s :     0.986433
      pz      :     0.002095  p :     0.006285
      px      :     0.002095
      py      :     0.002095
      dz2     :     0.001647  d :     0.008234
      dxz     :     0.001647
      dyz     :     0.001647
      dx2y2   :     0.001647
      dxy     :     0.001647
      f0      :    -0.000135  f :    -0.000942
      f+1     :    -0.000135
      f-1     :    -0.000135
      f+2     :    -0.000135
      f-2     :    -0.000135
      f+3     :    -0.000135
      f-3     :    -0.000135
      g0      :    -0.000001  g :    -0.000010
      g+1     :    -0.000001
      g-1     :    -0.000001
      g+2     :    -0.000001
      g-2     :    -0.000001
      g+3     :    -0.000001
      g-3     :    -0.000001
      g+4     :    -0.000001
      g-4     :    -0.000001


                     *******************************
                     * LOEWDIN POPULATION ANALYSIS *
                     *******************************

-----------------------------------------
LOEWDIN ATOMIC CHARGES AND SPIN DENSITIES
-----------------------------------------
   0 Cu:   -0.000000    1.000000

--------------------------------------------------
LOEWDIN REDUCED ORBITAL CHARGES AND SPIN DENSITIES
--------------------------------------------------
CHARGE
  0 Cus       :     6.989222  s :     6.989222
      pz      :     4.006223  p :    12.018668
      px      :     4.006223
      py      :     4.006223
      dz2     :     1.989838  d :     9.949190
      dxz     :     1.989838
      dyz     :     1.989838
      dx2y2   :     1.989838
      dxy     :     1.989838
      f0      :     0.005490  f :     0.038432
      f+1     :     0.005490
      f-1     :     0.005490
      f+2     :     0.005490
      f-2     :     0.005490
      f+3     :     0.005490
      f-3     :     0.005490
      g0      :     0.000499  g :     0.004488
      g+1     :     0.000499
      g-1     :     0.000499
      g+2     :     0.000499
      g-2     :     0.000499
      g+3     :     0.000499
      g-3     :     0.000499
      g+4     :     0.000499
      g-4     :     0.000499

SPIN
  0 Cus       :     0.986433  s :     0.986433
      pz      :     0.002095  p :     0.006285
      px      :     0.002095
      py      :     0.002095
      dz2     :     0.001647  d :     0.008234
      dxz     :     0.001647
      dyz     :     0.001647
      dx2y2   :     0.001647
      dxy     :     0.001647
      f0      :    -0.000135  f :    -0.000942
      f+1     :    -0.000135
      f-1     :    -0.000135
      f+2     :    -0.000135
      f-2     :    -0.000135
      f+3     :    -0.000135
      f-3     :    -0.000135
      g0      :    -0.000001  g :    -0.000010
      g+1     :    -0.000001
      g-1     :    -0.000001
      g+2     :    -0.000001
      g-2     :    -0.000001
      g+3     :    -0.000001
      g-3     :    -0.000001
      g+4     :    -0.000001
      g-4     :    -0.000001


                      *****************************
                      * MAYER POPULATION ANALYSIS *
                      *****************************

  NA   - Mulliken gross atomic population
  ZA   - Total nuclear charge
  QA   - Mulliken gross atomic charge
  VA   - Mayer's total valence
  BVA  - Mayer's bonded valence
  FA   - Mayer's free valence

  ATOM       NA         ZA         QA         VA         BVA        FA
  0 Cu    29.0000    29.0000    -0.0000     1.6985     0.0000     1.6985





------------------------------------------------------------------------------- 
                                     TIMINGS                                   
------------------------------------------------------------------------------- 


Total execution time                   ...       26.075 sec

Fock Matrix Formation                  ...        0.325 sec (  1.2%)
Initial Guess                          ...        0.035 sec (  0.1%)
DIIS Solver                            ...        0.886 sec (  3.4%)
State Vector Update                    ...        0.040 sec (  0.2%)
Sigma-vector construction              ...       11.159 sec ( 42.8%)
  <0|H|D>                              ...        0.003 sec (  0.0% of sigma)
  <D|H|D>(0-ext Fock)                  ...        0.016 sec (  0.1% of sigma)
  <D|H|D>(0-ext)                       ...        0.058 sec (  0.5% of sigma)
  <D|H|D>(2-ext Fock)                  ...        0.006 sec (  0.0% of sigma)
  <D|H|D>(2-ext)                       ...        0.248 sec (  2.2% of sigma)
  <D|H|D>(4-ext)                       ...        5.164 sec ( 46.3% of sigma)
  <S|H|0>                              ...        0.599 sec (  5.4% of sigma)
  <S|H|S>                              ...        0.002 sec (  0.0% of sigma)
  <S|H|D>(1-ext)                       ...        0.004 sec (  0.0% of sigma)
  <D|H|S>(1-ext)                       ...        0.071 sec (  0.6% of sigma)
  Fock-dressing                        ...        2.438 sec ( 21.8% of sigma)
  (ik|jl)-dressing                     ...        0.070 sec (  0.6% of sigma)
  (ij|ab),(ia|jb)-dressing             ...        1.969 sec ( 17.6% of sigma)
  Pair energies                        ...        0.004 sec (  0.0% of sigma)
Total Time for computing (T)           ...        2.002 sec (  7.7% of ALL)
  I/O of integral and amplitudes       ...        0.433 sec ( 21.6% of (T))
  External N**7 contributions          ...        0.563 sec ( 28.1% of (T))
  Internal N**7 contributions          ...        0.279 sec ( 13.9% of (T))
  N**6 triples energy contributions    ...        0.692 sec ( 34.5% of (T))


-------------------------   --------------------
FINAL SINGLE POINT ENERGY     -1639.738672293759
-------------------------   --------------------


                            ***************************************
                            *     ORCA property calculations      *
                            ***************************************

                                    ---------------------
                                    Active property flags
                                    ---------------------
   (+) Dipole Moment


------------------------------------------------------------------------------
                       ORCA ELECTRIC PROPERTIES CALCULATION
------------------------------------------------------------------------------

Dipole Moment Calculation                       ... on
Quadrupole Moment Calculation                   ... off
Polarizability Calculation                      ... off
GBWName                                         ... 29_Cu.gbw
Electron density file                           ... 29_Cu.scfp
The origin for moment calculation is the CENTER OF MASS  = ( 0.000000,  0.000000  0.000000)

-------------
DIPOLE MOMENT
-------------
                                X             Y             Z
Electronic contribution:     -0.00000      -0.00000      -0.00000
Nuclear contribution   :      0.00000       0.00000       0.00000
                        -----------------------------------------
Total Dipole Moment    :     -0.00000      -0.00000      -0.00000
                        -----------------------------------------
Magnitude (a.u.)       :      0.00000
Magnitude (Debye)      :      0.00000



--------------------
Rotational spectrum 
--------------------
 
Rotational constants in cm-1:     0.000000     0.000000     0.000000 
Rotational constants in MHz :     0.000000     0.000000     0.000000 

 Dipole components along the rotational axes: 
x,y,z [a.u.] :    -0.000000    -0.000000    -0.000000 
x,y,z [Debye]:    -0.000000    -0.000000    -0.000000 

 

                           *** MDCI DENSITY ***

------------------------------------------------------------------------------
                       ORCA ELECTRIC PROPERTIES CALCULATION
------------------------------------------------------------------------------

Dipole Moment Calculation                       ... on
Quadrupole Moment Calculation                   ... off
Polarizability Calculation                      ... off
GBWName                                         ... 29_Cu.gbw
Electron density file                           ... 29_Cu.mdcip
The origin for moment calculation is the CENTER OF MASS  = ( 0.000000,  0.000000  0.000000)

-------------
DIPOLE MOMENT
-------------
                                X             Y             Z
Electronic contribution:      0.00000       0.00000      -0.00000
Nuclear contribution   :      0.00000       0.00000       0.00000
                        -----------------------------------------
Total Dipole Moment    :      0.00000       0.00000      -0.00000
                        -----------------------------------------
Magnitude (a.u.)       :      0.00000
Magnitude (Debye)      :      0.00000



--------------------
Rotational spectrum 
--------------------
 
Rotational constants in cm-1:     0.000000     0.000000     0.000000 
Rotational constants in MHz :     0.000000     0.000000     0.000000 

 Dipole components along the rotational axes: 
x,y,z [a.u.] :     0.000000     0.000000    -0.000000 
x,y,z [Debye]:     0.000000     0.000000    -0.000000 

 

Timings for individual modules:

Sum of individual times         ...       32.985 sec (=   0.550 min)
GTO integral calculation        ...        0.794 sec (=   0.013 min)   2.4 %
SCF iterations                  ...        5.281 sec (=   0.088 min)  16.0 %
MDCI module                     ...       26.910 sec (=   0.449 min)  81.6 %
                             ****ORCA TERMINATED NORMALLY****
TOTAL RUN TIME: 0 days 0 hours 0 minutes 33 seconds 771 msec
