
                                 *****************
                                 * O   R   C   A *
                                 *****************

           --- An Ab Initio, DFT and Semiempirical electronic structure package ---

                  #######################################################
                  #                        -***-                        #
                  #          Department of theory and spectroscopy      #
                  #               Directorship: Frank Neese             #
                  #        Max Planck Institute fuer Kohlenforschung    #
                  #                Kaiser Wilhelm Platz 1               #
                  #                 D-45470 Muelheim/Ruhr               #
                  #                      Germany                        #
                  #                                                     #
                  #                  All rights reserved                #
                  #                        -***-                        #
                  #######################################################


                         Program Version 4.2.0 -  RELEASE  -


 With contributions from (in alphabetic order):
   Daniel Aravena         : Magnetic Suceptibility
   Michael Atanasov       : Ab Initio Ligand Field Theory (pilot matlab implementation)
   Alexander A. Auer      : GIAO ZORA, VPT2
   Ute Becker             : Parallelization
   Giovanni Bistoni       : ED, misc. LED, open-shell LED, HFLED
   Martin Brehm           : Molecular dynamics
   Dmytro Bykov           : SCF Hessian
   Vijay G. Chilkuri      : MRCI spin determinant printing, contributions to CSF-ICE
   Dipayan Datta          : RHF DLPNO-CCSD density
   Achintya Kumar Dutta   : EOM-CC, STEOM-CC
   Dmitry Ganyushin       : Spin-Orbit,Spin-Spin,Magnetic field MRCI
   Miquel Garcia          : C-PCM Hessian, Gaussian charge scheme
   Yang Guo               : DLPNO-NEVPT2, CIM, IAO-localization
   Andreas Hansen         : Spin unrestricted coupled pair/coupled cluster methods
   Benjamin Helmich-Paris : CASSCF linear response (MC-RPA)
   Lee Huntington         : MR-EOM, pCC
   Robert Izsak           : Overlap fitted RIJCOSX, COSX-SCS-MP3, EOM
   Christian Kollmar      : KDIIS, OOCD, Brueckner-CCSD(T), CCSD density
   Simone Kossmann        : Meta GGA functionals, TD-DFT gradient, OOMP2, MP2 Hessian
   Martin Krupicka        : AUTO-CI
   Lucas Lang             : DCDCAS
   Dagmar Lenk            : GEPOL surface, SMD
   Dimitrios Liakos       : Extrapolation schemes; Compound Job, initial MDCI parallelization
   Dimitrios Manganas     : Further ROCIS development; embedding schemes
   Dimitrios Pantazis     : SARC Basis sets
   Taras Petrenko         : DFT Hessian,TD-DFT gradient, ASA, ECA, R-Raman, ABS, FL, XAS/XES, NRVS
   Peter Pinski           : DLPNO-MP2, DLPNO-MP2 Gradient
   Christoph Reimann      : Effective Core Potentials
   Marius Retegan         : Local ZFS, SOC
   Christoph Riplinger    : Optimizer, TS searches, QM/MM, DLPNO-CCSD(T), (RO)-DLPNO pert. Triples
   Tobias Risthaus        : Range-separated hybrids, TD-DFT gradient, RPA, STAB
   Michael Roemelt        : Original ROCIS implementation
   Masaaki Saitow         : Open-shell DLPNO-CCSD energy and density
   Barbara Sandhoefer     : DKH picture change effects
   Avijit Sen             : IP-ROCIS
   Kantharuban Sivalingam : CASSCF convergence, NEVPT2, FIC-MRCI
   Bernardo de Souza      : ESD, SOC TD-DFT
   Georgi Stoychev        : AutoAux, RI-MP2 NMR
   Willem Van den Heuvel  : Paramagnetic NMR
   Boris Wezisla          : Elementary symmetry handling
   Frank Wennmohs         : Technical directorship


 We gratefully acknowledge several colleagues who have allowed us to
 interface, adapt or use parts of their codes:
   Stefan Grimme, W. Hujo, H. Kruse,             : VdW corrections, initial TS optimization,
                  C. Bannwarth                     DFT functionals, gCP, sTDA/sTD-DF
   Ed Valeev, F. Pavosevic, A. Kumar             : LibInt (2-el integral package), F12 methods
   Garnet Chan, S. Sharma, J. Yang, R. Olivares  : DMRG
   Ulf Ekstrom                                   : XCFun DFT Library
   Mihaly Kallay                                 : mrcc  (arbitrary order and MRCC methods)
   Andreas Klamt, Michael Diedenhofen            : otool_cosmo (COSMO solvation model)
   Jiri Pittner, Ondrej Demel                    : Mk-CCSD
   Frank Weinhold                                : gennbo (NPA and NBO analysis)
   Christopher J. Cramer and Donald G. Truhlar   : smd solvation model
   Lars Goerigk                                  : TD-DFT with DH, B97 family of functionals
   V. Asgeirsson, H. Jonsson                     : NEB implementation
   FAccTs GmbH                                   : IRC, NEB, NEB-TS, Multilevel, MM, QM/MM, CI optimization
   S Lehtola, MJT Oliveira, MAL Marques          : LibXC Library


 Your calculation uses the libint2 library for the computation of 2-el integrals
 For citations please refer to: http://libint.valeyev.net

 Your ORCA version has been built with support for libXC version: 4.2.3
 For citations please refer to: https://tddft.org/programs/libxc/

 This ORCA versions uses:
   CBLAS   interface :  Fast vector & matrix operations
   LAPACKE interface :  Fast linear algebra routines
   SCALAPACK package :  Parallel linear algebra routines


----- Orbital basis set information -----
Your calculation utilizes the basis: def2-QZVPPD
   F. Weigend and R. Ahlrichs, Phys. Chem. Chem. Phys. 7, 3297 (2005).
   D. Rappoport and F. Furche, J. Chem. Phys. 133 134105 (2010).

================================================================================
                                        WARNINGS
                       Please study these warnings very carefully!
================================================================================


WARNING: your system is open-shell and RHF/RKS was chosen
  ===> : WILL SWITCH to UHF/UKS


WARNING: MDCI localization with Augmented Hessian Foster-Boys
  ===> : Switching off randomization!

WARNING: Post HF methods need fully converged wavefunctions
  ===> : Setting SCFConvForced true
         You can overwrite this default with %scf ConvForced false 


INFO   : the flag for use of LIBINT has been found!

================================================================================
                                       INPUT FILE
================================================================================
NAME = 32_Ge.in
|  1> #
|  2> # 32_Ge CCSD(T)/Def2-QZVPPD
|  3> #
|  4> ! CCSD(T) Def2-QZVPPD tightscf
|  5> 
|  6> *xyz 0 3
|  7>  Ge 0.0 0.0 0.0
|  8> *
|  9> 
| 10> %maxcore 5000 
| 11> 
| 12> %pal
| 13> nprocs 24
| 14> end
| 15> 
| 16> 
| 17>                          ****END OF INPUT****
================================================================================

                       ****************************
                       * Single Point Calculation *
                       ****************************

---------------------------------
CARTESIAN COORDINATES (ANGSTROEM)
---------------------------------
  Ge     0.000000    0.000000    0.000000

----------------------------
CARTESIAN COORDINATES (A.U.)
----------------------------
  NO LB      ZA    FRAG     MASS         X           Y           Z
   0 Ge   32.0000    0    72.590    0.000000    0.000000    0.000000

--------------------------------
INTERNAL COORDINATES (ANGSTROEM)
--------------------------------
 Ge     0   0   0     0.000000000000     0.00000000     0.00000000

---------------------------
INTERNAL COORDINATES (A.U.)
---------------------------
 Ge     0   0   0     0.000000000000     0.00000000     0.00000000

---------------------
BASIS SET INFORMATION
---------------------
There are 1 groups of distinct atoms

 Group   1 Type Ge  : 25s19p11d4f1g contracted to 12s7p5d4f1g pattern {1141111111111/9241111/71111/1111/1}

Atom   0Ge   basis set group =>   1


           ************************************************************
           *        Program running with 24 parallel MPI-processes    *
           *              working on a common directory               *
           ************************************************************
------------------------------------------------------------------------------
                           ORCA GTO INTEGRAL CALCULATION
------------------------------------------------------------------------------

                         BASIS SET STATISTICS AND STARTUP INFO

 # of primitive gaussian shells          ...   60
 # of primitive gaussian functions       ...  174
 # of contracted shells                  ...   29
 # of contracted basis functions         ...   95
 Highest angular momentum                ...    4
 Maximum contraction depth               ...   11
 Integral package used                   ... LIBINT
 Integral threshhold            Thresh   ...  2.500e-11
 Primitive cut-off              TCut     ...  2.500e-12


------------------------------ INTEGRAL EVALUATION ----------------------------


 * One electron integrals 
 Pre-screening matrix                    ... done
 Shell pair data                         ... done (   0.000 sec)



           ************************************************************
           *        Program running with 24 parallel MPI-processes    *
           *              working on a common directory               *
           ************************************************************
-------------------------------------------------------------------------------
                                 ORCA SCF
-------------------------------------------------------------------------------

------------
SCF SETTINGS
------------
Hamiltonian:
 Ab initio Hamiltonian  Method          .... Hartree-Fock(GTOs)


General Settings:
 Integral files         IntName         .... 32_Ge
 Hartree-Fock type      HFTyp           .... UHF
 Total Charge           Charge          ....    0
 Multiplicity           Mult            ....    3
 Number of Electrons    NEL             ....   32
 Basis Dimension        Dim             ....   95
 Nuclear Repulsion      ENuc            ....      0.0000000000 Eh

Convergence Acceleration:
 DIIS                   CNVDIIS         .... on
   Start iteration      DIISMaxIt       ....    12
   Startup error        DIISStart       ....  0.200000
   # of expansion vecs  DIISMaxEq       ....     5
   Bias factor          DIISBfac        ....   1.050
   Max. coefficient     DIISMaxC        ....  10.000
 Newton-Raphson         CNVNR           .... off
 SOSCF                  CNVSOSCF        .... off
 Level Shifting         CNVShift        .... on
   Level shift para.    LevelShift      ....    0.2500
   Turn off err/grad.   ShiftErr        ....    0.0010
 Zerner damping         CNVZerner       .... off
 Static damping         CNVDamp         .... on
   Fraction old density DampFac         ....    0.7000
   Max. Damping (<1)    DampMax         ....    0.9800
   Min. Damping (>=0)   DampMin         ....    0.0000
   Turn off err/grad.   DampErr         ....    0.1000
 Fernandez-Rico         CNVRico         .... off

SCF Procedure:
 Maximum # iterations   MaxIter         ....   125
 SCF integral mode      SCFMode         .... Direct
   Integral package                     .... LIBINT
 Reset frequency        DirectResetFreq ....    20
 Integral Threshold     Thresh          ....  2.500e-11 Eh
 Primitive CutOff       TCut            ....  2.500e-12 Eh

Convergence Tolerance:
 Convergence Check Mode ConvCheckMode   .... Total+1el-Energy
 Convergence forced     ConvForced      .... 1
 Energy Change          TolE            ....  1.000e-08 Eh
 1-El. energy change                    ....  1.000e-05 Eh
 DIIS Error             TolErr          ....  5.000e-07


Diagonalization of the overlap matrix:
Smallest eigenvalue                        ... 9.313e-04
Time for diagonalization                   ...    0.003 sec
Threshold for overlap eigenvalues          ... 1.000e-08
Number of eigenvalues below threshold      ... 0
Time for construction of square roots      ...    0.012 sec
Total time needed                          ...    0.015 sec

-------------------
DFT GRID GENERATION
-------------------

General Integration Accuracy     IntAcc      ...  4.340
Radial Grid Type                 RadialGrid  ... Gauss-Chebyshev
Angular Grid (max. acc.)         AngularGrid ... Lebedev-110
Angular grid pruning method      GridPruning ... 3 (G Style)
Weight generation scheme         WeightScheme... Becke
Basis function cutoff            BFCut       ...    1.0000e-11
Integration weight cutoff        WCut        ...    1.0000e-14
Grids for H and He will be reduced by one unit

# of grid points (after initial pruning)     ...   2912 (   0.1 sec)
# of grid points (after weights+screening)   ...   2912 (   0.0 sec)
Grid point division into batches done        ...    0.0 sec
Reduced shell lists constructed in    0.0 sec

Total number of grid points                  ...     2912
Total number of batches                      ...       46
Average number of points per batch           ...       63
Average number of grid points per atom       ...     2912
Average number of shells per batch           ...     8.67 (29.89%)
Average number of basis functions per batch  ...    34.00 (35.79%)
Average number of large shells per batch     ...     6.67 (76.92%)
Average number of large basis fcns per batch ...    26.67 (78.43%)
Maximum spatial batch extension              ...  15.81, 23.94, 23.94 au
Average spatial batch extension              ...   0.69,  1.04,  1.04 au

Time for grid setup =    0.162 sec

------------------------------
INITIAL GUESS: MODEL POTENTIAL
------------------------------
Loading Hartree-Fock densities                     ... done
Calculating cut-offs                               ... done
Setting up the integral package                    ... done
Initializing the effective Hamiltonian             ... done
Starting the Coulomb interaction                   ... done (   0.0 sec)
Reading the grid                                   ... done
Mapping shells                                     ... done
Starting the XC term evaluation                    ... done (   0.0 sec)
Transforming the Hamiltonian                       ... done (   0.0 sec)
Diagonalizing the Hamiltonian                      ... done (   0.0 sec)
Back transforming the eigenvectors                 ... done (   0.0 sec)
Now organizing SCF variables                       ... done
                      ------------------
                      INITIAL GUESS DONE (   0.3 sec)
                      ------------------
--------------
SCF ITERATIONS
--------------
ITER       Energy         Delta-E        Max-DP      RMS-DP      [F,P]     Damp
               ***  Starting incremental Fock matrix formation  ***
  0  -2075.3052020311   0.000000000000 0.01162072  0.00040849  0.7785621 0.7000
  1  -2075.3237039728  -0.018501941628 0.01104290  0.00030343  0.5451359 0.7000
  2  -2075.3351947659  -0.011490793130 0.01010355  0.00023624  0.3821418 0.7000
  3  -2075.3431065040  -0.007911738132 0.00861633  0.00019061  0.2682127 0.7000
                               ***Turning on DIIS***
  4  -2075.3487544228  -0.005647918812 0.00708405  0.00015355  0.1884200 0.7000
  5  -2075.2755730052   0.073181417675 0.00662483  0.00014243  0.1324528 0.7000
  6  -2075.3325041355  -0.056931130341 0.01806128  0.00038613  0.0929708 0.0000
  7  -2075.3630280573  -0.030523921761 0.00222616  0.00004472  0.0016788 0.0000
  8  -2075.3618988283   0.001129228960 0.00183946  0.00003292  0.0007643 0.0000
  9  -2075.3613246577   0.000574170602 0.00070899  0.00001310  0.0003025 0.0000
 10  -2075.3639238319  -0.002599174166 0.00024122  0.00000477  0.0000988 0.0000
 11  -2075.3628664277   0.001057404213 0.00005846  0.00000140  0.0000164 0.0000
 12  -2075.3629878612  -0.000121433515 0.00001435  0.00000032  0.0000031 0.0000
 13  -2075.3629891490  -0.000001287841 0.00000707  0.00000015  0.0000010 0.0000
                            ***DIIS convergence achieved***

               *****************************************************
               *                     SUCCESS                       *
               *           SCF CONVERGED AFTER  14 CYCLES          *
               *****************************************************


----------------
TOTAL SCF ENERGY
----------------

Total Energy       :        -2075.36300143 Eh          -56473.49833 eV

Components:
Nuclear Repulsion  :            0.00000000 Eh               0.00000 eV
Electronic Energy  :        -2075.36300143 Eh          -56473.49833 eV
One Electron Energy:        -2895.15298196 Eh          -78781.11779 eV
Two Electron Energy:          819.78998053 Eh           22307.61947 eV

Virial components:
Potential Energy   :        -4150.72162002 Eh         -112946.87739 eV
Kinetic Energy     :         2075.35861859 Eh           56473.37906 eV
Virial Ratio       :            2.00000211


---------------
SCF CONVERGENCE
---------------

  Last Energy change         ...   -1.2282e-05  Tolerance :   1.0000e-08
  Last MAX-Density change    ...    8.6850e-07  Tolerance :   1.0000e-07
  Last RMS-Density change    ...    1.4631e-08  Tolerance :   5.0000e-09
  Last DIIS Error            ...    1.7639e-07  Tolerance :   5.0000e-07

             **** THE GBW FILE WAS UPDATED (32_Ge.gbw) ****
             **** DENSITY FILE WAS UPDATED (32_Ge.scfp) ****
             **** ENERGY FILE WAS UPDATED (32_Ge.en.tmp) ****
----------------------
UHF SPIN CONTAMINATION
----------------------

Expectation value of <S**2>     :     2.011332
Ideal value S*(S+1) for S=1.0   :     2.000000
Deviation                       :     0.011332

             **** THE GBW FILE WAS UPDATED (32_Ge.gbw) ****
             **** DENSITY FILE WAS UPDATED (32_Ge.scfp) ****
----------------
ORBITAL ENERGIES
----------------
                 SPIN UP ORBITALS
  NO   OCC          E(Eh)            E(eV) 
   0   1.0000    -405.245529    -11027.2915 
   1   1.0000     -52.149854     -1419.0697 
   2   1.0000     -46.237396     -1258.1835 
   3   1.0000     -46.237396     -1258.1835 
   4   1.0000     -46.236330     -1258.1545 
   5   1.0000      -7.192950      -195.7301 
   6   1.0000      -5.165555      -140.5619 
   7   1.0000      -5.165555      -140.5619 
   8   1.0000      -5.164445      -140.5317 
   9   1.0000      -1.640371       -44.6368 
  10   1.0000      -1.638071       -44.5742 
  11   1.0000      -1.638071       -44.5742 
  12   1.0000      -1.631566       -44.3972 
  13   1.0000      -1.631566       -44.3972 
  14   1.0000      -0.629737       -17.1360 
  15   1.0000      -0.291208        -7.9242 
  16   1.0000      -0.291208        -7.9242 
  17   0.0000      -0.008307        -0.2260 
  18   0.0000       0.055148         1.5006 
  19   0.0000       0.134813         3.6684 
  20   0.0000       0.134813         3.6684 
  21   0.0000       0.135660         3.6915 
  22   0.0000       0.135660         3.6915 
  23   0.0000       0.136292         3.7087 
  24   0.0000       0.218801         5.9539 
  25   0.0000       0.218801         5.9539 
  26   0.0000       0.239985         6.5303 
  27   0.0000       0.311986         8.4896 
  28   0.0000       0.408119        11.1055 
  29   0.0000       0.408119        11.1055 
  30   0.0000       0.418783        11.3957 
  31   0.0000       0.418783        11.3957 
  32   0.0000       0.423260        11.5175 
  33   0.0000       0.781859        21.2755 
  34   0.0000       0.783015        21.3069 
  35   0.0000       0.783015        21.3069 
  36   0.0000       0.786332        21.3972 
  37   0.0000       0.786332        21.3972 
  38   0.0000       0.791424        21.5357 
  39   0.0000       0.791424        21.5357 
  40   0.0000       1.136543        30.9269 
  41   0.0000       1.136543        30.9269 
  42   0.0000       1.140339        31.0302 
  43   0.0000       1.166132        31.7321 
  44   0.0000       1.243507        33.8376 
  45   0.0000       1.244197        33.8563 
  46   0.0000       1.244197        33.8563 
  47   0.0000       1.246804        33.9273 
  48   0.0000       1.246804        33.9273 
  49   0.0000       2.162871        58.8547 
  50   0.0000       2.165054        58.9141 
  51   0.0000       2.165054        58.9141 
  52   0.0000       2.171640        59.0933 
  53   0.0000       2.171640        59.0933 
  54   0.0000       2.182715        59.3947 
  55   0.0000       2.182715        59.3947 
  56   0.0000       2.201854        59.9155 
  57   0.0000       2.203444        59.9588 
  58   0.0000       2.203444        59.9588 
  59   0.0000       2.208227        60.0889 
  60   0.0000       2.208227        60.0889 
  61   0.0000       2.216235        60.3068 
  62   0.0000       2.216235        60.3068 
  63   0.0000       2.227500        60.6134 
  64   0.0000       2.227500        60.6134 
  65   0.0000       3.710309       100.9626 
  66   0.0000       3.714533       101.0776 
  67   0.0000       3.714533       101.0776 
  68   0.0000       3.727337       101.4260 
  69   0.0000       3.727337       101.4260 
  70   0.0000       5.026861       136.7878 
  71   0.0000       7.477352       203.4691 
  72   0.0000       7.479432       203.5257 
  73   0.0000       7.479432       203.5257 
  74   0.0000       7.485612       203.6939 
  75   0.0000       7.485612       203.6939 
  76   0.0000       7.495699       203.9683 
  77   0.0000       7.495699       203.9683 
  78   0.0000       7.830611       213.0818 
  79   0.0000       7.835193       213.2064 
  80   0.0000       7.835193       213.2064 
  81   0.0000      19.171355       521.6791 
  82   0.0000      25.537647       694.9147 
  83   0.0000      25.538566       694.9397 
  84   0.0000      25.538566       694.9397 
  85   0.0000      25.541325       695.0148 
  86   0.0000      25.541325       695.0148 
  87   0.0000      25.545939       695.1403 
  88   0.0000      25.545939       695.1403 
  89   0.0000      63.785937      1735.7036 
  90   0.0000     201.451186      5481.7655 
  91   0.0000     201.456133      5481.9001 
  92   0.0000     201.456133      5481.9001 
  93   0.0000     213.083336      5798.2924 
  94   0.0000    1271.028860     34586.4536 

                 SPIN DOWN ORBITALS
  NO   OCC          E(Eh)            E(eV) 
   0   1.0000    -405.241730    -11027.1881 
   1   1.0000     -52.149189     -1419.0516 
   2   1.0000     -46.236184     -1258.1505 
   3   1.0000     -46.232398     -1258.0475 
   4   1.0000     -46.232398     -1258.0475 
   5   1.0000      -7.187092      -195.5707 
   6   1.0000      -5.165485      -140.5600 
   7   1.0000      -5.151478      -140.1788 
   8   1.0000      -5.151478      -140.1788 
   9   1.0000      -1.639130       -44.6030 
  10   1.0000      -1.635443       -44.5027 
  11   1.0000      -1.635443       -44.5027 
  12   1.0000      -1.624878       -44.2152 
  13   1.0000      -1.624878       -44.2152 
  14   1.0000      -0.479013       -13.0346 
  15   0.0000       0.013751         0.3742 
  16   0.0000       0.053409         1.4533 
  17   0.0000       0.053409         1.4533 
  18   0.0000       0.063109         1.7173 
  19   0.0000       0.144533         3.9329 
  20   0.0000       0.147085         4.0024 
  21   0.0000       0.147085         4.0024 
  22   0.0000       0.156325         4.2538 
  23   0.0000       0.156325         4.2538 
  24   0.0000       0.250106         6.8057 
  25   0.0000       0.281329         7.6553 
  26   0.0000       0.281329         7.6553 
  27   0.0000       0.333972         9.0878 
  28   0.0000       0.452994        12.3266 
  29   0.0000       0.460095        12.5198 
  30   0.0000       0.460095        12.5198 
  31   0.0000       0.485565        13.2129 
  32   0.0000       0.485565        13.2129 
  33   0.0000       0.806296        21.9404 
  34   0.0000       0.810592        22.0573 
  35   0.0000       0.810592        22.0573 
  36   0.0000       0.823500        22.4086 
  37   0.0000       0.823500        22.4086 
  38   0.0000       0.846108        23.0238 
  39   0.0000       0.846108        23.0238 
  40   0.0000       1.150288        31.3009 
  41   0.0000       1.187449        32.3121 
  42   0.0000       1.187449        32.3121 
  43   0.0000       1.192144        32.4399 
  44   0.0000       1.266721        34.4692 
  45   0.0000       1.275744        34.7148 
  46   0.0000       1.275744        34.7148 
  47   0.0000       1.305726        35.5306 
  48   0.0000       1.305726        35.5306 
  49   0.0000       2.181581        59.3638 
  50   0.0000       2.186292        59.4920 
  51   0.0000       2.186292        59.4920 
  52   0.0000       2.200626        59.8821 
  53   0.0000       2.200626        59.8821 
  54   0.0000       2.222225        60.4698 
  55   0.0000       2.225271        60.5527 
  56   0.0000       2.225271        60.5527 
  57   0.0000       2.225448        60.5575 
  58   0.0000       2.225448        60.5575 
  59   0.0000       2.234488        60.8035 
  60   0.0000       2.234488        60.8035 
  61   0.0000       2.250126        61.2291 
  62   0.0000       2.250126        61.2291 
  63   0.0000       2.272681        61.8428 
  64   0.0000       2.272681        61.8428 
  65   0.0000       3.718520       101.1861 
  66   0.0000       3.725736       101.3824 
  67   0.0000       3.725736       101.3824 
  68   0.0000       3.748043       101.9894 
  69   0.0000       3.748043       101.9894 
  70   0.0000       5.039599       137.1345 
  71   0.0000       7.478452       203.4990 
  72   0.0000       7.480784       203.5625 
  73   0.0000       7.480784       203.5625 
  74   0.0000       7.487685       203.7503 
  75   0.0000       7.487685       203.7503 
  76   0.0000       7.498964       204.0572 
  77   0.0000       7.498964       204.0572 
  78   0.0000       7.832474       213.1324 
  79   0.0000       7.852829       213.6863 
  80   0.0000       7.852829       213.6863 
  81   0.0000      19.176096       521.8081 
  82   0.0000      25.538435       694.9361 
  83   0.0000      25.539810       694.9735 
  84   0.0000      25.539810       694.9735 
  85   0.0000      25.543932       695.0857 
  86   0.0000      25.543932       695.0857 
  87   0.0000      25.550797       695.2725 
  88   0.0000      25.550797       695.2725 
  89   0.0000      63.788420      1735.7712 
  90   0.0000     201.451682      5481.7790 
  91   0.0000     201.459860      5482.0015 
  92   0.0000     201.459860      5482.0015 
  93   0.0000     213.085223      5798.3437 
  94   0.0000    1271.029772     34586.4785 

                    ********************************
                    * MULLIKEN POPULATION ANALYSIS *
                    ********************************

--------------------------------------------
MULLIKEN ATOMIC CHARGES AND SPIN POPULATIONS
--------------------------------------------
   0 Ge:   -0.000000    2.000000
Sum of atomic charges         :   -0.0000000
Sum of atomic spin populations:    2.0000000

-----------------------------------------------------
MULLIKEN REDUCED ORBITAL CHARGES AND SPIN POPULATIONS
-----------------------------------------------------
CHARGE
  0 Ges       :     7.994700  s :     7.994700
      pz      :     4.999930  p :    13.999961
      px      :     4.998405
      py      :     4.001626
      dz2     :     2.001322  d :    10.005286
      dxz     :     1.999998
      dyz     :     1.999998
      dx2y2   :     2.003946
      dxy     :     2.000022
      f0      :     0.000007  f :     0.000039
      f+1     :     0.000001
      f-1     :     0.000001
      f+2     :     0.000011
      f-2     :     0.000000
      f+3     :     0.000017
      f-3     :     0.000001
      g0      :     0.000001  g :     0.000014
      g+1     :     0.000000
      g-1     :     0.000002
      g+2     :     0.000002
      g-2     :     0.000000
      g+3     :     0.000001
      g-3     :     0.000001
      g+4     :     0.000003
      g-4     :     0.000003

SPIN
  0 Ges       :    -0.000551  s :    -0.000551
      pz      :     0.999932  p :     1.999968
      px      :     0.998407
      py      :     0.001629
      dz2     :     0.000140  d :     0.000562
      dxz     :     0.000001
      dyz     :     0.000003
      dx2y2   :     0.000413
      dxy     :     0.000005
      f0      :     0.000006  f :     0.000032
      f+1     :     0.000001
      f-1     :    -0.000000
      f+2     :     0.000010
      f-2     :     0.000000
      f+3     :     0.000015
      f-3     :    -0.000000
      g0      :    -0.000001  g :    -0.000011
      g+1     :    -0.000000
      g-1     :    -0.000002
      g+2     :    -0.000001
      g-2     :    -0.000000
      g+3     :    -0.000001
      g-3     :    -0.000001
      g+4     :    -0.000002
      g-4     :    -0.000002


                     *******************************
                     * LOEWDIN POPULATION ANALYSIS *
                     *******************************

-------------------------------------------
LOEWDIN ATOMIC CHARGES AND SPIN POPULATIONS
-------------------------------------------
   0 Ge:    0.000000    2.000000

----------------------------------------------------
LOEWDIN REDUCED ORBITAL CHARGES AND SPIN POPULATIONS
----------------------------------------------------
CHARGE
  0 Ges       :     7.994700  s :     7.994700
      pz      :     4.999930  p :    13.999961
      px      :     4.998405
      py      :     4.001626
      dz2     :     2.001322  d :    10.005286
      dxz     :     1.999998
      dyz     :     1.999998
      dx2y2   :     2.003946
      dxy     :     2.000022
      f0      :     0.000007  f :     0.000039
      f+1     :     0.000001
      f-1     :     0.000001
      f+2     :     0.000011
      f-2     :     0.000000
      f+3     :     0.000017
      f-3     :     0.000001
      g0      :     0.000001  g :     0.000014
      g+1     :     0.000000
      g-1     :     0.000002
      g+2     :     0.000002
      g-2     :     0.000000
      g+3     :     0.000001
      g-3     :     0.000001
      g+4     :     0.000003
      g-4     :     0.000003

SPIN
  0 Ges       :    -0.000551  s :    -0.000551
      pz      :     0.999932  p :     1.999968
      px      :     0.998407
      py      :     0.001629
      dz2     :     0.000140  d :     0.000562
      dxz     :     0.000001
      dyz     :     0.000003
      dx2y2   :     0.000413
      dxy     :     0.000005
      f0      :     0.000006  f :     0.000032
      f+1     :     0.000001
      f-1     :    -0.000000
      f+2     :     0.000010
      f-2     :     0.000000
      f+3     :     0.000015
      f-3     :    -0.000000
      g0      :    -0.000001  g :    -0.000011
      g+1     :    -0.000000
      g-1     :    -0.000002
      g+2     :    -0.000001
      g-2     :    -0.000000
      g+3     :    -0.000001
      g-3     :    -0.000001
      g+4     :    -0.000002
      g-4     :    -0.000002


                      *****************************
                      * MAYER POPULATION ANALYSIS *
                      *****************************

  NA   - Mulliken gross atomic population
  ZA   - Total nuclear charge
  QA   - Mulliken gross atomic charge
  VA   - Mayer's total valence
  BVA  - Mayer's bonded valence
  FA   - Mayer's free valence

  ATOM       NA         ZA         QA         VA         BVA        FA
  0 Ge    32.0000    32.0000     0.0000     2.0227     0.0000     2.0227

  Mayer bond orders larger than 0.100000


-------
TIMINGS
-------

Total SCF time: 0 days 0 hours 0 min 4 sec 

Total time                  ....       4.666 sec
Sum of individual times     ....       4.223 sec  ( 90.5%)

Fock matrix formation       ....       3.489 sec  ( 74.8%)
Diagonalization             ....       0.107 sec  (  2.3%)
Density matrix formation    ....       0.011 sec  (  0.2%)
Population analysis         ....       0.069 sec  (  1.5%)
Initial guess               ....       0.108 sec  (  2.3%)
Orbital Transformation      ....       0.000 sec  (  0.0%)
Orbital Orthonormalization  ....       0.000 sec  (  0.0%)
DIIS solution               ....       0.277 sec  (  5.9%)


           ************************************************************
           *        Program running with 24 parallel MPI-processes    *
           *              working on a common directory               *
           ************************************************************


------------------------------------------------------------------------------- 
                              ORCA-MATRIX DRIVEN CI                            
------------------------------------------------------------------------------- 

--------------------------------
AUTOMATIC CHOICE OF INCORE LEVEL
--------------------------------

Memory available                           ...   2500.00 MB
Memory needed for S+T                      ...      5.01 MB
Memory needed for J+K                      ...     10.07 MB
Memory needed for DIIS                     ...     70.18 MB
Memory needed for 3-ext                    ...     28.96 MB
Memory needed for 4-ext                    ...    143.01 MB
Memory needed for triples                  ...     18.10 MB
 -> Final InCoreLevel    ... 5
 -> check shows that triples correction can be computed


Wavefunction type
-----------------
Correlation treatment                      ...      CCSD     
Single excitations                         ... ON
Orbital optimization                       ... OFF
Calculation of Z vector                    ... OFF
Calculation of Brueckner orbitals          ... OFF
Perturbative triple excitations            ... ON
Calculation of F12 correction              ... OFF
Frozen core treatment                      ... chemical core (18 el)
Reference Wavefunction                     ... UHF
  Alpha-MOs occ    :     9 ...   16 (  8 MO's/  8 electrons)
  Beta-MOs occ     :     9 ...   14 (  6 MO's/  6 electrons)
  Alpha-MOs virt   :    17 ...   94 ( 78 MO's              )
  Beta-MOs virt    :    15 ...   94 ( 80 MO's              )
Number of AO's                             ...     95
Number of electrons                        ...     32
Number of correlated electrons             ...     14

Algorithmic settings
--------------------
Integral transformation                    ... AO direct full transformation
K(C) Formation                             ... FULL-MO TRAFO
Maximum number of iterations               ...        50
Convergence tolerance (max. residuum)      ... 1.000e-05
Level shift for amplitude update           ... 2.000e-01
Maximum number of DIIS vectors             ...         7
DIIS turned on at iteration                ...         0
Damping before turning on DIIS             ...     0.500
Damping after turning on DIIS              ...     0.000
Pair specific amplitude update             ... OFF
Natural orbital iterations                 ... OFF
Perturbative natural orbital generation    ... OFF
Printlevel                                 ... 2

Memory handling:
----------------
Maximum memory for working arrays          ...   2500 MB
Data storage in matrix containers          ... UNCOMPRESSED
Data type for integral storage             ... DOUBLE
In-Core Storage of quantities:
   Amplitudes+Sigma Vector      ... YES
   J+K operators                ... YES
   DIIS vectors                 ... YES
   3-external integrals         ... YES
   4-external integrals         ... YES


Initializing the integral package          ... done
Warning: reference  - re-canonicalizations have been set to INT 1 VIRT 1

--------------------------
UNRESTRICTED FOCK OPERATOR
--------------------------

<ss|ss>:         3081 b            0 skpd (  0.0%)    0.001 s ( 0.000 ms/b)
<ss|sp>:         6552 b            0 skpd (  0.0%)    0.004 s ( 0.001 ms/b)
<ss|sd>:         4680 b            0 skpd (  0.0%)    0.004 s ( 0.001 ms/b)
<ss|sf>:         3744 b            0 skpd (  0.0%)    0.001 s ( 0.000 ms/b)
<ss|sg>:          936 b            3 skpd (  0.3%)    0.001 s ( 0.001 ms/b)
<ss|pp>:         2184 b            0 skpd (  0.0%)    0.004 s ( 0.002 ms/b)
<ss|pd>:         2730 b            1 skpd (  0.0%)    0.003 s ( 0.001 ms/b)
<ss|pf>:         2184 b            1 skpd (  0.0%)    0.001 s ( 0.000 ms/b)
<ss|pg>:          546 b            2 skpd (  0.4%)    0.001 s ( 0.002 ms/b)
<ss|dd>:         1170 b            0 skpd (  0.0%)    0.004 s ( 0.003 ms/b)
<ss|df>:         1560 b            0 skpd (  0.0%)    0.001 s ( 0.001 ms/b)
<ss|dg>:          390 b            0 skpd (  0.0%)    0.002 s ( 0.005 ms/b)
<ss|ff>:          780 b            0 skpd (  0.0%)    0.001 s ( 0.001 ms/b)
<ss|fg>:          312 b            0 skpd (  0.0%)    0.000 s ( 0.002 ms/b)
<ss|gg>:           78 b            0 skpd (  0.0%)    0.001 s ( 0.008 ms/b)
<sp|sp>:         3570 b            0 skpd (  0.0%)    0.004 s ( 0.001 ms/b)
<sp|sd>:         5040 b           14 skpd (  0.3%)    0.005 s ( 0.001 ms/b)
<sp|sf>:         4032 b           19 skpd (  0.5%)    0.001 s ( 0.000 ms/b)
<sp|sg>:         1008 b           38 skpd (  3.8%)    0.001 s ( 0.001 ms/b)
<sp|pp>:         2352 b            0 skpd (  0.0%)    0.006 s ( 0.003 ms/b)
<sp|pd>:         2940 b            1 skpd (  0.0%)    0.007 s ( 0.002 ms/b)
<sp|pf>:         2352 b            1 skpd (  0.0%)    0.003 s ( 0.001 ms/b)
<sp|pg>:          588 b            2 skpd (  0.3%)    0.002 s ( 0.004 ms/b)
<sp|dd>:         1260 b            0 skpd (  0.0%)    0.009 s ( 0.007 ms/b)
<sp|df>:         1680 b            4 skpd (  0.2%)    0.002 s ( 0.001 ms/b)
<sp|dg>:          420 b            0 skpd (  0.0%)    0.003 s ( 0.008 ms/b)
<sp|ff>:          840 b            0 skpd (  0.0%)    0.001 s ( 0.002 ms/b)
<sp|fg>:          336 b            4 skpd (  1.2%)    0.001 s ( 0.004 ms/b)
<sp|gg>:           84 b            0 skpd (  0.0%)    0.002 s ( 0.021 ms/b)
<sd|sd>:         1830 b           37 skpd (  2.0%)    0.003 s ( 0.002 ms/b)
<sd|sf>:         2880 b           76 skpd (  2.6%)    0.001 s ( 0.001 ms/b)
<sd|sg>:          720 b           65 skpd (  9.0%)    0.001 s ( 0.002 ms/b)
<sd|pp>:         1680 b            2 skpd (  0.1%)    0.007 s ( 0.004 ms/b)
<sd|pd>:         2100 b           63 skpd (  3.0%)    0.009 s ( 0.004 ms/b)
<sd|pf>:         1680 b           79 skpd (  4.7%)    0.003 s ( 0.002 ms/b)
<sd|pg>:          420 b           41 skpd (  9.8%)    0.003 s ( 0.008 ms/b)
<sd|dd>:          900 b            3 skpd (  0.3%)    0.012 s ( 0.013 ms/b)
<sd|df>:         1200 b           17 skpd (  1.4%)    0.003 s ( 0.003 ms/b)
<sd|dg>:          300 b            3 skpd (  1.0%)    0.005 s ( 0.018 ms/b)
<sd|ff>:          600 b           16 skpd (  2.7%)    0.001 s ( 0.002 ms/b)
<sd|fg>:          240 b            9 skpd (  3.8%)    0.002 s ( 0.009 ms/b)
<sd|gg>:           60 b            1 skpd (  1.7%)    0.003 s ( 0.053 ms/b)
<sf|sf>:         1176 b           47 skpd (  4.0%)    0.001 s ( 0.001 ms/b)
<sf|sg>:          576 b           63 skpd ( 10.9%)    0.001 s ( 0.002 ms/b)
<sf|pp>:         1344 b            2 skpd (  0.1%)    0.005 s ( 0.004 ms/b)
<sf|pd>:         1680 b           73 skpd (  4.3%)    0.007 s ( 0.004 ms/b)
<sf|pf>:         1344 b           85 skpd (  6.3%)    0.002 s ( 0.002 ms/b)
<sf|pg>:          336 b           40 skpd ( 11.9%)    0.001 s ( 0.005 ms/b)
<sf|dd>:          720 b            4 skpd (  0.6%)    0.010 s ( 0.014 ms/b)
<sf|df>:          960 b           47 skpd (  4.9%)    0.003 s ( 0.003 ms/b)
<sf|dg>:          240 b            6 skpd (  2.5%)    0.004 s ( 0.019 ms/b)
<sf|ff>:          480 b           89 skpd ( 18.5%)    0.001 s ( 0.003 ms/b)
<sf|fg>:          192 b           25 skpd ( 13.0%)    0.002 s ( 0.011 ms/b)
<sf|gg>:           48 b            3 skpd (  6.2%)    0.003 s ( 0.056 ms/b)
<sg|sg>:           78 b           18 skpd ( 23.1%)    0.000 s ( 0.002 ms/b)
<sg|pp>:          336 b            6 skpd (  1.8%)    0.003 s ( 0.008 ms/b)
<sg|pd>:          420 b           65 skpd ( 15.5%)    0.003 s ( 0.010 ms/b)
<sg|pf>:          336 b           74 skpd ( 22.0%)    0.001 s ( 0.002 ms/b)
<sg|pg>:           84 b           30 skpd ( 35.7%)    0.000 s ( 0.009 ms/b)
<sg|dd>:          180 b            8 skpd (  4.4%)    0.005 s ( 0.029 ms/b)
<sg|df>:          240 b           33 skpd ( 13.8%)    0.002 s ( 0.008 ms/b)
<sg|dg>:           60 b            8 skpd ( 13.3%)    0.001 s ( 0.022 ms/b)
<sg|ff>:          120 b           30 skpd ( 25.0%)    0.000 s ( 0.004 ms/b)
<sg|fg>:           48 b           13 skpd ( 27.1%)    0.001 s ( 0.027 ms/b)
<sg|gg>:           12 b            3 skpd ( 25.0%)    0.001 s ( 0.075 ms/b)
<pp|pp>:          406 b            0 skpd (  0.0%)    0.005 s ( 0.013 ms/b)
<pp|pd>:          980 b            0 skpd (  0.0%)    0.008 s ( 0.008 ms/b)
<pp|pf>:          784 b            0 skpd (  0.0%)    0.003 s ( 0.004 ms/b)
<pp|pg>:          196 b            0 skpd (  0.0%)    0.003 s ( 0.016 ms/b)
<pp|dd>:          420 b            0 skpd (  0.0%)    0.011 s ( 0.026 ms/b)
<pp|df>:          560 b            0 skpd (  0.0%)    0.003 s ( 0.005 ms/b)
<pp|dg>:          140 b            0 skpd (  0.0%)    0.005 s ( 0.033 ms/b)
<pp|ff>:          280 b            0 skpd (  0.0%)    0.001 s ( 0.004 ms/b)
<pp|fg>:          112 b            0 skpd (  0.0%)    0.002 s ( 0.015 ms/b)
<pp|gg>:           28 b            0 skpd (  0.0%)    0.002 s ( 0.082 ms/b)
<pd|pd>:          630 b            2 skpd (  0.3%)    0.012 s ( 0.020 ms/b)
<pd|pf>:          980 b            3 skpd (  0.3%)    0.006 s ( 0.006 ms/b)
<pd|pg>:          245 b            2 skpd (  0.8%)    0.007 s ( 0.029 ms/b)
<pd|dd>:          525 b            0 skpd (  0.0%)    0.022 s ( 0.042 ms/b)
<pd|df>:          700 b            3 skpd (  0.4%)    0.007 s ( 0.010 ms/b)
<pd|dg>:          175 b            0 skpd (  0.0%)    0.010 s ( 0.059 ms/b)
<pd|ff>:          350 b            1 skpd (  0.3%)    0.003 s ( 0.007 ms/b)
<pd|fg>:          140 b            3 skpd (  2.1%)    0.004 s ( 0.028 ms/b)
<pd|gg>:           35 b            0 skpd (  0.0%)    0.005 s ( 0.152 ms/b)
<pf|pf>:          406 b            2 skpd (  0.5%)    0.002 s ( 0.006 ms/b)
<pf|pg>:          196 b            2 skpd (  1.0%)    0.006 s ( 0.028 ms/b)
<pf|dd>:          420 b            0 skpd (  0.0%)    0.016 s ( 0.038 ms/b)
<pf|df>:          560 b            7 skpd (  1.2%)    0.005 s ( 0.010 ms/b)
<pf|dg>:          140 b            0 skpd (  0.0%)    0.008 s ( 0.059 ms/b)
<pf|ff>:          280 b            1 skpd (  0.4%)    0.003 s ( 0.011 ms/b)
<pf|fg>:          112 b            1 skpd (  0.9%)    0.004 s ( 0.034 ms/b)
<pf|gg>:           28 b            0 skpd (  0.0%)    0.005 s ( 0.177 ms/b)
<pg|pg>:           28 b            1 skpd (  3.6%)    0.001 s ( 0.054 ms/b)
<pg|dd>:          105 b            0 skpd (  0.0%)    0.008 s ( 0.078 ms/b)
<pg|df>:          140 b            6 skpd (  4.3%)    0.002 s ( 0.018 ms/b)
<pg|dg>:           35 b            2 skpd (  5.7%)    0.004 s ( 0.121 ms/b)
<pg|ff>:           70 b            2 skpd (  2.9%)    0.001 s ( 0.014 ms/b)
<pg|fg>:           28 b            3 skpd ( 10.7%)    0.002 s ( 0.066 ms/b)
<pg|gg>:            7 b            0 skpd (  0.0%)    0.002 s ( 0.296 ms/b)
<dd|dd>:          120 b            0 skpd (  0.0%)    0.018 s ( 0.151 ms/b)
<dd|df>:          300 b            0 skpd (  0.0%)    0.006 s ( 0.019 ms/b)
<dd|dg>:           75 b            0 skpd (  0.0%)    0.009 s ( 0.121 ms/b)
<dd|ff>:          150 b            0 skpd (  0.0%)    0.002 s ( 0.014 ms/b)
<dd|fg>:           60 b            0 skpd (  0.0%)    0.003 s ( 0.053 ms/b)
<dd|gg>:           15 b            0 skpd (  0.0%)    0.004 s ( 0.299 ms/b)
<df|df>:          210 b            0 skpd (  0.0%)    0.006 s ( 0.030 ms/b)
<df|dg>:          100 b            0 skpd (  0.0%)    0.010 s ( 0.098 ms/b)
<df|ff>:          200 b           10 skpd (  5.0%)    0.003 s ( 0.018 ms/b)
<df|fg>:           80 b            1 skpd (  1.2%)    0.005 s ( 0.059 ms/b)
<df|gg>:           20 b            0 skpd (  0.0%)    0.006 s ( 0.318 ms/b)
<dg|dg>:           15 b            0 skpd (  0.0%)    0.002 s ( 0.160 ms/b)
<dg|ff>:           50 b            0 skpd (  0.0%)    0.002 s ( 0.031 ms/b)
<dg|fg>:           20 b            0 skpd (  0.0%)    0.002 s ( 0.097 ms/b)
<dg|gg>:            5 b            0 skpd (  0.0%)    0.002 s ( 0.491 ms/b)
<ff|ff>:           55 b            0 skpd (  0.0%)    0.002 s ( 0.032 ms/b)
<ff|fg>:           40 b            2 skpd (  5.0%)    0.003 s ( 0.081 ms/b)
<ff|gg>:           10 b            0 skpd (  0.0%)    0.004 s ( 0.425 ms/b)
<fg|fg>:           10 b            0 skpd (  0.0%)    0.002 s ( 0.193 ms/b)
<fg|gg>:            4 b            0 skpd (  0.0%)    0.003 s ( 0.706 ms/b)
<gg|gg>:            1 b            0 skpd (  0.0%)    0.002 s ( 1.893 ms/b)
Recanonicalizing the internal orbitals
Recanonicalizing the virtual orbitals
Time needed for Fock operator              ...            0.628 sec
Reference energy                           ...  -2075.363003163
Warning: for UHF the TrafoType has to be JK
Warning: for UHF the K(C)-option cannot be MO but must be AOX

-------------------------------
PARTIAL EXCHANGE TRANSFORMATION
-------------------------------

Transformation type                        ... two-operators
Generation of integrals (i,mue|j,nue)      ... ON
Generation of integrals (mue,kappa|nue,tau)... ON
Generation of integrals (i,mue|a,nue)      ... ON
Dimension of the basis                     ...   95
Number of internal alpha-MOs               ...    8 (   9-  16)
Number of internal beta-MOs                ...    6 (   9-  14)
Number of external alpha-MOs               ...   78 (  17-  94)
Number of external beta-MOs                ...   80 (  15-  94)
Pair cutoff                                ... 0.000e+00 Eh
Number of AO pairs in the trafo            ... 4560
Total Number of distinct AO pairs          ... 4560
Memory devoted for trafo                   ... 2500.0 MB 
Max. Number of MO pairs treated together   ... 36308      
Number Format for Storage                  ... Double (8 Byte)
Integral package used                      ... LIBINT

Starting integral evaluation:
    ... done with AO integral generation
Closing buffer AOK[aa] ( 0.00 GB; CompressionRatio= 0.98)
Closing buffer AOK[bb] ( 0.00 GB; CompressionRatio= 0.96)
Closing buffer AOK[ab] ( 0.00 GB; CompressionRatio= 0.97)
Closing buffer AOK[ba] ( 0.00 GB; CompressionRatio= 0.97)
Collecting buffer AOK 
Closing buffer IAAO1[aa] ( 0.00 GB; CompressionRatio= 1.00)
Closing buffer IAAO1[bb] ( 0.00 GB; CompressionRatio= 1.00)
Closing buffer IAAO1[ab] ( 0.00 GB; CompressionRatio= 1.00)
Closing buffer IAAO1[ba] ( 0.00 GB; CompressionRatio= 1.00)
Closing buffer IAAO2[aa] ( 0.00 GB; CompressionRatio= 1.00)
Closing buffer IAAO2[bb] ( 0.00 GB; CompressionRatio= 1.00)
Closing buffer IAAO2[ab] ( 0.00 GB; CompressionRatio= 1.00)
Closing buffer IAAO2[ba] ( 0.00 GB; CompressionRatio= 1.00)
Collecting buffer IAAO 
Closing buffer PRQS    ( 0.00 GB; CompressionRatio= 1.00)
Collecting buffer PRQS 
Number of alpha/alpha MO pairs in trafo    ...   36
Number of beta /beta  MO pairs in trafo    ...   21
Number of alpha/ beta MO pairs in trafo    ...   48
------------------------
SORTING OF (i,mue|j,nue)
------------------------

SORTING OF ALPHA/ALPHA PAIRS
IBATCH = 1 of  1
Closing buffer KAO[aa] ( 0.00 GB; CompressionRatio= 1.00)
Collecting buffer KAO 
SORTING OF BETA /BETA  PAIRS
IBATCH = 1 of  1
Closing buffer KAO[bb] ( 0.00 GB; CompressionRatio= 1.00)
Collecting buffer KAO 
SORTING OF ALPHA/BETA  PAIRS
IBATCH = 1 of  1
Closing buffer KAO[ab] ( 0.00 GB; CompressionRatio= 0.999833822633)
Collecting buffer KAO[ab] 
------------------------
SORTING OF (i,mue|a,nue)
------------------------

Number of alpha/alpha (i,a) pairs in trafo  ...  624
Number of beta /beta  (i,a) pairs in trafo  ...  480
Number of alpha/ beta (i,a) pairs in trafo  ...  640
Number of beta /alpha (i,a) pairs in trafo  ...  468
Setting up the alpha/alpha list             ... done
Setting up the beta /beta  list             ... done
Setting up the alpha/beta  list             ... done
Setting up the beta /alpha list             ... done
    ... Now sorting (i,mue|a,nue)integrals
    ... Integrals (i,b|a,c) will be made on the fly
SORTING OF ALPHA/ALPHA PAIRS
IBATCH = 1 of  1
Closing buffer IPAQ[aa]  0.00 GB; CompressionRatio= 1.00)
SORTING OF BETA /BETA  PAIRS
IBATCH = 1 of  1
Closing buffer IPAQ[bb]( 0.00 GB; CompressionRatio= 1.00)
SORTING OF ALPHA/BETA  PAIRS (NMatSort_ab=27)
IBATCH = 1 of  1
Closing buffer IPAQ[ab]( 0.00 GB; CompressionRatio= 1.00)
SORTING OF BETA/ALPHA  PAIRS
IBATCH = 1 of  1
Closing buffer IPAQ[ba]( 0.00 GB; CompressionRatio= 1.00)
N(AO-Batches) Done                         ...      5046 
N(AO-Batches) Skipped                      ...         0 
N(IJ)-pairs Skipped                        ...         0 
TOTAL TIME for half transformation         ...     7.376 sec
AO-integral generation                     ...     0.076 sec
Half transformation                        ...     0.840 sec
K-integral sorting                         ...     1.318 sec
<ss|**>: 
------------------------------
PARTIAL COULOMB TRANSFORMATION
------------------------------

Transformation type                        ... two-operators
Dimension of the basis                     ...   95
Number of internal alpha-MOs               ...    8 (9-16)
Number of internal beta-MOs                ...    6 (9-14)
Pair cutoff                                ... 0.000e+00 Eh
Number of AO pairs included in the trafo   ... 4560
Total Number of distinct AO pairs          ... 4560
Memory devoted for trafo                   ... 2500.0 MB 
Max. Number of MO pairs treated together   ... 71859      
Max. Number of MOs treated per batch       ...  756      
Number Format for Storage                  ... Double (8 Byte)
AO-integral source                         ... DIRECT
Integral package used                      ... LIBINT

Starting integral evaluation:
       33930 b        0 skpd     0.022 s (  0.001 ms/b)
<sp|**>: <sd|**>:        36540 b        0 skpd     0.053 s (  0.001 ms/b)
       26100 b        0 skpd     0.097 s (  0.004 ms/b)
<sf|**>:        20880 b        0 skpd     0.077 s (  0.004 ms/b)
<sg|**>:         5220 b        0 skpd     0.038 s (  0.007 ms/b)
<pp|**>:        12180 b        0 skpd     0.080 s (  0.007 ms/b)
<pd|**>:        15225 b        0 skpd     0.119 s (  0.008 ms/b)
<pf|**>:        12180 b        0 skpd     0.142 s (  0.012 ms/b)
<pg|**>:         3045 b        0 skpd     0.068 s (  0.022 ms/b)
<dd|**>:         6525 b        0 skpd     0.161 s (  0.025 ms/b)
<df|**>:         8700 b        0 skpd     0.128 s (  0.015 ms/b)
<dg|**>:         2175 b        0 skpd     0.105 s (  0.048 ms/b)
<ff|**>:         4350 b        0 skpd     0.088 s (  0.020 ms/b)
<fg|**>:         1740 b        0 skpd     0.082 s (  0.047 ms/b)
<gg|**>:          435 b        0 skpd     0.069 s (  0.158 ms/b)
Closing buffer AOJ[aa] ( 0.00 GB; CompressionRatio= 0.96)
Closing buffer AOJ[bb] ( 0.00 GB; CompressionRatio= 0.00)
Collecting buffer AOJ 
    ... done with AO integral generation
Number of Alpha-MO pairs included          ...   36
Number of Beta-MO pairs included           ...   21
    ... Now sorting integrals
SORTING ALPHA/ALPHA PAIRS
IBATCH = 1 of  1
Closing buffer JAO[aa] ( 0.00 GB; CompressionRatio= 1.00)
SORTING BETA/BETA PAIRS
IBATCH = 1 of  1
Closing buffer JAO[bb] ( 0.00 GB; CompressionRatio= 1.00)
Collecting buffer JAO 
TOTAL TIME for half transformation         ...     1.508 sec
AO-integral generation                     ...     0.966 sec
Half transformation                        ...     0.373 sec
J-integral sorting                         ...     0.115 sec

-------------------------- SECOND HALF TRANSFORMATION -------------------------
Formation of (ij|kl),(ij|ka), (ij|ab)      ... ok (     0.159 sec)
Formation of (ik|jl),(ik|ja), (ia|jb)      ... ok (     0.254 sec)


-----------------------
SPIN UNRESTRICTED GUESS
-----------------------

Entering MDCI_UHF_Guess, Tailored=0
Spin-components of the MP2 energy:
EMP2(aa)=     -0.087954879
EMP2(bb)=     -0.071018702
EMP2(ab)=     -0.284667887

Initial guess performed in     0.014 sec
E(0)                                       ...  -2075.363003163
E(MP2)                                     ...     -0.443641468
Initial E(tot)                             ...  -2075.806644631
<T|T>                                      ...      0.068357531
Number of pairs included                   ... 91

------------------------------------------------
                  UHF COUPLED CLUSTER ITERATIONS
------------------------------------------------

Number of amplitudes to be optimized       ...       433248

Iter       E(tot)           E(Corr)          Delta-E          Residual     Time      <S|S>**1/2
  0  -2075.806644631     -0.443641468      0.000000000      0.020274878    0.88      0.000000145
                           *** Turning on DIIS ***
  1  -2075.782808983     -0.419805820      0.023835648      0.007978594    0.83      0.028451608
  2  -2075.789751418     -0.426748255     -0.006942435      0.004657666    0.83      0.032715037
  3  -2075.791316279     -0.428313116     -0.001564861      0.002069679    0.82      0.038031549
  4  -2075.792013478     -0.429010315     -0.000697199      0.000672040    0.84      0.040384885
  5  -2075.792104555     -0.429101391     -0.000091076      0.000142588    0.87      0.041005936
  6  -2075.792107788     -0.429104624     -0.000003233      0.000027850    0.86      0.041057039
  7  -2075.792109501     -0.429106338     -0.000001713      0.000008196    0.85      0.041055563
               --- The Coupled-Cluster iterations have converged ---

----------------------
COUPLED CLUSTER ENERGY
----------------------

E(0)                                       ...  -2075.363003163
E(CORR)                                    ...     -0.429106338
E(TOT)                                     ...  -2075.792109501
Singles norm <S|S>**1/2                    ...      0.041055563 ( 0.027751544, 0.013304019)  
T1 diagnostic                              ...      0.010972561                              

------------------
LARGEST AMPLITUDES
------------------
  14a-> 17a  14b-> 15b       0.075225
  14a-> 17a  14b-> 24b       0.044973
  14a-> 26a  14b-> 15b       0.040543
  16a-> 31a  14b-> 15b       0.037548
  15a-> 30a  14b-> 15b       0.037548
  16a-> 29a  15a-> 28a       0.028936
  16a-> 28a  15a-> 29a       0.028936
  14a-> 26a  14b-> 24b       0.026522
  15a-> 28a  14b-> 16b       0.026475
  16a-> 28a  14b-> 17b       0.026475
  15a-> 29a  14b-> 17b       0.026475
  16a-> 29a  14b-> 16b       0.026475
  15a-> 17a  14b-> 29b       0.025537
  16a-> 17a  14b-> 30b       0.025537
  16a-> 24a  15a-> 25a       0.024721
  16a-> 25a  15a-> 24a       0.024721

----------------------
UHF TRIPLES CORRECTION (Algorithm 1)
----------------------

Multiplier for the singles contribution    ...      1.000000000

SPIN-CASE Alpha-Alpha-Alpha:
10% done
20% done
30% done
40% done
50% done
60% done
70% done
80% done
90% done


SPIN-CASE Beta-Beta-Beta:
10% done
20% done
30% done
40% done
50% done
60% done
70% done
80% done
90% done


SPIN-CASE Alpha-Alpha-Beta:
10% done
20% done
30% done
40% done
50% done
60% done
70% done
80% done
90% done


SPIN-CASE Beta-Beta-Alpha:
10% done
20% done
30% done
40% done
50% done
60% done
70% done
80% done
90% done


Triples Correction (T)                     ...     -0.009966117
    alpha-alpha-alpha ... -0.000547651 (  5.5%)
    alpha-alpha-beta  ... -0.005686498 ( 57.1%)
    alpha-beta -beta  ... -0.003452164 ( 34.6%)
    beta -beta -beta  ... -0.000279803 (  2.8%)
Scaling of triples based on CCSD energies (Peterson et al. Molecular Physics 113, 1551 (2015))
E(T*) = f*E(T) where f = E(F12-CCSD)/E(CCSD) 
f = CCSD (with F12)/ CCSD (without F12)    ...      1.000000000
Scaled triples correction (T)              ...     -0.009966117

Final correlation energy                   ...     -0.439072454
E(CCSD)                                    ...  -2075.792109501
E(CCSD(T))                                 ...  -2075.802075618



        !!!!!!!!!!!!!!!!!!!!!!!!!!!!!!!!!!!!!!!!!!!!!!!!!!!!!!!!!!!!!!!!!!!!!!!!!! 
        !  Warning: Densities are linearized densities                           !
        !!!!!!!!!!!!!!!!!!!!!!!!!!!!!!!!!!!!!!!!!!!!!!!!!!!!!!!!!!!!!!!!!!!!!!!!!! 

NORM  =      1.084329328 sqrt=     1.041311350
W(HF) =      0.922229045
------------------------------------------------------------------------------
                           ORCA POPULATION ANALYSIS
------------------------------------------------------------------------------
Input electron density              ... 32_Ge.mdcip
Input spin density                  ... 32_Ge.mdcir
BaseName (.gbw .S,...)              ... 32_Ge

                    ********************************
                    * MULLIKEN POPULATION ANALYSIS *
                    ********************************

------------------------------------------
MULLIKEN ATOMIC CHARGES AND SPIN DENSITIES
------------------------------------------
   0 Ge:    0.000000    2.000000
Sum of atomic charges       :    0.0000000
Sum of atomic spin densities:    2.0000000

---------------------------------------------------
MULLIKEN REDUCED ORBITAL CHARGES AND SPIN DENSITIES
---------------------------------------------------
CHARGE
  0 Ges       :     7.937086  s :     7.937086
      pz      :     4.993785  p :    14.022717
      px      :     4.992323
      py      :     4.036609
      dz2     :     2.004173  d :    10.014431
      dxz     :     2.005433
      dyz     :     2.001595
      dx2y2   :     2.001641
      dxy     :     2.001589
      f0      :     0.003700  f :     0.025038
      f+1     :     0.003847
      f-1     :     0.003484
      f+2     :     0.003581
      f-2     :     0.003557
      f+3     :     0.003434
      f-3     :     0.003435
      g0      :     0.000089  g :     0.000729
      g+1     :     0.000099
      g-1     :     0.000076
      g+2     :     0.000084
      g-2     :     0.000084
      g+3     :     0.000078
      g-3     :     0.000078
      g+4     :     0.000070
      g-4     :     0.000070

SPIN
  0 Ges       :     0.026029  s :     0.026029
      pz      :     0.974107  p :     1.945749
      px      :     0.972618
      py      :    -0.000975
      dz2     :     0.007237  d :     0.026515
      dxz     :     0.009161
      dyz     :     0.003378
      dx2y2   :     0.003371
      dxy     :     0.003369
      f0      :     0.000278  f :     0.001584
      f+1     :     0.000341
      f-1     :     0.000187
      f+2     :     0.000228
      f-2     :     0.000219
      f+3     :     0.000166
      f-3     :     0.000166
      g0      :     0.000018  g :     0.000122
      g+1     :     0.000024
      g-1     :     0.000011
      g+2     :     0.000015
      g-2     :     0.000015
      g+3     :     0.000012
      g-3     :     0.000012
      g+4     :     0.000007
      g-4     :     0.000007


                     *******************************
                     * LOEWDIN POPULATION ANALYSIS *
                     *******************************

-----------------------------------------
LOEWDIN ATOMIC CHARGES AND SPIN DENSITIES
-----------------------------------------
   0 Ge:    0.000000    2.000000

--------------------------------------------------
LOEWDIN REDUCED ORBITAL CHARGES AND SPIN DENSITIES
--------------------------------------------------
CHARGE
  0 Ges       :     7.937086  s :     7.937086
      pz      :     4.993785  p :    14.022717
      px      :     4.992323
      py      :     4.036609
      dz2     :     2.004173  d :    10.014431
      dxz     :     2.005433
      dyz     :     2.001595
      dx2y2   :     2.001641
      dxy     :     2.001589
      f0      :     0.003700  f :     0.025038
      f+1     :     0.003847
      f-1     :     0.003484
      f+2     :     0.003581
      f-2     :     0.003557
      f+3     :     0.003434
      f-3     :     0.003435
      g0      :     0.000089  g :     0.000729
      g+1     :     0.000099
      g-1     :     0.000076
      g+2     :     0.000084
      g-2     :     0.000084
      g+3     :     0.000078
      g-3     :     0.000078
      g+4     :     0.000070
      g-4     :     0.000070

SPIN
  0 Ges       :     0.026029  s :     0.026029
      pz      :     0.974107  p :     1.945749
      px      :     0.972618
      py      :    -0.000975
      dz2     :     0.007237  d :     0.026515
      dxz     :     0.009161
      dyz     :     0.003378
      dx2y2   :     0.003371
      dxy     :     0.003369
      f0      :     0.000278  f :     0.001584
      f+1     :     0.000341
      f-1     :     0.000187
      f+2     :     0.000228
      f-2     :     0.000219
      f+3     :     0.000166
      f-3     :     0.000166
      g0      :     0.000018  g :     0.000122
      g+1     :     0.000024
      g-1     :     0.000011
      g+2     :     0.000015
      g-2     :     0.000015
      g+3     :     0.000012
      g-3     :     0.000012
      g+4     :     0.000007
      g-4     :     0.000007


                      *****************************
                      * MAYER POPULATION ANALYSIS *
                      *****************************

  NA   - Mulliken gross atomic population
  ZA   - Total nuclear charge
  QA   - Mulliken gross atomic charge
  VA   - Mayer's total valence
  BVA  - Mayer's bonded valence
  FA   - Mayer's free valence

  ATOM       NA         ZA         QA         VA         BVA        FA
  0 Ge    32.0000    32.0000     0.0000     2.5364     0.0000     2.5364





------------------------------------------------------------------------------- 
                                     TIMINGS                                   
------------------------------------------------------------------------------- 


Total execution time                   ...       18.187 sec

Fock Matrix Formation                  ...        0.628 sec (  3.5%)
Initial Guess                          ...        0.014 sec (  0.1%)
DIIS Solver                            ...        0.264 sec (  1.5%)
State Vector Update                    ...        0.013 sec (  0.1%)
Sigma-vector construction              ...        6.496 sec ( 35.7%)
  <D|H|D>(0-ext Fock)                  ...        0.004 sec (  0.1% of sigma)
  <D|H|D>(0-ext)                       ...        0.011 sec (  0.2% of sigma)
  <D|H|D>(2-ext Fock)                  ...        0.002 sec (  0.0% of sigma)
  <D|H|D>(2-ext)                       ...        0.055 sec (  0.9% of sigma)
  <D|H|D>(4-ext)                       ...        3.091 sec ( 47.6% of sigma)
  <S|H|0>                              ...        0.126 sec (  1.9% of sigma)
  <S|H|D>(1-ext)                       ...        0.001 sec (  0.0% of sigma)
  <D|H|S>(1-ext)                       ...        0.025 sec (  0.4% of sigma)
  Fock-dressing                        ...        2.228 sec ( 34.3% of sigma)
  (ik|jl)-dressing                     ...        0.013 sec (  0.2% of sigma)
  (ij|ab),(ia|jb)-dressing             ...        0.716 sec ( 11.0% of sigma)
  Pair energies                        ...        0.001 sec (  0.0% of sigma)
Total Time for computing (T)           ...        0.746 sec (  4.1% of ALL)
  I/O of integral and amplitudes       ...        0.158 sec ( 21.2% of (T))
  External N**7 contributions          ...        0.192 sec ( 25.7% of (T))
  Internal N**7 contributions          ...        0.093 sec ( 12.5% of (T))
  N**6 triples energy contributions    ...        0.262 sec ( 35.2% of (T))


-------------------------   --------------------
FINAL SINGLE POINT ENERGY     -2075.802075617695
-------------------------   --------------------


                            ***************************************
                            *     ORCA property calculations      *
                            ***************************************

                                    ---------------------
                                    Active property flags
                                    ---------------------
   (+) Dipole Moment


------------------------------------------------------------------------------
                       ORCA ELECTRIC PROPERTIES CALCULATION
------------------------------------------------------------------------------

Dipole Moment Calculation                       ... on
Quadrupole Moment Calculation                   ... off
Polarizability Calculation                      ... off
GBWName                                         ... 32_Ge.gbw
Electron density file                           ... 32_Ge.scfp
The origin for moment calculation is the CENTER OF MASS  = ( 0.000000,  0.000000  0.000000)

-------------
DIPOLE MOMENT
-------------
                                X             Y             Z
Electronic contribution:     -0.00000      -0.00000      -0.00000
Nuclear contribution   :      0.00000       0.00000       0.00000
                        -----------------------------------------
Total Dipole Moment    :     -0.00000      -0.00000      -0.00000
                        -----------------------------------------
Magnitude (a.u.)       :      0.00000
Magnitude (Debye)      :      0.00000



--------------------
Rotational spectrum 
--------------------
 
Rotational constants in cm-1:     0.000000     0.000000     0.000000 
Rotational constants in MHz :     0.000000     0.000000     0.000000 

 Dipole components along the rotational axes: 
x,y,z [a.u.] :    -0.000000    -0.000000    -0.000000 
x,y,z [Debye]:    -0.000000    -0.000000    -0.000000 

 

                           *** MDCI DENSITY ***

------------------------------------------------------------------------------
                       ORCA ELECTRIC PROPERTIES CALCULATION
------------------------------------------------------------------------------

Dipole Moment Calculation                       ... on
Quadrupole Moment Calculation                   ... off
Polarizability Calculation                      ... off
GBWName                                         ... 32_Ge.gbw
Electron density file                           ... 32_Ge.mdcip
The origin for moment calculation is the CENTER OF MASS  = ( 0.000000,  0.000000  0.000000)

-------------
DIPOLE MOMENT
-------------
                                X             Y             Z
Electronic contribution:      0.00000       0.00000       0.00000
Nuclear contribution   :      0.00000       0.00000       0.00000
                        -----------------------------------------
Total Dipole Moment    :      0.00000       0.00000       0.00000
                        -----------------------------------------
Magnitude (a.u.)       :      0.00000
Magnitude (Debye)      :      0.00000



--------------------
Rotational spectrum 
--------------------
 
Rotational constants in cm-1:     0.000000     0.000000     0.000000 
Rotational constants in MHz :     0.000000     0.000000     0.000000 

 Dipole components along the rotational axes: 
x,y,z [a.u.] :     0.000000     0.000000     0.000000 
x,y,z [Debye]:     0.000000     0.000000     0.000000 

 

Timings for individual modules:

Sum of individual times         ...       24.772 sec (=   0.413 min)
GTO integral calculation        ...        0.800 sec (=   0.013 min)   3.2 %
SCF iterations                  ...        5.040 sec (=   0.084 min)  20.3 %
MDCI module                     ...       18.932 sec (=   0.316 min)  76.4 %
                             ****ORCA TERMINATED NORMALLY****
TOTAL RUN TIME: 0 days 0 hours 0 minutes 25 seconds 494 msec
