
                                 *****************
                                 * O   R   C   A *
                                 *****************

           --- An Ab Initio, DFT and Semiempirical electronic structure package ---

                  #######################################################
                  #                        -***-                        #
                  #          Department of theory and spectroscopy      #
                  #               Directorship: Frank Neese             #
                  #        Max Planck Institute fuer Kohlenforschung    #
                  #                Kaiser Wilhelm Platz 1               #
                  #                 D-45470 Muelheim/Ruhr               #
                  #                      Germany                        #
                  #                                                     #
                  #                  All rights reserved                #
                  #                        -***-                        #
                  #######################################################


                         Program Version 4.2.0 -  RELEASE  -


 With contributions from (in alphabetic order):
   Daniel Aravena         : Magnetic Suceptibility
   Michael Atanasov       : Ab Initio Ligand Field Theory (pilot matlab implementation)
   Alexander A. Auer      : GIAO ZORA, VPT2
   Ute Becker             : Parallelization
   Giovanni Bistoni       : ED, misc. LED, open-shell LED, HFLED
   Martin Brehm           : Molecular dynamics
   Dmytro Bykov           : SCF Hessian
   Vijay G. Chilkuri      : MRCI spin determinant printing, contributions to CSF-ICE
   Dipayan Datta          : RHF DLPNO-CCSD density
   Achintya Kumar Dutta   : EOM-CC, STEOM-CC
   Dmitry Ganyushin       : Spin-Orbit,Spin-Spin,Magnetic field MRCI
   Miquel Garcia          : C-PCM Hessian, Gaussian charge scheme
   Yang Guo               : DLPNO-NEVPT2, CIM, IAO-localization
   Andreas Hansen         : Spin unrestricted coupled pair/coupled cluster methods
   Benjamin Helmich-Paris : CASSCF linear response (MC-RPA)
   Lee Huntington         : MR-EOM, pCC
   Robert Izsak           : Overlap fitted RIJCOSX, COSX-SCS-MP3, EOM
   Christian Kollmar      : KDIIS, OOCD, Brueckner-CCSD(T), CCSD density
   Simone Kossmann        : Meta GGA functionals, TD-DFT gradient, OOMP2, MP2 Hessian
   Martin Krupicka        : AUTO-CI
   Lucas Lang             : DCDCAS
   Dagmar Lenk            : GEPOL surface, SMD
   Dimitrios Liakos       : Extrapolation schemes; Compound Job, initial MDCI parallelization
   Dimitrios Manganas     : Further ROCIS development; embedding schemes
   Dimitrios Pantazis     : SARC Basis sets
   Taras Petrenko         : DFT Hessian,TD-DFT gradient, ASA, ECA, R-Raman, ABS, FL, XAS/XES, NRVS
   Peter Pinski           : DLPNO-MP2, DLPNO-MP2 Gradient
   Christoph Reimann      : Effective Core Potentials
   Marius Retegan         : Local ZFS, SOC
   Christoph Riplinger    : Optimizer, TS searches, QM/MM, DLPNO-CCSD(T), (RO)-DLPNO pert. Triples
   Tobias Risthaus        : Range-separated hybrids, TD-DFT gradient, RPA, STAB
   Michael Roemelt        : Original ROCIS implementation
   Masaaki Saitow         : Open-shell DLPNO-CCSD energy and density
   Barbara Sandhoefer     : DKH picture change effects
   Avijit Sen             : IP-ROCIS
   Kantharuban Sivalingam : CASSCF convergence, NEVPT2, FIC-MRCI
   Bernardo de Souza      : ESD, SOC TD-DFT
   Georgi Stoychev        : AutoAux, RI-MP2 NMR
   Willem Van den Heuvel  : Paramagnetic NMR
   Boris Wezisla          : Elementary symmetry handling
   Frank Wennmohs         : Technical directorship


 We gratefully acknowledge several colleagues who have allowed us to
 interface, adapt or use parts of their codes:
   Stefan Grimme, W. Hujo, H. Kruse,             : VdW corrections, initial TS optimization,
                  C. Bannwarth                     DFT functionals, gCP, sTDA/sTD-DF
   Ed Valeev, F. Pavosevic, A. Kumar             : LibInt (2-el integral package), F12 methods
   Garnet Chan, S. Sharma, J. Yang, R. Olivares  : DMRG
   Ulf Ekstrom                                   : XCFun DFT Library
   Mihaly Kallay                                 : mrcc  (arbitrary order and MRCC methods)
   Andreas Klamt, Michael Diedenhofen            : otool_cosmo (COSMO solvation model)
   Jiri Pittner, Ondrej Demel                    : Mk-CCSD
   Frank Weinhold                                : gennbo (NPA and NBO analysis)
   Christopher J. Cramer and Donald G. Truhlar   : smd solvation model
   Lars Goerigk                                  : TD-DFT with DH, B97 family of functionals
   V. Asgeirsson, H. Jonsson                     : NEB implementation
   FAccTs GmbH                                   : IRC, NEB, NEB-TS, Multilevel, MM, QM/MM, CI optimization
   S Lehtola, MJT Oliveira, MAL Marques          : LibXC Library


 Your calculation uses the libint2 library for the computation of 2-el integrals
 For citations please refer to: http://libint.valeyev.net

 Your ORCA version has been built with support for libXC version: 4.2.3
 For citations please refer to: https://tddft.org/programs/libxc/

 This ORCA versions uses:
   CBLAS   interface :  Fast vector & matrix operations
   LAPACKE interface :  Fast linear algebra routines
   SCALAPACK package :  Parallel linear algebra routines


----- Orbital basis set information -----
Your calculation utilizes the basis: def2-QZVPPD
   F. Weigend and R. Ahlrichs, Phys. Chem. Chem. Phys. 7, 3297 (2005).
   D. Rappoport and F. Furche, J. Chem. Phys. 133 134105 (2010).

================================================================================
                                        WARNINGS
                       Please study these warnings very carefully!
================================================================================


WARNING: your system is open-shell and RHF/RKS was chosen
  ===> : WILL SWITCH to UHF/UKS


WARNING: MDCI localization with Augmented Hessian Foster-Boys
  ===> : Switching off randomization!

WARNING: Post HF methods need fully converged wavefunctions
  ===> : Setting SCFConvForced true
         You can overwrite this default with %scf ConvForced false 


INFO   : the flag for use of LIBINT has been found!

================================================================================
                                       INPUT FILE
================================================================================
NAME = 33_As.in
|  1> #
|  2> # 33_As CCSD(T)/Def2-QZVPPD
|  3> #
|  4> ! CCSD(T) Def2-QZVPPD tightscf
|  5> 
|  6> *xyz 0 4
|  7>  As 0.0 0.0 0.0
|  8> *
|  9> 
| 10> %maxcore 5000 
| 11> 
| 12> %pal
| 13> nprocs 24
| 14> end
| 15> 
| 16> 
| 17>                          ****END OF INPUT****
================================================================================

                       ****************************
                       * Single Point Calculation *
                       ****************************

---------------------------------
CARTESIAN COORDINATES (ANGSTROEM)
---------------------------------
  As     0.000000    0.000000    0.000000

----------------------------
CARTESIAN COORDINATES (A.U.)
----------------------------
  NO LB      ZA    FRAG     MASS         X           Y           Z
   0 As   33.0000    0    74.920    0.000000    0.000000    0.000000

--------------------------------
INTERNAL COORDINATES (ANGSTROEM)
--------------------------------
 As     0   0   0     0.000000000000     0.00000000     0.00000000

---------------------------
INTERNAL COORDINATES (A.U.)
---------------------------
 As     0   0   0     0.000000000000     0.00000000     0.00000000

---------------------
BASIS SET INFORMATION
---------------------
There are 1 groups of distinct atoms

 Group   1 Type As  : 25s20p11d4f1g contracted to 12s7p5d4f1g pattern {1141111111111/10511111/71111/1111/1}

Atom   0As   basis set group =>   1


           ************************************************************
           *        Program running with 24 parallel MPI-processes    *
           *              working on a common directory               *
           ************************************************************
------------------------------------------------------------------------------
                           ORCA GTO INTEGRAL CALCULATION
------------------------------------------------------------------------------

                         BASIS SET STATISTICS AND STARTUP INFO

 # of primitive gaussian shells          ...   61
 # of primitive gaussian functions       ...  177
 # of contracted shells                  ...   29
 # of contracted basis functions         ...   95
 Highest angular momentum                ...    4
 Maximum contraction depth               ...   11
 Integral package used                   ... LIBINT
 Integral threshhold            Thresh   ...  2.500e-11
 Primitive cut-off              TCut     ...  2.500e-12


------------------------------ INTEGRAL EVALUATION ----------------------------


 * One electron integrals 
 Pre-screening matrix                    ... done
 Shell pair data                         ... done (   0.000 sec)



           ************************************************************
           *        Program running with 24 parallel MPI-processes    *
           *              working on a common directory               *
           ************************************************************
-------------------------------------------------------------------------------
                                 ORCA SCF
-------------------------------------------------------------------------------

------------
SCF SETTINGS
------------
Hamiltonian:
 Ab initio Hamiltonian  Method          .... Hartree-Fock(GTOs)


General Settings:
 Integral files         IntName         .... 33_As
 Hartree-Fock type      HFTyp           .... UHF
 Total Charge           Charge          ....    0
 Multiplicity           Mult            ....    4
 Number of Electrons    NEL             ....   33
 Basis Dimension        Dim             ....   95
 Nuclear Repulsion      ENuc            ....      0.0000000000 Eh

Convergence Acceleration:
 DIIS                   CNVDIIS         .... on
   Start iteration      DIISMaxIt       ....    12
   Startup error        DIISStart       ....  0.200000
   # of expansion vecs  DIISMaxEq       ....     5
   Bias factor          DIISBfac        ....   1.050
   Max. coefficient     DIISMaxC        ....  10.000
 Newton-Raphson         CNVNR           .... off
 SOSCF                  CNVSOSCF        .... off
 Level Shifting         CNVShift        .... on
   Level shift para.    LevelShift      ....    0.2500
   Turn off err/grad.   ShiftErr        ....    0.0010
 Zerner damping         CNVZerner       .... off
 Static damping         CNVDamp         .... on
   Fraction old density DampFac         ....    0.7000
   Max. Damping (<1)    DampMax         ....    0.9800
   Min. Damping (>=0)   DampMin         ....    0.0000
   Turn off err/grad.   DampErr         ....    0.1000
 Fernandez-Rico         CNVRico         .... off

SCF Procedure:
 Maximum # iterations   MaxIter         ....   125
 SCF integral mode      SCFMode         .... Direct
   Integral package                     .... LIBINT
 Reset frequency        DirectResetFreq ....    20
 Integral Threshold     Thresh          ....  2.500e-11 Eh
 Primitive CutOff       TCut            ....  2.500e-12 Eh

Convergence Tolerance:
 Convergence Check Mode ConvCheckMode   .... Total+1el-Energy
 Convergence forced     ConvForced      .... 1
 Energy Change          TolE            ....  1.000e-08 Eh
 1-El. energy change                    ....  1.000e-05 Eh
 DIIS Error             TolErr          ....  5.000e-07


Diagonalization of the overlap matrix:
Smallest eigenvalue                        ... 8.505e-04
Time for diagonalization                   ...    0.003 sec
Threshold for overlap eigenvalues          ... 1.000e-08
Number of eigenvalues below threshold      ... 0
Time for construction of square roots      ...    0.013 sec
Total time needed                          ...    0.016 sec

-------------------
DFT GRID GENERATION
-------------------

General Integration Accuracy     IntAcc      ...  4.340
Radial Grid Type                 RadialGrid  ... Gauss-Chebyshev
Angular Grid (max. acc.)         AngularGrid ... Lebedev-110
Angular grid pruning method      GridPruning ... 3 (G Style)
Weight generation scheme         WeightScheme... Becke
Basis function cutoff            BFCut       ...    1.0000e-11
Integration weight cutoff        WCut        ...    1.0000e-14
Grids for H and He will be reduced by one unit

# of grid points (after initial pruning)     ...   2912 (   0.0 sec)
# of grid points (after weights+screening)   ...   2912 (   0.0 sec)
Grid point division into batches done        ...    0.0 sec
Reduced shell lists constructed in    0.0 sec

Total number of grid points                  ...     2912
Total number of batches                      ...       46
Average number of points per batch           ...       63
Average number of grid points per atom       ...     2912
Average number of shells per batch           ...     8.67 (29.89%)
Average number of basis functions per batch  ...    34.00 (35.79%)
Average number of large shells per batch     ...     7.33 (84.62%)
Average number of large basis fcns per batch ...    28.67 (84.31%)
Maximum spatial batch extension              ...  14.23, 21.55, 21.55 au
Average spatial batch extension              ...   0.62,  0.94,  0.94 au

Time for grid setup =    0.057 sec

------------------------------
INITIAL GUESS: MODEL POTENTIAL
------------------------------
Loading Hartree-Fock densities                     ... done
Calculating cut-offs                               ... done
Setting up the integral package                    ... done
Initializing the effective Hamiltonian             ... done
Starting the Coulomb interaction                   ... done (   0.0 sec)
Reading the grid                                   ... done
Mapping shells                                     ... done
Starting the XC term evaluation                    ... done (   0.0 sec)
Transforming the Hamiltonian                       ... done (   0.0 sec)
Diagonalizing the Hamiltonian                      ... done (   0.0 sec)
Back transforming the eigenvectors                 ... done (   0.0 sec)
Now organizing SCF variables                       ... done
                      ------------------
                      INITIAL GUESS DONE (   0.2 sec)
                      ------------------
--------------
SCF ITERATIONS
--------------
ITER       Energy         Delta-E        Max-DP      RMS-DP      [F,P]     Damp
               ***  Starting incremental Fock matrix formation  ***
  0  -2234.1917190626   0.000000000000 0.01269407  0.00038215  0.8526734 0.7000
  1  -2234.2067823047  -0.015063242092 0.01244652  0.00030050  0.5958787 0.7000
  2  -2234.2163726977  -0.009590393079 0.01085847  0.00023530  0.4167672 0.7000
  3  -2234.2229727350  -0.006600037309 0.00907857  0.00018708  0.2917662 0.7000
  4  -2234.2276475000  -0.004674764969 0.00739518  0.00014900  0.2044011 0.7000
                               ***Turning on DIIS***
  5  -2234.2309811958  -0.003333695813 0.00592840  0.00011845  0.1432721 0.7000
  6  -2234.1896992972   0.041281898592 0.00557810  0.00010781  0.1004652 0.7000
  7  -2234.2144050611  -0.024705763901 0.01483553  0.00029540  0.0704243 0.0000
  8  -2234.2390252561  -0.024620194921 0.00164938  0.00003462  0.0011786 0.0000
  9  -2234.2378726542   0.001152601872 0.00122350  0.00002452  0.0005168 0.0000
 10  -2234.2382481087  -0.000375454521 0.00048581  0.00000827  0.0001418 0.0000
 11  -2234.2394650087  -0.001216900001 0.00013011  0.00000214  0.0000549 0.0000
 12  -2234.2390437420   0.000421266673 0.00003473  0.00000063  0.0000051 0.0000
 13  -2234.2391338888  -0.000090146724 0.00000679  0.00000017  0.0000011 0.0000
                            ***DIIS convergence achieved***

               *****************************************************
               *                     SUCCESS                       *
               *           SCF CONVERGED AFTER  14 CYCLES          *
               *****************************************************


----------------
TOTAL SCF ENERGY
----------------

Total Energy       :        -2234.23914389 Eh          -60796.73795 eV

Components:
Nuclear Repulsion  :            0.00000000 Eh               0.00000 eV
Electronic Energy  :        -2234.23914389 Eh          -60796.73795 eV
One Electron Energy:        -3114.80535306 Eh          -84758.16268 eV
Two Electron Energy:          880.56620916 Eh           23961.42473 eV

Virial components:
Potential Energy   :        -4468.47337783 Eh         -121593.34230 eV
Kinetic Energy     :         2234.23423393 Eh           60796.60434 eV
Virial Ratio       :            2.00000220


---------------
SCF CONVERGENCE
---------------

  Last Energy change         ...   -1.0004e-05  Tolerance :   1.0000e-08
  Last MAX-Density change    ...    1.4401e-06  Tolerance :   1.0000e-07
  Last RMS-Density change    ...    3.9731e-08  Tolerance :   5.0000e-09
  Last DIIS Error            ...    2.1513e-07  Tolerance :   5.0000e-07

             **** THE GBW FILE WAS UPDATED (33_As.gbw) ****
             **** DENSITY FILE WAS UPDATED (33_As.scfp) ****
             **** ENERGY FILE WAS UPDATED (33_As.en.tmp) ****
----------------------
UHF SPIN CONTAMINATION
----------------------

Expectation value of <S**2>     :     3.751093
Ideal value S*(S+1) for S=1.5   :     3.750000
Deviation                       :     0.001093

             **** THE GBW FILE WAS UPDATED (33_As.gbw) ****
             **** DENSITY FILE WAS UPDATED (33_As.scfp) ****
----------------
ORBITAL ENERGIES
----------------
                 SPIN UP ORBITALS
  NO   OCC          E(Eh)            E(eV) 
   0   1.0000    -432.591166    -11771.4041 
   1   1.0000     -56.312150     -1532.3315 
   2   1.0000     -50.158785     -1364.8899 
   3   1.0000     -50.158785     -1364.8899 
   4   1.0000     -50.158785     -1364.8899 
   5   1.0000      -8.036555      -218.6858 
   6   1.0000      -5.890702      -160.2941 
   7   1.0000      -5.890702      -160.2941 
   8   1.0000      -5.890702      -160.2941 
   9   1.0000      -2.117360       -57.6163 
  10   1.0000      -2.117360       -57.6163 
  11   1.0000      -2.117360       -57.6163 
  12   1.0000      -2.117360       -57.6163 
  13   1.0000      -2.117360       -57.6163 
  14   1.0000      -0.815558       -22.1924 
  15   1.0000      -0.370152       -10.0723 
  16   1.0000      -0.370152       -10.0723 
  17   1.0000      -0.370152       -10.0723 
  18   0.0000       0.066297         1.8040 
  19   0.0000       0.159570         4.3421 
  20   0.0000       0.159570         4.3421 
  21   0.0000       0.159570         4.3421 
  22   0.0000       0.159570         4.3421 
  23   0.0000       0.159570         4.3421 
  24   0.0000       0.215204         5.8560 
  25   0.0000       0.215204         5.8560 
  26   0.0000       0.215204         5.8560 
  27   0.0000       0.382621        10.4117 
  28   0.0000       0.469022        12.7627 
  29   0.0000       0.469022        12.7627 
  30   0.0000       0.469022        12.7627 
  31   0.0000       0.469022        12.7627 
  32   0.0000       0.469022        12.7627 
  33   0.0000       0.916373        24.9358 
  34   0.0000       0.916373        24.9358 
  35   0.0000       0.916373        24.9358 
  36   0.0000       0.916373        24.9358 
  37   0.0000       0.916373        24.9358 
  38   0.0000       0.916373        24.9358 
  39   0.0000       0.916373        24.9358 
  40   0.0000       1.019726        27.7482 
  41   0.0000       1.019726        27.7482 
  42   0.0000       1.019726        27.7482 
  43   0.0000       1.438410        39.1411 
  44   0.0000       1.438410        39.1411 
  45   0.0000       1.438410        39.1411 
  46   0.0000       1.438410        39.1411 
  47   0.0000       1.438410        39.1411 
  48   0.0000       1.448334        39.4112 
  49   0.0000       2.459140        66.9166 
  50   0.0000       2.459140        66.9166 
  51   0.0000       2.459140        66.9166 
  52   0.0000       2.459140        66.9166 
  53   0.0000       2.459140        66.9166 
  54   0.0000       2.459140        66.9166 
  55   0.0000       2.459140        66.9166 
  56   0.0000       2.529142        68.8215 
  57   0.0000       2.529142        68.8215 
  58   0.0000       2.529142        68.8215 
  59   0.0000       2.529142        68.8215 
  60   0.0000       2.529142        68.8215 
  61   0.0000       2.529142        68.8215 
  62   0.0000       2.529142        68.8215 
  63   0.0000       2.529142        68.8215 
  64   0.0000       2.529142        68.8215 
  65   0.0000       3.592615        97.7600 
  66   0.0000       3.592615        97.7600 
  67   0.0000       3.592615        97.7600 
  68   0.0000       4.327260       117.7507 
  69   0.0000       4.327260       117.7507 
  70   0.0000       4.327260       117.7507 
  71   0.0000       4.327260       117.7507 
  72   0.0000       4.327260       117.7507 
  73   0.0000       6.019874       163.8091 
  74   0.0000       8.361323       227.5232 
  75   0.0000       8.361323       227.5232 
  76   0.0000       8.361323       227.5232 
  77   0.0000       8.361323       227.5232 
  78   0.0000       8.361323       227.5232 
  79   0.0000       8.361323       227.5232 
  80   0.0000       8.361323       227.5232 
  81   0.0000      12.276580       334.0627 
  82   0.0000      12.276580       334.0627 
  83   0.0000      12.276580       334.0627 
  84   0.0000      22.441357       610.6604 
  85   0.0000      28.877600       785.7994 
  86   0.0000      28.877600       785.7994 
  87   0.0000      28.877600       785.7994 
  88   0.0000      28.877600       785.7994 
  89   0.0000      28.877600       785.7994 
  90   0.0000      28.877600       785.7994 
  91   0.0000      28.877600       785.7994 
  92   0.0000      73.701519      2005.5203 
  93   0.0000     246.751747      6714.4564 
  94   0.0000    1436.592088     39091.6581 

                 SPIN DOWN ORBITALS
  NO   OCC          E(Eh)            E(eV) 
   0   1.0000    -432.583207    -11771.1875 
   1   1.0000     -56.309179     -1532.2507 
   2   1.0000     -50.150604     -1364.6673 
   3   1.0000     -50.150604     -1364.6673 
   4   1.0000     -50.150604     -1364.6673 
   5   1.0000      -8.022347      -218.2992 
   6   1.0000      -5.870368      -159.7408 
   7   1.0000      -5.870368      -159.7408 
   8   1.0000      -5.870368      -159.7408 
   9   1.0000      -2.107630       -57.3515 
  10   1.0000      -2.107630       -57.3515 
  11   1.0000      -2.107630       -57.3515 
  12   1.0000      -2.107630       -57.3515 
  13   1.0000      -2.107630       -57.3515 
  14   1.0000      -0.555995       -15.1294 
  15   0.0000       0.038089         1.0365 
  16   0.0000       0.038089         1.0365 
  17   0.0000       0.038089         1.0365 
  18   0.0000       0.078950         2.1483 
  19   0.0000       0.184665         5.0250 
  20   0.0000       0.184665         5.0250 
  21   0.0000       0.184665         5.0250 
  22   0.0000       0.184665         5.0250 
  23   0.0000       0.184665         5.0250 
  24   0.0000       0.274803         7.4778 
  25   0.0000       0.274803         7.4778 
  26   0.0000       0.274803         7.4778 
  27   0.0000       0.418847        11.3974 
  28   0.0000       0.559031        15.2120 
  29   0.0000       0.559031        15.2120 
  30   0.0000       0.559031        15.2120 
  31   0.0000       0.559031        15.2120 
  32   0.0000       0.559031        15.2120 
  33   0.0000       0.977629        26.6026 
  34   0.0000       0.977629        26.6026 
  35   0.0000       0.977629        26.6026 
  36   0.0000       0.977629        26.6026 
  37   0.0000       0.977629        26.6026 
  38   0.0000       0.977629        26.6026 
  39   0.0000       0.977629        26.6026 
  40   0.0000       1.082082        29.4450 
  41   0.0000       1.082082        29.4450 
  42   0.0000       1.082082        29.4450 
  43   0.0000       1.492571        40.6149 
  44   0.0000       1.507506        41.0213 
  45   0.0000       1.507506        41.0213 
  46   0.0000       1.507506        41.0213 
  47   0.0000       1.507506        41.0213 
  48   0.0000       1.507506        41.0213 
  49   0.0000       2.509032        68.2742 
  50   0.0000       2.509032        68.2742 
  51   0.0000       2.509032        68.2742 
  52   0.0000       2.509032        68.2742 
  53   0.0000       2.509032        68.2742 
  54   0.0000       2.509032        68.2742 
  55   0.0000       2.509032        68.2742 
  56   0.0000       2.580917        70.2303 
  57   0.0000       2.580917        70.2303 
  58   0.0000       2.580917        70.2303 
  59   0.0000       2.580917        70.2303 
  60   0.0000       2.580917        70.2303 
  61   0.0000       2.580917        70.2303 
  62   0.0000       2.580917        70.2303 
  63   0.0000       2.580917        70.2303 
  64   0.0000       2.580917        70.2303 
  65   0.0000       3.630851        98.8005 
  66   0.0000       3.630851        98.8005 
  67   0.0000       3.630851        98.8005 
  68   0.0000       4.352634       118.4412 
  69   0.0000       4.352634       118.4412 
  70   0.0000       4.352634       118.4412 
  71   0.0000       4.352634       118.4412 
  72   0.0000       4.352634       118.4412 
  73   0.0000       6.043383       164.4488 
  74   0.0000       8.366268       227.6577 
  75   0.0000       8.366268       227.6577 
  76   0.0000       8.366268       227.6577 
  77   0.0000       8.366268       227.6577 
  78   0.0000       8.366268       227.6577 
  79   0.0000       8.366268       227.6577 
  80   0.0000       8.366268       227.6577 
  81   0.0000      12.294308       334.5451 
  82   0.0000      12.294308       334.5451 
  83   0.0000      12.294308       334.5451 
  84   0.0000      22.451332       610.9318 
  85   0.0000      28.884337       785.9828 
  86   0.0000      28.884337       785.9828 
  87   0.0000      28.884337       785.9828 
  88   0.0000      28.884337       785.9828 
  89   0.0000      28.884337       785.9828 
  90   0.0000      28.884337       785.9828 
  91   0.0000      28.884337       785.9828 
  92   0.0000      73.707136      2005.6731 
  93   0.0000     246.755918      6714.5699 
  94   0.0000    1436.594078     39091.7122 

                    ********************************
                    * MULLIKEN POPULATION ANALYSIS *
                    ********************************

--------------------------------------------
MULLIKEN ATOMIC CHARGES AND SPIN POPULATIONS
--------------------------------------------
   0 As:    0.000000    3.000000
Sum of atomic charges         :    0.0000000
Sum of atomic spin populations:    3.0000000

-----------------------------------------------------
MULLIKEN REDUCED ORBITAL CHARGES AND SPIN POPULATIONS
-----------------------------------------------------
CHARGE
  0 Ass       :     8.000000  s :     8.000000
      pz      :     5.000000  p :    15.000000
      px      :     5.000000
      py      :     5.000000
      dz2     :     2.000000  d :    10.000000
      dxz     :     2.000000
      dyz     :     2.000000
      dx2y2   :     2.000000
      dxy     :     2.000000
      f0      :     0.000000  f :     0.000000
      f+1     :     0.000000
      f-1     :     0.000000
      f+2     :     0.000000
      f-2     :     0.000000
      f+3     :     0.000000
      f-3     :     0.000000
      g0      :     0.000000  g :     0.000000
      g+1     :     0.000000
      g-1     :     0.000000
      g+2     :     0.000000
      g-2     :     0.000000
      g+3     :     0.000000
      g-3     :     0.000000
      g+4     :     0.000000
      g-4     :     0.000000

SPIN
  0 Ass       :     0.000000  s :     0.000000
      pz      :     1.000000  p :     3.000000
      px      :     1.000000
      py      :     1.000000
      dz2     :     0.000000  d :     0.000000
      dxz     :     0.000000
      dyz     :     0.000000
      dx2y2   :     0.000000
      dxy     :     0.000000
      f0      :     0.000000  f :     0.000000
      f+1     :     0.000000
      f-1     :     0.000000
      f+2     :    -0.000000
      f-2     :    -0.000000
      f+3     :     0.000000
      f-3     :     0.000000
      g0      :    -0.000000  g :    -0.000000
      g+1     :     0.000000
      g-1     :     0.000000
      g+2     :     0.000000
      g-2     :     0.000000
      g+3     :     0.000000
      g-3     :     0.000000
      g+4     :    -0.000000
      g-4     :     0.000000


                     *******************************
                     * LOEWDIN POPULATION ANALYSIS *
                     *******************************

-------------------------------------------
LOEWDIN ATOMIC CHARGES AND SPIN POPULATIONS
-------------------------------------------
   0 As:    0.000000    3.000000

----------------------------------------------------
LOEWDIN REDUCED ORBITAL CHARGES AND SPIN POPULATIONS
----------------------------------------------------
CHARGE
  0 Ass       :     8.000000  s :     8.000000
      pz      :     5.000000  p :    15.000000
      px      :     5.000000
      py      :     5.000000
      dz2     :     2.000000  d :    10.000000
      dxz     :     2.000000
      dyz     :     2.000000
      dx2y2   :     2.000000
      dxy     :     2.000000
      f0      :     0.000000  f :     0.000000
      f+1     :     0.000000
      f-1     :     0.000000
      f+2     :     0.000000
      f-2     :     0.000000
      f+3     :     0.000000
      f-3     :     0.000000
      g0      :     0.000000  g :     0.000000
      g+1     :     0.000000
      g-1     :     0.000000
      g+2     :     0.000000
      g-2     :     0.000000
      g+3     :     0.000000
      g-3     :     0.000000
      g+4     :     0.000000
      g-4     :     0.000000

SPIN
  0 Ass       :     0.000000  s :     0.000000
      pz      :     1.000000  p :     3.000000
      px      :     1.000000
      py      :     1.000000
      dz2     :     0.000000  d :     0.000000
      dxz     :     0.000000
      dyz     :     0.000000
      dx2y2   :     0.000000
      dxy     :     0.000000
      f0      :     0.000000  f :     0.000000
      f+1     :     0.000000
      f-1     :     0.000000
      f+2     :    -0.000000
      f-2     :    -0.000000
      f+3     :     0.000000
      f-3     :     0.000000
      g0      :    -0.000000  g :    -0.000000
      g+1     :     0.000000
      g-1     :     0.000000
      g+2     :     0.000000
      g-2     :     0.000000
      g+3     :     0.000000
      g-3     :     0.000000
      g+4     :    -0.000000
      g-4     :     0.000000


                      *****************************
                      * MAYER POPULATION ANALYSIS *
                      *****************************

  NA   - Mulliken gross atomic population
  ZA   - Total nuclear charge
  QA   - Mulliken gross atomic charge
  VA   - Mayer's total valence
  BVA  - Mayer's bonded valence
  FA   - Mayer's free valence

  ATOM       NA         ZA         QA         VA         BVA        FA
  0 As    33.0000    33.0000     0.0000     3.0022     0.0000     3.0022

  Mayer bond orders larger than 0.100000


-------
TIMINGS
-------

Total SCF time: 0 days 0 hours 0 min 4 sec 

Total time                  ....       4.439 sec
Sum of individual times     ....       4.004 sec  ( 90.2%)

Fock matrix formation       ....       3.369 sec  ( 75.9%)
Diagonalization             ....       0.103 sec  (  2.3%)
Density matrix formation    ....       0.011 sec  (  0.2%)
Population analysis         ....       0.077 sec  (  1.7%)
Initial guess               ....       0.117 sec  (  2.6%)
Orbital Transformation      ....       0.000 sec  (  0.0%)
Orbital Orthonormalization  ....       0.000 sec  (  0.0%)
DIIS solution               ....       0.271 sec  (  6.1%)


           ************************************************************
           *        Program running with 24 parallel MPI-processes    *
           *              working on a common directory               *
           ************************************************************


------------------------------------------------------------------------------- 
                              ORCA-MATRIX DRIVEN CI                            
------------------------------------------------------------------------------- 

--------------------------------
AUTOMATIC CHOICE OF INCORE LEVEL
--------------------------------

Memory available                           ...   2500.00 MB
Memory needed for S+T                      ...      6.11 MB
Memory needed for J+K                      ...     12.27 MB
Memory needed for DIIS                     ...     85.49 MB
Memory needed for 3-ext                    ...     31.35 MB
Memory needed for 4-ext                    ...    135.84 MB
Memory needed for triples                  ...     17.42 MB
 -> Final InCoreLevel    ... 5
 -> check shows that triples correction can be computed


Wavefunction type
-----------------
Correlation treatment                      ...      CCSD     
Single excitations                         ... ON
Orbital optimization                       ... OFF
Calculation of Z vector                    ... OFF
Calculation of Brueckner orbitals          ... OFF
Perturbative triple excitations            ... ON
Calculation of F12 correction              ... OFF
Frozen core treatment                      ... chemical core (18 el)
Reference Wavefunction                     ... UHF
  Alpha-MOs occ    :     9 ...   17 (  9 MO's/  9 electrons)
  Beta-MOs occ     :     9 ...   14 (  6 MO's/  6 electrons)
  Alpha-MOs virt   :    18 ...   94 ( 77 MO's              )
  Beta-MOs virt    :    15 ...   94 ( 80 MO's              )
Number of AO's                             ...     95
Number of electrons                        ...     33
Number of correlated electrons             ...     15

Algorithmic settings
--------------------
Integral transformation                    ... AO direct full transformation
K(C) Formation                             ... FULL-MO TRAFO
Maximum number of iterations               ...        50
Convergence tolerance (max. residuum)      ... 1.000e-05
Level shift for amplitude update           ... 2.000e-01
Maximum number of DIIS vectors             ...         7
DIIS turned on at iteration                ...         0
Damping before turning on DIIS             ...     0.500
Damping after turning on DIIS              ...     0.000
Pair specific amplitude update             ... OFF
Natural orbital iterations                 ... OFF
Perturbative natural orbital generation    ... OFF
Printlevel                                 ... 2

Memory handling:
----------------
Maximum memory for working arrays          ...   2500 MB
Data storage in matrix containers          ... UNCOMPRESSED
Data type for integral storage             ... DOUBLE
In-Core Storage of quantities:
   Amplitudes+Sigma Vector      ... YES
   J+K operators                ... YES
   DIIS vectors                 ... YES
   3-external integrals         ... YES
   4-external integrals         ... YES


Initializing the integral package          ... done
Warning: reference  - re-canonicalizations have been set to INT 1 VIRT 1

--------------------------
UNRESTRICTED FOCK OPERATOR
--------------------------

<ss|ss>:         3081 b            0 skpd (  0.0%)    0.002 s ( 0.001 ms/b)
<ss|sp>:         6552 b            0 skpd (  0.0%)    0.004 s ( 0.001 ms/b)
<ss|sd>:         4680 b            0 skpd (  0.0%)    0.003 s ( 0.001 ms/b)
<ss|sf>:         3744 b            0 skpd (  0.0%)    0.001 s ( 0.000 ms/b)
<ss|sg>:          936 b            0 skpd (  0.0%)    0.001 s ( 0.001 ms/b)
<ss|pp>:         2184 b            0 skpd (  0.0%)    0.005 s ( 0.002 ms/b)
<ss|pd>:         2730 b            0 skpd (  0.0%)    0.004 s ( 0.002 ms/b)
<ss|pf>:         2184 b            0 skpd (  0.0%)    0.001 s ( 0.000 ms/b)
<ss|pg>:          546 b            0 skpd (  0.0%)    0.001 s ( 0.002 ms/b)
<ss|dd>:         1170 b            0 skpd (  0.0%)    0.003 s ( 0.003 ms/b)
<ss|df>:         1560 b            0 skpd (  0.0%)    0.001 s ( 0.001 ms/b)
<ss|dg>:          390 b            0 skpd (  0.0%)    0.001 s ( 0.003 ms/b)
<ss|ff>:          780 b            0 skpd (  0.0%)    0.000 s ( 0.000 ms/b)
<ss|fg>:          312 b            0 skpd (  0.0%)    0.000 s ( 0.002 ms/b)
<ss|gg>:           78 b            0 skpd (  0.0%)    0.001 s ( 0.008 ms/b)
<sp|sp>:         3570 b            0 skpd (  0.0%)    0.005 s ( 0.001 ms/b)
<sp|sd>:         5040 b            6 skpd (  0.1%)    0.005 s ( 0.001 ms/b)
<sp|sf>:         4032 b           13 skpd (  0.3%)    0.001 s ( 0.000 ms/b)
<sp|sg>:         1008 b           31 skpd (  3.1%)    0.002 s ( 0.002 ms/b)
<sp|pp>:         2352 b            0 skpd (  0.0%)    0.008 s ( 0.003 ms/b)
<sp|pd>:         2940 b            0 skpd (  0.0%)    0.009 s ( 0.003 ms/b)
<sp|pf>:         2352 b            0 skpd (  0.0%)    0.002 s ( 0.001 ms/b)
<sp|pg>:          588 b            0 skpd (  0.0%)    0.003 s ( 0.005 ms/b)
<sp|dd>:         1260 b            0 skpd (  0.0%)    0.009 s ( 0.007 ms/b)
<sp|df>: done
<sp|dg>: done
<sp|ff>: done
<sp|fg>: done
<sp|gg>: done
<sd|sd>:         1830 b           26 skpd (  1.4%)    0.003 s ( 0.002 ms/b)
<sd|sf>:         2880 b           59 skpd (  2.0%)    0.001 s ( 0.001 ms/b)
<sd|sg>:          720 b           62 skpd (  8.6%)    0.001 s ( 0.002 ms/b)
<sd|pp>:         1680 b            0 skpd (  0.0%)    0.008 s ( 0.005 ms/b)
<sd|pd>:         2100 b          165 skpd (  7.9%)    0.011 s ( 0.005 ms/b)
<sd|pf>: done
<sd|pg>: done
<sd|dd>:          900 b           18 skpd (  2.0%)    0.012 s ( 0.013 ms/b)
<sd|df>:         1200 b           85 skpd (  7.1%)    0.003 s ( 0.003 ms/b)
<sd|dg>:          300 b           15 skpd (  5.0%)    0.005 s ( 0.018 ms/b)
<sd|ff>: done
<sd|fg>: done
<sd|gg>: done
<sf|sf>:         1176 b           31 skpd (  2.6%)    0.001 s ( 0.001 ms/b)
<sf|sg>:          576 b           55 skpd (  9.5%)    0.001 s ( 0.002 ms/b)
<sf|pp>:         1344 b            0 skpd (  0.0%)    0.007 s ( 0.005 ms/b)
<sf|pd>: done
<sf|pf>: done
<sf|pg>: done
<sf|dd>:          720 b           22 skpd (  3.1%)    0.010 s ( 0.015 ms/b)
<sf|df>: done
<sf|dg>: done
<sf|ff>: done
<sf|fg>: done
<sf|gg>: done
<sg|sg>:           78 b           18 skpd ( 23.1%)    0.000 s ( 0.003 ms/b)
<sg|pp>:          336 b            0 skpd (  0.0%)    0.003 s ( 0.010 ms/b)
<sg|pd>: done
<sg|pf>: done
<sg|pg>: done
<sg|dd>:          180 b           21 skpd ( 11.7%)    0.005 s ( 0.031 ms/b)
<sg|df>: done
<sg|dg>: done
<sg|ff>: done
<sg|fg>: done
<sg|gg>: done
<pp|pp>:          406 b            0 skpd (  0.0%)    0.008 s ( 0.020 ms/b)
<pp|pd>:          980 b            0 skpd (  0.0%)    0.011 s ( 0.011 ms/b)
<pp|pf>:          784 b            0 skpd (  0.0%)    0.003 s ( 0.004 ms/b)
<pp|pg>:          196 b            0 skpd (  0.0%)    0.004 s ( 0.020 ms/b)
<pp|dd>:          420 b            0 skpd (  0.0%)    0.012 s ( 0.029 ms/b)
<pp|df>:          560 b            0 skpd (  0.0%)    0.003 s ( 0.006 ms/b)
<pp|dg>:          140 b            0 skpd (  0.0%)    0.005 s ( 0.037 ms/b)
<pp|ff>:          280 b            0 skpd (  0.0%)    0.001 s ( 0.005 ms/b)
<pp|fg>:          112 b            0 skpd (  0.0%)    0.002 s ( 0.016 ms/b)
<pp|gg>:           28 b            0 skpd (  0.0%)    0.003 s ( 0.090 ms/b)
<pd|pd>:          630 b            0 skpd (  0.0%)    0.015 s ( 0.023 ms/b)
<pd|pf>:          980 b            0 skpd (  0.0%)    0.005 s ( 0.005 ms/b)
<pd|pg>:          245 b            0 skpd (  0.0%)    0.008 s ( 0.033 ms/b)
<pd|dd>:          525 b            0 skpd (  0.0%)    0.023 s ( 0.044 ms/b)
<pd|df>:          700 b           15 skpd (  2.1%)    0.008 s ( 0.011 ms/b)
<pd|dg>:          175 b            1 skpd (  0.6%)    0.011 s ( 0.062 ms/b)
<pd|ff>: done
<pd|fg>: done
<pd|gg>: done
<pf|pf>:          406 b            0 skpd (  0.0%)    0.003 s ( 0.007 ms/b)
<pf|pg>:          196 b            0 skpd (  0.0%)    0.006 s ( 0.032 ms/b)
<pf|dd>:          420 b            0 skpd (  0.0%)    0.017 s ( 0.039 ms/b)
<pf|df>: done
<pf|dg>: done
<pf|ff>: done
<pf|fg>: done
<pf|gg>: done
<pg|pg>:           28 b            0 skpd (  0.0%)    0.001 s ( 0.052 ms/b)
<pg|dd>:          105 b            0 skpd (  0.0%)    0.009 s ( 0.082 ms/b)
<pg|df>: done
<pg|dg>: done
<pg|ff>: done
<pg|fg>: done
<pg|gg>: done
<dd|dd>:          120 b            0 skpd (  0.0%)    0.018 s ( 0.151 ms/b)
<dd|df>:          300 b            0 skpd (  0.0%)    0.006 s ( 0.019 ms/b)
<dd|dg>:           75 b            0 skpd (  0.0%)    0.009 s ( 0.121 ms/b)
<dd|ff>:          150 b            0 skpd (  0.0%)    0.002 s ( 0.014 ms/b)
<dd|fg>:           60 b            0 skpd (  0.0%)    0.003 s ( 0.053 ms/b)
<dd|gg>:           15 b            0 skpd (  0.0%)    0.004 s ( 0.299 ms/b)
<df|df>:          210 b            3 skpd (  1.4%)    0.006 s ( 0.030 ms/b)
<df|dg>:          100 b            0 skpd (  0.0%)    0.010 s ( 0.097 ms/b)
<df|ff>: done
<df|fg>: done
<df|gg>: done
<dg|dg>:           15 b            0 skpd (  0.0%)    0.003 s ( 0.186 ms/b)
<dg|ff>: done
<dg|fg>: done
<dg|gg>: done
<ff|ff>: done
<ff|fg>: done
<ff|gg>: done
<fg|fg>: done
<fg|gg>: done
<gg|gg>: done
Recanonicalizing the internal orbitals
Recanonicalizing the virtual orbitals
Time needed for Fock operator              ...            0.510 sec
Reference energy                           ...  -2234.239146302
Warning: for UHF the TrafoType has to be JK
Warning: for UHF the K(C)-option cannot be MO but must be AOX

-------------------------------
PARTIAL EXCHANGE TRANSFORMATION
-------------------------------

Transformation type                        ... two-operators
Generation of integrals (i,mue|j,nue)      ... ON
Generation of integrals (mue,kappa|nue,tau)... ON
Generation of integrals (i,mue|a,nue)      ... ON
Dimension of the basis                     ...   95
Number of internal alpha-MOs               ...    9 (   9-  17)
Number of internal beta-MOs                ...    6 (   9-  14)
Number of external alpha-MOs               ...   77 (  18-  94)
Number of external beta-MOs                ...   80 (  15-  94)
Pair cutoff                                ... 0.000e+00 Eh
Number of AO pairs in the trafo            ... 4560
Total Number of distinct AO pairs          ... 4560
Memory devoted for trafo                   ... 2500.0 MB 
Max. Number of MO pairs treated together   ... 36308      
Number Format for Storage                  ... Double (8 Byte)
Integral package used                      ... LIBINT

Starting integral evaluation:
    ... done with AO integral generation
Closing buffer AOK[aa] ( 0.00 GB; CompressionRatio= 0.98)
Closing buffer AOK[bb] ( 0.00 GB; CompressionRatio= 0.96)
Closing buffer AOK[ab] ( 0.00 GB; CompressionRatio= 0.97)
Closing buffer AOK[ba] ( 0.00 GB; CompressionRatio= 0.97)
Collecting buffer AOK 
Closing buffer IAAO1[aa] ( 0.00 GB; CompressionRatio= 1.00)
Closing buffer IAAO1[bb] ( 0.00 GB; CompressionRatio= 1.00)
Closing buffer IAAO1[ab] ( 0.00 GB; CompressionRatio= 1.00)
Closing buffer IAAO1[ba] ( 0.00 GB; CompressionRatio= 1.00)
Closing buffer IAAO2[aa] ( 0.00 GB; CompressionRatio= 1.00)
Closing buffer IAAO2[bb] ( 0.00 GB; CompressionRatio= 1.00)
Closing buffer IAAO2[ab] ( 0.00 GB; CompressionRatio= 1.00)
Closing buffer IAAO2[ba] ( 0.00 GB; CompressionRatio= 1.00)
Collecting buffer IAAO 
Closing buffer PRQS    ( 0.00 GB; CompressionRatio= 1.00)
Collecting buffer PRQS 
Number of alpha/alpha MO pairs in trafo    ...   45
Number of beta /beta  MO pairs in trafo    ...   21
Number of alpha/ beta MO pairs in trafo    ...   54
------------------------
SORTING OF (i,mue|j,nue)
------------------------

SORTING OF ALPHA/ALPHA PAIRS
IBATCH = 1 of  1
Closing buffer KAO[aa] ( 0.00 GB; CompressionRatio= 1.00)
Collecting buffer KAO 
SORTING OF BETA /BETA  PAIRS
IBATCH = 1 of  1
Closing buffer KAO[bb] ( 0.00 GB; CompressionRatio= 1.00)
Collecting buffer KAO 
SORTING OF ALPHA/BETA  PAIRS
IBATCH = 1 of  1
Closing buffer KAO[ab] ( 0.00 GB; CompressionRatio= 0.999833822633)
Collecting buffer KAO[ab] 
------------------------
SORTING OF (i,mue|a,nue)
------------------------

Number of alpha/alpha (i,a) pairs in trafo  ...  693
Number of beta /beta  (i,a) pairs in trafo  ...  480
Number of alpha/ beta (i,a) pairs in trafo  ...  720
Number of beta /alpha (i,a) pairs in trafo  ...  462
Setting up the alpha/alpha list             ... done
Setting up the beta /beta  list             ... done
Setting up the alpha/beta  list             ... done
Setting up the beta /alpha list             ... done
    ... Now sorting (i,mue|a,nue)integrals
    ... Integrals (i,b|a,c) will be made on the fly
SORTING OF ALPHA/ALPHA PAIRS
IBATCH = 1 of  1
Closing buffer IPAQ[aa]  0.00 GB; CompressionRatio= 1.00)
SORTING OF BETA /BETA  PAIRS
IBATCH = 1 of  1
Closing buffer IPAQ[bb]( 0.00 GB; CompressionRatio= 1.00)
SORTING OF ALPHA/BETA  PAIRS (NMatSort_ab=30)
IBATCH = 1 of  1
Closing buffer IPAQ[ab]( 0.00 GB; CompressionRatio= 1.00)
SORTING OF BETA/ALPHA  PAIRS
IBATCH = 1 of  1
Closing buffer IPAQ[ba]( 0.00 GB; CompressionRatio= 1.00)
N(AO-Batches) Done                         ...      5046 
N(AO-Batches) Skipped                      ...         0 
N(IJ)-pairs Skipped                        ...         0 
TOTAL TIME for half transformation         ...     7.173 sec
AO-integral generation                     ...     0.077 sec
Half transformation                        ...     0.818 sec
K-integral sorting                         ...     1.333 sec
<ss|**>: 
------------------------------
PARTIAL COULOMB TRANSFORMATION
------------------------------

Transformation type                        ... two-operators
Dimension of the basis                     ...   95
Number of internal alpha-MOs               ...    9 (9-17)
Number of internal beta-MOs                ...    6 (9-14)
Pair cutoff                                ... 0.000e+00 Eh
Number of AO pairs included in the trafo   ... 4560
Total Number of distinct AO pairs          ... 4560
Memory devoted for trafo                   ... 2500.0 MB 
Max. Number of MO pairs treated together   ... 71859      
Max. Number of MOs treated per batch       ...  756      
Number Format for Storage                  ... Double (8 Byte)
AO-integral source                         ... DIRECT
Integral package used                      ... LIBINT

Starting integral evaluation:
       33930 b        0 skpd     0.023 s (  0.001 ms/b)
<sp|**>: <sd|**>:        36540 b        0 skpd     0.058 s (  0.002 ms/b)
       26100 b        0 skpd     0.088 s (  0.003 ms/b)
<sf|**>:        20880 b        0 skpd     0.065 s (  0.003 ms/b)
<sg|**>:         5220 b        0 skpd     0.059 s (  0.011 ms/b)
<pp|**>:        12180 b        0 skpd     0.101 s (  0.008 ms/b)
<pd|**>:        15225 b        0 skpd     0.146 s (  0.010 ms/b)
<pf|**>:        12180 b        0 skpd     0.140 s (  0.012 ms/b)
<pg|**>:         3045 b        0 skpd     0.072 s (  0.024 ms/b)
<dd|**>:         6525 b        0 skpd     0.166 s (  0.025 ms/b)
<df|**>:         8700 b        0 skpd     0.118 s (  0.014 ms/b)
<dg|**>:         2175 b        0 skpd     0.105 s (  0.048 ms/b)
<ff|**>:         4350 b        0 skpd     0.084 s (  0.019 ms/b)
<fg|**>:         1740 b        0 skpd     0.078 s (  0.045 ms/b)
<gg|**>:          435 b        0 skpd     0.064 s (  0.147 ms/b)
Closing buffer AOJ[aa] ( 0.00 GB; CompressionRatio= 0.97)
Closing buffer AOJ[bb] ( 0.00 GB; CompressionRatio= 0.00)
Collecting buffer AOJ 
    ... done with AO integral generation
Number of Alpha-MO pairs included          ...   45
Number of Beta-MO pairs included           ...   21
    ... Now sorting integrals
SORTING ALPHA/ALPHA PAIRS
IBATCH = 1 of  1
Closing buffer JAO[aa] ( 0.00 GB; CompressionRatio= 1.00)
SORTING BETA/BETA PAIRS
IBATCH = 1 of  1
Closing buffer JAO[bb] ( 0.00 GB; CompressionRatio= 1.00)
Collecting buffer JAO 
TOTAL TIME for half transformation         ...     1.530 sec
AO-integral generation                     ...     1.007 sec
Half transformation                        ...     0.368 sec
J-integral sorting                         ...     0.110 sec

-------------------------- SECOND HALF TRANSFORMATION -------------------------
Formation of (ij|kl),(ij|ka), (ij|ab)      ... ok (     0.162 sec)
Formation of (ik|jl),(ik|ja), (ia|jb)      ... ok (     0.260 sec)


-----------------------
SPIN UNRESTRICTED GUESS
-----------------------

Entering MDCI_UHF_Guess, Tailored=0
Spin-components of the MP2 energy:
EMP2(aa)=     -0.103762725
EMP2(bb)=     -0.070756009
EMP2(ab)=     -0.300452607

Initial guess performed in     0.018 sec
E(0)                                       ...  -2234.239146302
E(MP2)                                     ...     -0.474971341
Initial E(tot)                             ...  -2234.714117643
<T|T>                                      ...      0.069761116
Number of pairs included                   ... 105

------------------------------------------------
                  UHF COUPLED CLUSTER ITERATIONS
------------------------------------------------

Number of amplitudes to be optimized       ...       487930

Iter       E(tot)           E(Corr)          Delta-E          Residual     Time      <S|S>**1/2
  0  -2234.714117643     -0.474971341      0.000000000      0.017645170    0.91      0.000000026
                           *** Turning on DIIS ***
  1  -2234.691231013     -0.452084712      0.022886629      0.003670288    0.80      0.022634366
  2  -2234.697118922     -0.457972621     -0.005887909      0.001570561    0.81      0.025452068
  3  -2234.698087950     -0.458941649     -0.000969028      0.000418491    0.81      0.028266544
  4  -2234.698368453     -0.459222151     -0.000280503      0.000106092    0.82      0.029129114
  5  -2234.698390836     -0.459244534     -0.000022383      0.000029424    0.85      0.029349856
  6  -2234.698390139     -0.459243837      0.000000697      0.000008716    0.82      0.029387058
               --- The Coupled-Cluster iterations have converged ---

----------------------
COUPLED CLUSTER ENERGY
----------------------

E(0)                                       ...  -2234.239146302
E(CORR)                                    ...     -0.459243837
E(TOT)                                     ...  -2234.698390139
Singles norm <S|S>**1/2                    ...      0.029387058 ( 0.019499244, 0.009887814)  
T1 diagnostic                              ...      0.007587706                              

------------------
LARGEST AMPLITUDES
------------------
  16a-> 32a  14b-> 15b       0.032927
  15a-> 28a  14b-> 16b       0.032807
  16a-> 30a  14b-> 16b       0.032655
  17a-> 29a  14b-> 15b       0.032194
  17a-> 32a  14b-> 17b       0.029759
  15a-> 31a  14b-> 15b       0.028885
  17a-> 31a  14b-> 16b       0.027868
  16a-> 29a  14b-> 17b       0.027485
  15a-> 30a  14b-> 17b       0.027043
  16a-> 28a  14b-> 17b       0.026188
  15a-> 19a  14b-> 16b       0.023638
  17a-> 21a  14b-> 15b       0.022719
  16a-> 23a  14b-> 15b       0.021731
  17a-> 29a  16a-> 32a       0.021449
  17a-> 32a  16a-> 29a       0.021449
  15a-> 20a  14b-> 15b       0.021106

----------------------
UHF TRIPLES CORRECTION (Algorithm 1)
----------------------

Multiplier for the singles contribution    ...      1.000000000

SPIN-CASE Alpha-Alpha-Alpha:
10% done
20% done
30% done
40% done
50% done
60% done
70% done
80% done
90% done


SPIN-CASE Beta-Beta-Beta:
10% done
20% done
30% done
40% done
50% done
60% done
70% done
80% done
90% done


SPIN-CASE Alpha-Alpha-Beta:
10% done
20% done
30% done
40% done
50% done
60% done
70% done
80% done
90% done


SPIN-CASE Beta-Beta-Alpha:
10% done
20% done
30% done
40% done
50% done
60% done
70% done
80% done
90% done


Triples Correction (T)                     ...     -0.009820712
    alpha-alpha-alpha ... -0.000753156 (  7.7%)
    alpha-alpha-beta  ... -0.006092835 ( 62.0%)
    alpha-beta -beta  ... -0.002759169 ( 28.1%)
    beta -beta -beta  ... -0.000215553 (  2.2%)
Scaling of triples based on CCSD energies (Peterson et al. Molecular Physics 113, 1551 (2015))
E(T*) = f*E(T) where f = E(F12-CCSD)/E(CCSD) 
f = CCSD (with F12)/ CCSD (without F12)    ...      1.000000000
Scaled triples correction (T)              ...     -0.009820712

Final correlation energy                   ...     -0.469064549
E(CCSD)                                    ...  -2234.698390139
E(CCSD(T))                                 ...  -2234.708210851



        !!!!!!!!!!!!!!!!!!!!!!!!!!!!!!!!!!!!!!!!!!!!!!!!!!!!!!!!!!!!!!!!!!!!!!!!!! 
        !  Warning: Densities are linearized densities                           !
        !!!!!!!!!!!!!!!!!!!!!!!!!!!!!!!!!!!!!!!!!!!!!!!!!!!!!!!!!!!!!!!!!!!!!!!!!! 

NORM  =      1.077936767 sqrt=     1.038237336
W(HF) =      0.927698202
------------------------------------------------------------------------------
                           ORCA POPULATION ANALYSIS
------------------------------------------------------------------------------
Input electron density              ... 33_As.mdcip
Input spin density                  ... 33_As.mdcir
BaseName (.gbw .S,...)              ... 33_As

                    ********************************
                    * MULLIKEN POPULATION ANALYSIS *
                    ********************************

------------------------------------------
MULLIKEN ATOMIC CHARGES AND SPIN DENSITIES
------------------------------------------
   0 As:    0.000000    3.000000
Sum of atomic charges       :    0.0000000
Sum of atomic spin densities:    3.0000000

---------------------------------------------------
MULLIKEN REDUCED ORBITAL CHARGES AND SPIN DENSITIES
---------------------------------------------------
CHARGE
  0 Ass       :     7.956379  s :     7.956379
      pz      :     4.995965  p :    14.987894
      px      :     4.995965
      py      :     4.995965
      dz2     :     2.005863  d :    10.029313
      dxz     :     2.005863
      dyz     :     2.005863
      dx2y2   :     2.005863
      dxy     :     2.005863
      f0      :     0.003647  f :     0.025531
      f+1     :     0.003647
      f-1     :     0.003647
      f+2     :     0.003647
      f-2     :     0.003647
      f+3     :     0.003647
      f-3     :     0.003647
      g0      :     0.000098  g :     0.000883
      g+1     :     0.000098
      g-1     :     0.000098
      g+2     :     0.000098
      g-2     :     0.000098
      g+3     :     0.000098
      g-3     :     0.000098
      g+4     :     0.000098
      g-4     :     0.000098

SPIN
  0 Ass       :     0.031422  s :     0.031422
      pz      :     0.973785  p :     2.921354
      px      :     0.973785
      py      :     0.973785
      dz2     :     0.008911  d :     0.044556
      dxz     :     0.008911
      dyz     :     0.008911
      dx2y2   :     0.008911
      dxy     :     0.008911
      f0      :     0.000346  f :     0.002419
      f+1     :     0.000346
      f-1     :     0.000346
      f+2     :     0.000346
      f-2     :     0.000346
      f+3     :     0.000346
      f-3     :     0.000346
      g0      :     0.000028  g :     0.000249
      g+1     :     0.000028
      g-1     :     0.000028
      g+2     :     0.000028
      g-2     :     0.000028
      g+3     :     0.000028
      g-3     :     0.000028
      g+4     :     0.000028
      g-4     :     0.000028


                     *******************************
                     * LOEWDIN POPULATION ANALYSIS *
                     *******************************

-----------------------------------------
LOEWDIN ATOMIC CHARGES AND SPIN DENSITIES
-----------------------------------------
   0 As:    0.000000    3.000000

--------------------------------------------------
LOEWDIN REDUCED ORBITAL CHARGES AND SPIN DENSITIES
--------------------------------------------------
CHARGE
  0 Ass       :     7.956379  s :     7.956379
      pz      :     4.995965  p :    14.987894
      px      :     4.995965
      py      :     4.995965
      dz2     :     2.005863  d :    10.029313
      dxz     :     2.005863
      dyz     :     2.005863
      dx2y2   :     2.005863
      dxy     :     2.005863
      f0      :     0.003647  f :     0.025531
      f+1     :     0.003647
      f-1     :     0.003647
      f+2     :     0.003647
      f-2     :     0.003647
      f+3     :     0.003647
      f-3     :     0.003647
      g0      :     0.000098  g :     0.000883
      g+1     :     0.000098
      g-1     :     0.000098
      g+2     :     0.000098
      g-2     :     0.000098
      g+3     :     0.000098
      g-3     :     0.000098
      g+4     :     0.000098
      g-4     :     0.000098

SPIN
  0 Ass       :     0.031422  s :     0.031422
      pz      :     0.973785  p :     2.921354
      px      :     0.973785
      py      :     0.973785
      dz2     :     0.008911  d :     0.044556
      dxz     :     0.008911
      dyz     :     0.008911
      dx2y2   :     0.008911
      dxy     :     0.008911
      f0      :     0.000346  f :     0.002419
      f+1     :     0.000346
      f-1     :     0.000346
      f+2     :     0.000346
      f-2     :     0.000346
      f+3     :     0.000346
      f-3     :     0.000346
      g0      :     0.000028  g :     0.000249
      g+1     :     0.000028
      g-1     :     0.000028
      g+2     :     0.000028
      g-2     :     0.000028
      g+3     :     0.000028
      g-3     :     0.000028
      g+4     :     0.000028
      g-4     :     0.000028


                      *****************************
                      * MAYER POPULATION ANALYSIS *
                      *****************************

  NA   - Mulliken gross atomic population
  ZA   - Total nuclear charge
  QA   - Mulliken gross atomic charge
  VA   - Mayer's total valence
  BVA  - Mayer's bonded valence
  FA   - Mayer's free valence

  ATOM       NA         ZA         QA         VA         BVA        FA
  0 As    33.0000    33.0000     0.0000     3.4351     0.0000     3.4351





------------------------------------------------------------------------------- 
                                     TIMINGS                                   
------------------------------------------------------------------------------- 


Total execution time                   ...       17.091 sec

Fock Matrix Formation                  ...        0.510 sec (  3.0%)
Initial Guess                          ...        0.018 sec (  0.1%)
DIIS Solver                            ...        0.228 sec (  1.3%)
State Vector Update                    ...        0.012 sec (  0.1%)
Sigma-vector construction              ...        5.564 sec ( 32.6%)
  <D|H|D>(0-ext Fock)                  ...        0.005 sec (  0.1% of sigma)
  <D|H|D>(0-ext)                       ...        0.015 sec (  0.3% of sigma)
  <D|H|D>(2-ext Fock)                  ...        0.002 sec (  0.0% of sigma)
  <D|H|D>(2-ext)                       ...        0.066 sec (  1.2% of sigma)
  <D|H|D>(4-ext)                       ...        2.706 sec ( 48.6% of sigma)
  <S|H|0>                              ...        0.139 sec (  2.5% of sigma)
  <S|H|D>(1-ext)                       ...        0.001 sec (  0.0% of sigma)
  <D|H|S>(1-ext)                       ...        0.024 sec (  0.4% of sigma)
  Fock-dressing                        ...        1.667 sec ( 30.0% of sigma)
  (ik|jl)-dressing                     ...        0.019 sec (  0.3% of sigma)
  (ij|ab),(ia|jb)-dressing             ...        0.702 sec ( 12.6% of sigma)
  Pair energies                        ...        0.001 sec (  0.0% of sigma)
Total Time for computing (T)           ...        0.814 sec (  4.8% of ALL)
  I/O of integral and amplitudes       ...        0.189 sec ( 23.2% of (T))
  External N**7 contributions          ...        0.218 sec ( 26.8% of (T))
  Internal N**7 contributions          ...        0.109 sec ( 13.4% of (T))
  N**6 triples energy contributions    ...        0.273 sec ( 33.5% of (T))


-------------------------   --------------------
FINAL SINGLE POINT ENERGY     -2234.708210850901
-------------------------   --------------------


                            ***************************************
                            *     ORCA property calculations      *
                            ***************************************

                                    ---------------------
                                    Active property flags
                                    ---------------------
   (+) Dipole Moment


------------------------------------------------------------------------------
                       ORCA ELECTRIC PROPERTIES CALCULATION
------------------------------------------------------------------------------

Dipole Moment Calculation                       ... on
Quadrupole Moment Calculation                   ... off
Polarizability Calculation                      ... off
GBWName                                         ... 33_As.gbw
Electron density file                           ... 33_As.scfp
The origin for moment calculation is the CENTER OF MASS  = ( 0.000000,  0.000000  0.000000)

-------------
DIPOLE MOMENT
-------------
                                X             Y             Z
Electronic contribution:      0.00000      -0.00000       0.00000
Nuclear contribution   :      0.00000       0.00000       0.00000
                        -----------------------------------------
Total Dipole Moment    :      0.00000      -0.00000       0.00000
                        -----------------------------------------
Magnitude (a.u.)       :      0.00000
Magnitude (Debye)      :      0.00000



--------------------
Rotational spectrum 
--------------------
 
Rotational constants in cm-1:     0.000000     0.000000     0.000000 
Rotational constants in MHz :     0.000000     0.000000     0.000000 

 Dipole components along the rotational axes: 
x,y,z [a.u.] :     0.000000    -0.000000     0.000000 
x,y,z [Debye]:     0.000000    -0.000000     0.000000 

 

                           *** MDCI DENSITY ***

------------------------------------------------------------------------------
                       ORCA ELECTRIC PROPERTIES CALCULATION
------------------------------------------------------------------------------

Dipole Moment Calculation                       ... on
Quadrupole Moment Calculation                   ... off
Polarizability Calculation                      ... off
GBWName                                         ... 33_As.gbw
Electron density file                           ... 33_As.mdcip
The origin for moment calculation is the CENTER OF MASS  = ( 0.000000,  0.000000  0.000000)

-------------
DIPOLE MOMENT
-------------
                                X             Y             Z
Electronic contribution:      0.00000      -0.00000       0.00000
Nuclear contribution   :      0.00000       0.00000       0.00000
                        -----------------------------------------
Total Dipole Moment    :      0.00000      -0.00000       0.00000
                        -----------------------------------------
Magnitude (a.u.)       :      0.00000
Magnitude (Debye)      :      0.00000



--------------------
Rotational spectrum 
--------------------
 
Rotational constants in cm-1:     0.000000     0.000000     0.000000 
Rotational constants in MHz :     0.000000     0.000000     0.000000 

 Dipole components along the rotational axes: 
x,y,z [a.u.] :     0.000000    -0.000000     0.000000 
x,y,z [Debye]:     0.000000    -0.000000     0.000000 

 

Timings for individual modules:

Sum of individual times         ...       23.522 sec (=   0.392 min)
GTO integral calculation        ...        0.877 sec (=   0.015 min)   3.7 %
SCF iterations                  ...        4.821 sec (=   0.080 min)  20.5 %
MDCI module                     ...       17.825 sec (=   0.297 min)  75.8 %
                             ****ORCA TERMINATED NORMALLY****
TOTAL RUN TIME: 0 days 0 hours 0 minutes 24 seconds 349 msec
