
                                 *****************
                                 * O   R   C   A *
                                 *****************

           --- An Ab Initio, DFT and Semiempirical electronic structure package ---

                  #######################################################
                  #                        -***-                        #
                  #          Department of theory and spectroscopy      #
                  #               Directorship: Frank Neese             #
                  #        Max Planck Institute fuer Kohlenforschung    #
                  #                Kaiser Wilhelm Platz 1               #
                  #                 D-45470 Muelheim/Ruhr               #
                  #                      Germany                        #
                  #                                                     #
                  #                  All rights reserved                #
                  #                        -***-                        #
                  #######################################################


                         Program Version 4.2.0 -  RELEASE  -


 With contributions from (in alphabetic order):
   Daniel Aravena         : Magnetic Suceptibility
   Michael Atanasov       : Ab Initio Ligand Field Theory (pilot matlab implementation)
   Alexander A. Auer      : GIAO ZORA, VPT2
   Ute Becker             : Parallelization
   Giovanni Bistoni       : ED, misc. LED, open-shell LED, HFLED
   Martin Brehm           : Molecular dynamics
   Dmytro Bykov           : SCF Hessian
   Vijay G. Chilkuri      : MRCI spin determinant printing, contributions to CSF-ICE
   Dipayan Datta          : RHF DLPNO-CCSD density
   Achintya Kumar Dutta   : EOM-CC, STEOM-CC
   Dmitry Ganyushin       : Spin-Orbit,Spin-Spin,Magnetic field MRCI
   Miquel Garcia          : C-PCM Hessian, Gaussian charge scheme
   Yang Guo               : DLPNO-NEVPT2, CIM, IAO-localization
   Andreas Hansen         : Spin unrestricted coupled pair/coupled cluster methods
   Benjamin Helmich-Paris : CASSCF linear response (MC-RPA)
   Lee Huntington         : MR-EOM, pCC
   Robert Izsak           : Overlap fitted RIJCOSX, COSX-SCS-MP3, EOM
   Christian Kollmar      : KDIIS, OOCD, Brueckner-CCSD(T), CCSD density
   Simone Kossmann        : Meta GGA functionals, TD-DFT gradient, OOMP2, MP2 Hessian
   Martin Krupicka        : AUTO-CI
   Lucas Lang             : DCDCAS
   Dagmar Lenk            : GEPOL surface, SMD
   Dimitrios Liakos       : Extrapolation schemes; Compound Job, initial MDCI parallelization
   Dimitrios Manganas     : Further ROCIS development; embedding schemes
   Dimitrios Pantazis     : SARC Basis sets
   Taras Petrenko         : DFT Hessian,TD-DFT gradient, ASA, ECA, R-Raman, ABS, FL, XAS/XES, NRVS
   Peter Pinski           : DLPNO-MP2, DLPNO-MP2 Gradient
   Christoph Reimann      : Effective Core Potentials
   Marius Retegan         : Local ZFS, SOC
   Christoph Riplinger    : Optimizer, TS searches, QM/MM, DLPNO-CCSD(T), (RO)-DLPNO pert. Triples
   Tobias Risthaus        : Range-separated hybrids, TD-DFT gradient, RPA, STAB
   Michael Roemelt        : Original ROCIS implementation
   Masaaki Saitow         : Open-shell DLPNO-CCSD energy and density
   Barbara Sandhoefer     : DKH picture change effects
   Avijit Sen             : IP-ROCIS
   Kantharuban Sivalingam : CASSCF convergence, NEVPT2, FIC-MRCI
   Bernardo de Souza      : ESD, SOC TD-DFT
   Georgi Stoychev        : AutoAux, RI-MP2 NMR
   Willem Van den Heuvel  : Paramagnetic NMR
   Boris Wezisla          : Elementary symmetry handling
   Frank Wennmohs         : Technical directorship


 We gratefully acknowledge several colleagues who have allowed us to
 interface, adapt or use parts of their codes:
   Stefan Grimme, W. Hujo, H. Kruse,             : VdW corrections, initial TS optimization,
                  C. Bannwarth                     DFT functionals, gCP, sTDA/sTD-DF
   Ed Valeev, F. Pavosevic, A. Kumar             : LibInt (2-el integral package), F12 methods
   Garnet Chan, S. Sharma, J. Yang, R. Olivares  : DMRG
   Ulf Ekstrom                                   : XCFun DFT Library
   Mihaly Kallay                                 : mrcc  (arbitrary order and MRCC methods)
   Andreas Klamt, Michael Diedenhofen            : otool_cosmo (COSMO solvation model)
   Jiri Pittner, Ondrej Demel                    : Mk-CCSD
   Frank Weinhold                                : gennbo (NPA and NBO analysis)
   Christopher J. Cramer and Donald G. Truhlar   : smd solvation model
   Lars Goerigk                                  : TD-DFT with DH, B97 family of functionals
   V. Asgeirsson, H. Jonsson                     : NEB implementation
   FAccTs GmbH                                   : IRC, NEB, NEB-TS, Multilevel, MM, QM/MM, CI optimization
   S Lehtola, MJT Oliveira, MAL Marques          : LibXC Library


 Your calculation uses the libint2 library for the computation of 2-el integrals
 For citations please refer to: http://libint.valeyev.net

 Your ORCA version has been built with support for libXC version: 4.2.3
 For citations please refer to: https://tddft.org/programs/libxc/

 This ORCA versions uses:
   CBLAS   interface :  Fast vector & matrix operations
   LAPACKE interface :  Fast linear algebra routines
   SCALAPACK package :  Parallel linear algebra routines


----- Orbital basis set information -----
Your calculation utilizes the basis: def2-QZVPPD
   F. Weigend and R. Ahlrichs, Phys. Chem. Chem. Phys. 7, 3297 (2005).
   D. Rappoport and F. Furche, J. Chem. Phys. 133 134105 (2010).

================================================================================
                                        WARNINGS
                       Please study these warnings very carefully!
================================================================================


WARNING: MDCI localization with Augmented Hessian Foster-Boys
  ===> : Switching off randomization!

WARNING: Post HF methods need fully converged wavefunctions
  ===> : Setting SCFConvForced true
         You can overwrite this default with %scf ConvForced false 


INFO   : the flag for use of LIBINT has been found!

================================================================================
                                       INPUT FILE
================================================================================
NAME = 36_Kr.in
|  1> #
|  2> # 36_Kr CCSD(T)/Def2-QZVPPD
|  3> #
|  4> ! CCSD(T) Def2-QZVPPD tightscf
|  5> 
|  6> *xyz 0 1
|  7>  Kr 0.0 0.0 0.0
|  8> *
|  9> 
| 10> %maxcore 5000 
| 11> 
| 12> %pal
| 13> nprocs 24
| 14> end
| 15> 
| 16> 
| 17>                          ****END OF INPUT****
================================================================================

                       ****************************
                       * Single Point Calculation *
                       ****************************

---------------------------------
CARTESIAN COORDINATES (ANGSTROEM)
---------------------------------
  Kr     0.000000    0.000000    0.000000

----------------------------
CARTESIAN COORDINATES (A.U.)
----------------------------
  NO LB      ZA    FRAG     MASS         X           Y           Z
   0 Kr   36.0000    0    83.800    0.000000    0.000000    0.000000

--------------------------------
INTERNAL COORDINATES (ANGSTROEM)
--------------------------------
 Kr     0   0   0     0.000000000000     0.00000000     0.00000000

---------------------------
INTERNAL COORDINATES (A.U.)
---------------------------
 Kr     0   0   0     0.000000000000     0.00000000     0.00000000

---------------------
BASIS SET INFORMATION
---------------------
There are 1 groups of distinct atoms

 Group   1 Type Kr  : 25s21p11d4f1g contracted to 12s8p5d4f1g pattern {1141111111111/105111111/71111/1111/1}

Atom   0Kr   basis set group =>   1


           ************************************************************
           *        Program running with 24 parallel MPI-processes    *
           *              working on a common directory               *
           ************************************************************
------------------------------------------------------------------------------
                           ORCA GTO INTEGRAL CALCULATION
------------------------------------------------------------------------------

                         BASIS SET STATISTICS AND STARTUP INFO

 # of primitive gaussian shells          ...   62
 # of primitive gaussian functions       ...  180
 # of contracted shells                  ...   30
 # of contracted basis functions         ...   98
 Highest angular momentum                ...    4
 Maximum contraction depth               ...   11
 Integral package used                   ... LIBINT
 Integral threshhold            Thresh   ...  2.500e-11
 Primitive cut-off              TCut     ...  2.500e-12


------------------------------ INTEGRAL EVALUATION ----------------------------


 * One electron integrals 
 Pre-screening matrix                    ... done
 Shell pair data                         ... done (   0.000 sec)



           ************************************************************
           *        Program running with 24 parallel MPI-processes    *
           *              working on a common directory               *
           ************************************************************
-------------------------------------------------------------------------------
                                 ORCA SCF
-------------------------------------------------------------------------------

------------
SCF SETTINGS
------------
Hamiltonian:
 Ab initio Hamiltonian  Method          .... Hartree-Fock(GTOs)


General Settings:
 Integral files         IntName         .... 36_Kr
 Hartree-Fock type      HFTyp           .... RHF
 Total Charge           Charge          ....    0
 Multiplicity           Mult            ....    1
 Number of Electrons    NEL             ....   36
 Basis Dimension        Dim             ....   98
 Nuclear Repulsion      ENuc            ....      0.0000000000 Eh

Convergence Acceleration:
 DIIS                   CNVDIIS         .... on
   Start iteration      DIISMaxIt       ....    12
   Startup error        DIISStart       ....  0.200000
   # of expansion vecs  DIISMaxEq       ....     5
   Bias factor          DIISBfac        ....   1.050
   Max. coefficient     DIISMaxC        ....  10.000
 Newton-Raphson         CNVNR           .... off
 SOSCF                  CNVSOSCF        .... on
   Start iteration      SOSCFMaxIt      ....   150
   Startup grad/error   SOSCFStart      ....  0.003300
 Level Shifting         CNVShift        .... on
   Level shift para.    LevelShift      ....    0.2500
   Turn off err/grad.   ShiftErr        ....    0.0010
 Zerner damping         CNVZerner       .... off
 Static damping         CNVDamp         .... on
   Fraction old density DampFac         ....    0.7000
   Max. Damping (<1)    DampMax         ....    0.9800
   Min. Damping (>=0)   DampMin         ....    0.0000
   Turn off err/grad.   DampErr         ....    0.1000
 Fernandez-Rico         CNVRico         .... off

SCF Procedure:
 Maximum # iterations   MaxIter         ....   125
 SCF integral mode      SCFMode         .... Direct
   Integral package                     .... LIBINT
 Reset frequency        DirectResetFreq ....    20
 Integral Threshold     Thresh          ....  2.500e-11 Eh
 Primitive CutOff       TCut            ....  2.500e-12 Eh

Convergence Tolerance:
 Convergence Check Mode ConvCheckMode   .... Total+1el-Energy
 Convergence forced     ConvForced      .... 1
 Energy Change          TolE            ....  1.000e-08 Eh
 1-El. energy change                    ....  1.000e-05 Eh
 Orbital Gradient       TolG            ....  1.000e-05
 Orbital Rotation angle TolX            ....  1.000e-05
 DIIS Error             TolErr          ....  5.000e-07


Diagonalization of the overlap matrix:
Smallest eigenvalue                        ... 6.740e-04
Time for diagonalization                   ...    0.002 sec
Threshold for overlap eigenvalues          ... 1.000e-08
Number of eigenvalues below threshold      ... 0
Time for construction of square roots      ...    0.012 sec
Total time needed                          ...    0.014 sec

-------------------
DFT GRID GENERATION
-------------------

General Integration Accuracy     IntAcc      ...  4.340
Radial Grid Type                 RadialGrid  ... Gauss-Chebyshev
Angular Grid (max. acc.)         AngularGrid ... Lebedev-110
Angular grid pruning method      GridPruning ... 3 (G Style)
Weight generation scheme         WeightScheme... Becke
Basis function cutoff            BFCut       ...    1.0000e-11
Integration weight cutoff        WCut        ...    1.0000e-14
Grids for H and He will be reduced by one unit

# of grid points (after initial pruning)     ...   2950 (   0.0 sec)
# of grid points (after weights+screening)   ...   2950 (   0.0 sec)
Grid point division into batches done        ...    0.0 sec
Reduced shell lists constructed in    0.0 sec

Total number of grid points                  ...     2950
Total number of batches                      ...       47
Average number of points per batch           ...       62
Average number of grid points per atom       ...     2950
Average number of shells per batch           ...     9.33 (31.11%)
Average number of basis functions per batch  ...    36.00 (36.73%)
Average number of large shells per batch     ...     8.00 (85.71%)
Average number of large basis fcns per batch ...    30.67 (85.19%)
Maximum spatial batch extension              ...  14.66, 21.55, 21.55 au
Average spatial batch extension              ...   0.62,  0.92,  0.92 au

Time for grid setup =    0.060 sec

------------------------------
INITIAL GUESS: MODEL POTENTIAL
------------------------------
Loading Hartree-Fock densities                     ... done
Calculating cut-offs                               ... done
Setting up the integral package                    ... done
Initializing the effective Hamiltonian             ... done
Starting the Coulomb interaction                   ... done (   0.0 sec)
Reading the grid                                   ... done
Mapping shells                                     ... done
Starting the XC term evaluation                    ... done (   0.0 sec)
Transforming the Hamiltonian                       ... done (   0.0 sec)
Diagonalizing the Hamiltonian                      ... done (   0.0 sec)
Back transforming the eigenvectors                 ... done (   0.0 sec)
Now organizing SCF variables                       ... done
                      ------------------
                      INITIAL GUESS DONE (   0.2 sec)
                      ------------------
--------------
SCF ITERATIONS
--------------
ITER       Energy         Delta-E        Max-DP      RMS-DP      [F,P]     Damp
               ***  Starting incremental Fock matrix formation  ***
  0  -2752.0193466198   0.000000000000 0.01657494  0.00055463  1.0372787 0.7000
  1  -2752.0299183312  -0.010571711453 0.01124938  0.00042047  0.7254915 0.7000
  2  -2752.0371481170  -0.007229785795 0.00877086  0.00031153  0.5076254 0.7000
  3  -2752.0422082333  -0.005060116211 0.00676105  0.00023192  0.3553597 0.7000
                      *** Initiating the SOSCF procedure ***
                      *** Re-Reading the Fockian *** 
                      *** Removing any level shift *** 
ITER      Energy       Delta-E        Grad      Rot      Max-DP    RMS-DP
  4  -2752.04577851  -0.0035702798  0.002306  0.002306  0.017168  0.000577
               *** Restarting incremental Fock matrix formation ***
  5  -2752.05427188  -0.0084933685  0.004601  0.001107  0.003519  0.000122
  6  -2752.05431085  -0.0000389718  0.001219  0.000340  0.000785  0.000031
  7  -2752.05431532  -0.0000044674  0.000213  0.000059  0.000179  0.000006
  8  -2752.05431545  -0.0000001325  0.000018  0.000012  0.000065  0.000001
                  ***Gradient check signals convergence***
              ***Rediagonalizing the Fockian in SOSCF/NRSCF***

               *****************************************************
               *                     SUCCESS                       *
               *           SCF CONVERGED AFTER   9 CYCLES          *
               *****************************************************


----------------
TOTAL SCF ENERGY
----------------

Total Energy       :        -2752.05431545 Eh          -74887.20512 eV

Components:
Nuclear Repulsion  :            0.00000000 Eh               0.00000 eV
Electronic Energy  :        -2752.05431545 Eh          -74887.20512 eV
One Electron Energy:        -3830.51306829 Eh         -104233.55972 eV
Two Electron Energy:         1078.45875283 Eh           29346.35460 eV

Virial components:
Potential Energy   :        -5504.10323181 Eh         -149774.26331 eV
Kinetic Energy     :         2752.04891635 Eh           74887.05820 eV
Virial Ratio       :            2.00000196


---------------
SCF CONVERGENCE
---------------

  Last Energy change         ...   -1.3688e-09  Tolerance :   1.0000e-08
  Last MAX-Density change    ...    1.1639e-05  Tolerance :   1.0000e-07
  Last RMS-Density change    ...    2.1062e-07  Tolerance :   5.0000e-09
  Last Orbital Gradient      ...    1.9699e-06  Tolerance :   1.0000e-05
  Last Orbital Rotation      ...    2.0641e-06  Tolerance :   1.0000e-05

             **** THE GBW FILE WAS UPDATED (36_Kr.gbw) ****
             **** DENSITY FILE WAS UPDATED (36_Kr.scfp) ****
             **** ENERGY FILE WAS UPDATED (36_Kr.en.tmp) ****
             **** THE GBW FILE WAS UPDATED (36_Kr.gbw) ****
             **** DENSITY FILE WAS UPDATED (36_Kr.scfp) ****
----------------
ORBITAL ENERGIES
----------------

  NO   OCC          E(Eh)            E(eV) 
   0   2.0000    -520.166195    -14154.4418 
   1   2.0000     -69.903671     -1902.1756 
   2   2.0000     -63.010451     -1714.6015 
   3   2.0000     -63.010451     -1714.6015 
   4   2.0000     -63.010451     -1714.6015 
   5   2.0000     -10.849536      -295.2309 
   6   2.0000      -8.331597      -226.7143 
   7   2.0000      -8.331597      -226.7143 
   8   2.0000      -8.331597      -226.7143 
   9   2.0000      -3.825323      -104.0923 
  10   2.0000      -3.825323      -104.0923 
  11   2.0000      -3.825323      -104.0923 
  12   2.0000      -3.825323      -104.0923 
  13   2.0000      -3.825323      -104.0923 
  14   2.0000      -1.152982       -31.3742 
  15   2.0000      -0.524222       -14.2648 
  16   2.0000      -0.524222       -14.2648 
  17   2.0000      -0.524222       -14.2648 
  18   0.0000       0.069570         1.8931 
  19   0.0000       0.069570         1.8931 
  20   0.0000       0.069570         1.8931 
  21   0.0000       0.105965         2.8835 
  22   0.0000       0.244156         6.6438 
  23   0.0000       0.244156         6.6438 
  24   0.0000       0.244156         6.6438 
  25   0.0000       0.244156         6.6438 
  26   0.0000       0.244156         6.6438 
  27   0.0000       0.384531        10.4636 
  28   0.0000       0.384531        10.4636 
  29   0.0000       0.384531        10.4636 
  30   0.0000       0.627619        17.0784 
  31   0.0000       0.682974        18.5847 
  32   0.0000       0.682974        18.5847 
  33   0.0000       0.682974        18.5847 
  34   0.0000       0.682974        18.5847 
  35   0.0000       0.682974        18.5847 
  36   0.0000       1.386701        37.7341 
  37   0.0000       1.386701        37.7341 
  38   0.0000       1.386701        37.7341 
  39   0.0000       1.386701        37.7341 
  40   0.0000       1.386701        37.7341 
  41   0.0000       1.386701        37.7341 
  42   0.0000       1.386701        37.7341 
  43   0.0000       1.471356        40.0376 
  44   0.0000       1.471356        40.0376 
  45   0.0000       1.471356        40.0376 
  46   0.0000       2.063555        56.1522 
  47   0.0000       2.063555        56.1522 
  48   0.0000       2.063555        56.1522 
  49   0.0000       2.063555        56.1522 
  50   0.0000       2.063555        56.1522 
  51   0.0000       2.411586        65.6226 
  52   0.0000       3.348029        91.1045 
  53   0.0000       3.348029        91.1045 
  54   0.0000       3.348029        91.1045 
  55   0.0000       3.348029        91.1045 
  56   0.0000       3.348029        91.1045 
  57   0.0000       3.348029        91.1045 
  58   0.0000       3.348029        91.1045 
  59   0.0000       3.348029        91.1045 
  60   0.0000       3.348029        91.1045 
  61   0.0000       3.382244        92.0355 
  62   0.0000       3.382244        92.0355 
  63   0.0000       3.382244        92.0355 
  64   0.0000       3.382244        92.0355 
  65   0.0000       3.382244        92.0355 
  66   0.0000       3.382244        92.0355 
  67   0.0000       3.382244        92.0355 
  68   0.0000       4.836064       131.5960 
  69   0.0000       4.836064       131.5960 
  70   0.0000       4.836064       131.5960 
  71   0.0000       6.215324       169.1276 
  72   0.0000       6.215324       169.1276 
  73   0.0000       6.215324       169.1276 
  74   0.0000       6.215324       169.1276 
  75   0.0000       6.215324       169.1276 
  76   0.0000       9.297278       252.9918 
  77   0.0000      11.041900       300.4654 
  78   0.0000      11.041900       300.4654 
  79   0.0000      11.041900       300.4654 
  80   0.0000      11.041900       300.4654 
  81   0.0000      11.041900       300.4654 
  82   0.0000      11.041900       300.4654 
  83   0.0000      11.041900       300.4654 
  84   0.0000      16.025969       436.0888 
  85   0.0000      16.025969       436.0888 
  86   0.0000      16.025969       436.0888 
  87   0.0000      33.065943       899.7701 
  88   0.0000      39.480307      1074.3138 
  89   0.0000      39.480307      1074.3138 
  90   0.0000      39.480307      1074.3138 
  91   0.0000      39.480307      1074.3138 
  92   0.0000      39.480307      1074.3138 
  93   0.0000      39.480307      1074.3138 
  94   0.0000      39.480307      1074.3138 
  95   0.0000     105.511224      2871.1064 
  96   0.0000     355.890209      9684.2649 
  97   0.0000    1987.172243     54073.7058 

                    ********************************
                    * MULLIKEN POPULATION ANALYSIS *
                    ********************************

-----------------------
MULLIKEN ATOMIC CHARGES
-----------------------
   0 Kr:   -0.000000
Sum of atomic charges:   -0.0000000

--------------------------------
MULLIKEN REDUCED ORBITAL CHARGES
--------------------------------
  0 Krs       :     8.000000  s :     8.000000
      pz      :     6.000000  p :    18.000000
      px      :     6.000000
      py      :     6.000000
      dz2     :     2.000000  d :    10.000000
      dxz     :     2.000000
      dyz     :     2.000000
      dx2y2   :     2.000000
      dxy     :     2.000000
      f0      :     0.000000  f :     0.000000
      f+1     :     0.000000
      f-1     :     0.000000
      f+2     :     0.000000
      f-2     :     0.000000
      f+3     :     0.000000
      f-3     :     0.000000
      g0      :     0.000000  g :     0.000000
      g+1     :     0.000000
      g-1     :     0.000000
      g+2     :     0.000000
      g-2     :     0.000000
      g+3     :     0.000000
      g-3     :     0.000000
      g+4     :     0.000000
      g-4     :     0.000000


                     *******************************
                     * LOEWDIN POPULATION ANALYSIS *
                     *******************************

----------------------
LOEWDIN ATOMIC CHARGES
----------------------
   0 Kr:    0.000000

-------------------------------
LOEWDIN REDUCED ORBITAL CHARGES
-------------------------------
  0 Krs       :     8.000000  s :     8.000000
      pz      :     6.000000  p :    18.000000
      px      :     6.000000
      py      :     6.000000
      dz2     :     2.000000  d :    10.000000
      dxz     :     2.000000
      dyz     :     2.000000
      dx2y2   :     2.000000
      dxy     :     2.000000
      f0      :     0.000000  f :     0.000000
      f+1     :     0.000000
      f-1     :     0.000000
      f+2     :     0.000000
      f-2     :     0.000000
      f+3     :     0.000000
      f-3     :     0.000000
      g0      :     0.000000  g :     0.000000
      g+1     :     0.000000
      g-1     :     0.000000
      g+2     :     0.000000
      g-2     :     0.000000
      g+3     :     0.000000
      g-3     :     0.000000
      g+4     :     0.000000
      g-4     :     0.000000


                      *****************************
                      * MAYER POPULATION ANALYSIS *
                      *****************************

  NA   - Mulliken gross atomic population
  ZA   - Total nuclear charge
  QA   - Mulliken gross atomic charge
  VA   - Mayer's total valence
  BVA  - Mayer's bonded valence
  FA   - Mayer's free valence

  ATOM       NA         ZA         QA         VA         BVA        FA
  0 Kr    36.0000    36.0000     0.0000     0.0000     0.0000     0.0000

  Mayer bond orders larger than 0.100000


--------------------------
ATOM BASIS FOR ELEMENT Kr
--------------------------
 NewGTO Kr
 S 25
    1   11713823.007999999449         0.000005639373
    2    1755253.397899999982         0.000043808784
    3     399717.419240000017         0.000230146695
    4     113285.792600000001         0.000970746448
    5      36977.205292999999         0.003521153151
    6      13355.036580000000         0.011363435716
    7       5210.901298800000         0.032936599318
    8       2162.113702000000         0.084835062174
    9        943.292910230000         0.185370935423
   10        429.207243310000         0.312085586554
   11        202.407208400000         0.330996528084
   12       3260.498552100000         0.000046605771
   13       1011.106971600000         0.000472107900
   14        392.443592730000         0.002258185197
   15        173.217021320000         0.005113093149
   16         96.619988467000         0.164044510875
   17         38.158284867000         0.016839513858
   18         18.959517570000        -0.003428422974
   19          9.250599619900         0.001660902357
   20          4.348651762100        -0.000877103598
   21          2.038032420900         0.000362624816
   22          0.691101525400        -0.000178112014
   23          0.335060651400         0.000122385444
   24          0.140744411200        -0.000048890733
   25          0.056272458600         0.000012675257
 S 25
    1   11713823.007999999449         0.000001790117
    2    1755253.397899999982         0.000013906307
    3     399717.419240000017         0.000073055910
    4     113285.792600000001         0.000308145919
    5      36977.205292999999         0.001117726442
    6      13355.036580000000         0.003607117336
    7       5210.901298800000         0.010455128305
    8       2162.113702000000         0.026929357557
    9        943.292910230000         0.058842653883
   10        429.207243310000         0.099065930210
   11        202.407208400000         0.105068866886
   12       3260.498552100000         0.001006705346
   13       1011.106971600000         0.010197740152
   14        392.443592730000         0.048777802358
   15        173.217021320000         0.110445081008
   16         96.619988467000         0.064453767986
   17         38.158284867000        -0.407288653935
   18         18.959517570000        -0.567293055510
   19          9.250599619900        -0.181888532209
   20          4.348651762100        -0.008116757525
   21          2.038032420900        -0.001807592569
   22          0.691101525400         0.000475730840
   23          0.335060651400        -0.000249118127
   24          0.140744411200         0.000121080676
   25          0.056272458600        -0.000028992427
 S 25
    1   11713823.007999999449        -0.000000716189
    2    1755253.397899999982        -0.000005563631
    3     399717.419240000017        -0.000029228185
    4     113285.792600000001        -0.000123282919
    5      36977.205292999999        -0.000447179630
    6      13355.036580000000        -0.001443134326
    7       5210.901298800000        -0.004182884318
    8       2162.113702000000        -0.010773888578
    9        943.292910230000        -0.023541749751
   10        429.207243310000        -0.039634265008
   11        202.407208400000        -0.042035917954
   12       3260.498552100000        -0.000476942589
   13       1011.106971600000        -0.004831340779
   14        392.443592730000        -0.023109255788
   15        173.217021320000        -0.052325104948
   16         96.619988467000        -0.030954347195
   17         38.158284867000         0.252147143111
   18         18.959517570000         0.512408610207
   19          9.250599619900         0.092913365326
   20          4.348651762100        -0.694173684464
   21          2.038032420900        -0.555880021731
   22          0.691101525400        -0.045645299221
   23          0.335060651400         0.010054106398
   24          0.140744411200        -0.003536216850
   25          0.056272458600         0.000744239891
 S 25
    1   11713823.007999999449        -0.000000228059
    2    1755253.397899999982        -0.000001771645
    3     399717.419240000017        -0.000009307227
    4     113285.792600000001        -0.000039257387
    5      36977.205292999999        -0.000142396885
    6      13355.036580000000        -0.000459542024
    7       5210.901298800000        -0.001331969653
    8       2162.113702000000        -0.003430764884
    9        943.292910230000        -0.007496477040
   10        429.207243310000        -0.012620869765
   11        202.407208400000        -0.013385636036
   12       3260.498552100000        -0.000155506711
   13       1011.106971600000        -0.001575254404
   14        392.443592730000        -0.007534752485
   15        173.217021320000        -0.017060554359
   16         96.619988467000        -0.010294530649
   17         38.158284867000         0.086652784397
   18         18.959517570000         0.184302463628
   19          9.250599619900         0.035520896087
   20          4.348651762100        -0.339590646617
   21          2.038032420900        -0.479101500802
   22          0.691101525400         0.292791933867
   23          0.335060651400         0.707274287330
   24          0.140744411200         0.271573501577
   25          0.056272458600         0.002129772386
 S 25
    1   11713823.007999999449        -0.000000057448
    2    1755253.397899999982        -0.000000446282
    3     399717.419240000017        -0.000002344512
    4     113285.792600000001        -0.000009889026
    5      36977.205292999999        -0.000035870101
    6      13355.036580000000        -0.000115759689
    7       5210.901298800000        -0.000335526206
    8       2162.113702000000        -0.000864217532
    9        943.292910230000        -0.001888379736
   10        429.207243310000        -0.003179226001
   11        202.407208400000        -0.003371872376
   12       3260.498552100000        -0.000042126061
   13       1011.106971600000        -0.000426729258
   14        392.443592730000        -0.002041130203
   15        173.217021320000        -0.004621626636
   16         96.619988467000        -0.001285819508
   17         38.158284867000         0.016172633818
   18         18.959517570000         0.065210213694
   19          9.250599619900        -0.029297243959
   20          4.348651762100        -0.014804920818
   21          2.038032420900        -0.258719698113
   22          0.691101525400         0.472401061626
   23          0.335060651400        -0.616705016514
   24          0.140744411200         1.836228523792
   25          0.056272458600        -2.049348194554
 S 25
    1   11713823.007999999449        -0.000000135143
    2    1755253.397899999982        -0.000001049840
    3     399717.419240000017        -0.000005515271
    4     113285.792600000001        -0.000023263118
    5      36977.205292999999        -0.000084381459
    6      13355.036580000000        -0.000272315134
    7       5210.901298800000        -0.000789297767
    8       2162.113702000000        -0.002033000569
    9        943.292910230000        -0.004442257807
   10        429.207243310000        -0.007478867333
   11        202.407208400000        -0.007932052065
   12       3260.498552100000        -0.000080980233
   13       1011.106971600000        -0.000820314874
   14        392.443592730000        -0.003923727827
   15        173.217021320000        -0.008884296069
   16         96.619988467000        -0.011411163918
   17         38.158284867000         0.075204440770
   18         18.959517570000         0.037571225181
   19          9.250599619900         0.177504373541
   20          4.348651762100        -0.519511621003
   21          2.038032420900         0.190785857541
   22          0.691101525400        -1.377130695507
   23          0.335060651400         4.627075157355
   24          0.140744411200        -5.111958320872
   25          0.056272458600         1.965856484168
 S 25
    1   11713823.007999999449        -0.000000254891
    2    1755253.397899999982        -0.000001980089
    3     399717.419240000017        -0.000010402274
    4     113285.792600000001        -0.000043876235
    5      36977.205292999999        -0.000159150667
    6      13355.036580000000        -0.000513609689
    7       5210.901298800000        -0.001488683260
    8       2162.113702000000        -0.003834413374
    9        943.292910230000        -0.008378479084
   10        429.207243310000        -0.014105784995
   11        202.407208400000        -0.014960530253
   12       3260.498552100000        -0.000214563793
   13       1011.106971600000        -0.002173491789
   14        392.443592730000        -0.010396239886
   15        173.217021320000        -0.023539673805
   16         96.619988467000         0.006502548556
   17         38.158284867000         0.018536782478
   18         18.959517570000         0.470883202515
   19          9.250599619900        -0.507741804878
   20          4.348651762100         0.673653402026
   21          2.038032420900        -2.813472413534
   22          0.691101525400         7.475239310501
   23          0.335060651400        -8.402668304191
   24          0.140744411200         4.216206659817
   25          0.056272458600        -1.110306558626
 S 25
    1   11713823.007999999449         0.000000586004
    2    1755253.397899999982         0.000004552303
    3     399717.419240000017         0.000023915240
    4     113285.792600000001         0.000100873202
    5      36977.205292999999         0.000365893683
    6      13355.036580000000         0.001180809003
    7       5210.901298800000         0.003422541737
    8       2162.113702000000         0.008815468115
    9        943.292910230000         0.019262455036
   10        429.207243310000         0.032429758012
   11        202.407208400000         0.034394851192
   12       3260.498552100000         0.000219390305
   13       1011.106971600000         0.002222383469
   14        392.443592730000         0.010630098431
   15        173.217021320000         0.024069187737
   16         96.619988467000         0.115966201860
   17         38.158284867000        -0.641573282393
   18         18.959517570000         0.776265908649
   19          9.250599619900        -3.125824368324
   20          4.348651762100         8.098949068111
   21          2.038032420900        -8.883704736029
   22          0.691101525400         7.180238632417
   23          0.335060651400        -5.260694108170
   24          0.140744411200         2.116055232025
   25          0.056272458600        -0.533300170269
 S 25
    1   11713823.007999999449         0.000000818112
    2    1755253.397899999982         0.000006355401
    3     399717.419240000017         0.000033387703
    4     113285.792600000001         0.000140827544
    5      36977.205292999999         0.000510818608
    6      13355.036580000000         0.001648509499
    7       5210.901298800000         0.004778158490
    8       2162.113702000000         0.012307141021
    9        943.292910230000         0.026892020646
   10        429.207243310000         0.045274692161
   11        202.407208400000         0.048018128875
   12       3260.498552100000         0.001300903528
   13       1011.106971600000         0.013177913666
   14        392.443592730000         0.063032560026
   15        173.217021320000         0.142721399113
   16         96.619988467000        -0.284445642393
   17         38.158284867000         1.154015569496
   18         18.959517570000        -6.616216977567
   19          9.250599619900        12.688040579551
   20          4.348651762100       -12.591247569287
   21          2.038032420900         7.401293152204
   22          0.691101525400        -3.904733835481
   23          0.335060651400         2.623023112017
   24          0.140744411200        -1.039408617581
   25          0.056272458600         0.264747139289
 S 25
    1   11713823.007999999449         0.000002268072
    2    1755253.397899999982         0.000017619240
    3     399717.419240000017         0.000092561572
    4     113285.792600000001         0.000390419757
    5      36977.205292999999         0.001416155332
    6      13355.036580000000         0.004570204530
    7       5210.901298800000         0.013246609490
    8       2162.113702000000         0.034119397962
    9        943.292910230000         0.074553428195
   10        429.207243310000         0.125516172829
   11        202.407208400000         0.133121871738
   12       3260.498552100000        -0.000392290631
   13       1011.106971600000        -0.003973832000
   14        392.443592730000        -0.019007622178
   15        173.217021320000        -0.043037985924
   16         96.619988467000         1.366310027374
   17         38.158284867000        -8.396111213149
   18         18.959517570000        14.839859942512
   19          9.250599619900       -13.710504819164
   20          4.348651762100         8.733984360476
   21          2.038032420900        -4.170642805087
   22          0.691101525400         2.037300486273
   23          0.335060651400        -1.367961488601
   24          0.140744411200         0.546923138884
   25          0.056272458600        -0.140423639912
 S 25
    1   11713823.007999999449        -0.000000922444
    2    1755253.397899999982        -0.000007165895
    3     399717.419240000017        -0.000037645580
    4     113285.792600000001        -0.000158787044
    5      36977.205292999999        -0.000575962446
    6      13355.036580000000        -0.001858741141
    7       5210.901298800000        -0.005387509002
    8       2162.113702000000        -0.013876650006
    9        943.292910230000        -0.030321514787
   10        429.207243310000        -0.051048497468
   11        202.407208400000        -0.054141800051
   12       3260.498552100000        -0.014631502257
   13       1011.106971600000        -0.148214429007
   14        392.443592730000        -0.708938844956
   15        173.217021320000        -1.605213936999
   16         96.619988467000         6.762310437739
   17         38.158284867000       -10.556644562301
   18         18.959517570000        11.264016555025
   19          9.250599619900        -7.954033927466
   20          4.348651762100         4.545200533746
   21          2.038032420900        -2.123768751112
   22          0.691101525400         1.048198920733
   23          0.335060651400        -0.710093356236
   24          0.140744411200         0.285998400195
   25          0.056272458600        -0.073748226143
 S 25
    1   11713823.007999999449        -0.000036321540
    2    1755253.397899999982        -0.000282159452
    3     399717.419240000017        -0.001482306966
    4     113285.792600000001        -0.006252291486
    5      36977.205292999999        -0.022678708644
    6      13355.036580000000        -0.073188537035
    7       5210.901298800000        -0.212134919335
    8       2162.113702000000        -0.546397607631
    9        943.292910230000        -1.193919507383
   10        429.207243310000        -2.010051192274
   11        202.407208400000        -2.131850987606
   12       3260.498552100000         0.059219687200
   13       1011.106971600000         0.599884548420
   14        392.443592730000         2.869366104996
   15        173.217021320000         6.496958792513
   16         96.619988467000        -7.427604434201
   17         38.158284867000         6.791436692279
   18         18.959517570000        -6.379553883274
   19          9.250599619900         4.371112823606
   20          4.348651762100        -2.517435378980
   21          2.038032420900         1.194118502505
   22          0.691101525400        -0.598542275767
   23          0.335060651400         0.407836167777
   24          0.140744411200        -0.164903469838
   25          0.056272458600         0.042609412568
 P 21
    1      28609.335767000000         0.000060517443
    2       6773.123636400000         0.000537783303
    3       2199.801107900000         0.003093077894
    4        841.502015900000         0.013512318442
    5        356.921102880000         0.047083118129
    6        162.711743510000         0.129584524697
    7         78.004264994000         0.266034980668
    8         38.682579997000         0.367704088425
    9         19.589158685000         0.274028476451
   10          9.799086341700         0.078761694783
   11        261.377868690000        -0.000006581902
   12        100.099321460000        -0.000048308129
   13         44.012139363000        -0.000140055730
   14         10.854010739000         0.001012045246
   15          5.435193018200         0.002304088903
   16          2.706280554200         0.004350411645
   17          1.319563340800        -0.001842100396
   18          0.580044559700         0.000936935249
   19          0.243299762600        -0.000429699867
   20          0.096823725100         0.000155469797
   21          0.026906848500        -0.000034678773
 P 21
    1      28609.335767000000         0.000024904590
    2       6773.123636400000         0.000221312602
    3       2199.801107900000         0.001272886523
    4        841.502015900000         0.005560690234
    5        356.921102880000         0.019375996523
    6        162.711743510000         0.053327591711
    7         78.004264994000         0.109480702753
    8         38.682579997000         0.151320333533
    9         19.589158685000         0.112770245856
   10          9.799086341700         0.032412601054
   11        261.377868690000         0.001311484035
   12        100.099321460000         0.009625688144
   13         44.012139363000         0.027906955109
   14         10.854010739000        -0.201656163761
   15          5.435193018200        -0.459103711971
   16          2.706280554200        -0.414073835137
   17          1.319563340800        -0.117947850234
   18          0.580044559700        -0.005578713060
   19          0.243299762600        -0.000634765817
   20          0.096823725100         0.000105727768
   21          0.026906848500        -0.000026908941
 P 21
    1      28609.335767000000         0.000006691905
    2       6773.123636400000         0.000059467066
    3       2199.801107900000         0.000342026736
    4        841.502015900000         0.001494166757
    5        356.921102880000         0.005206362642
    6        162.711743510000         0.014329212999
    7         78.004264994000         0.029417647763
    8         38.682579997000         0.040660026465
    9         19.589158685000         0.030301553492
   10          9.799086341700         0.008709320062
   11        261.377868690000         0.000451622034
   12        100.099321460000         0.003314697506
   13         44.012139363000         0.009610026122
   14         10.854010739000        -0.069442223050
   15          5.435193018200        -0.158096741379
   16          2.706280554200        -0.180574247576
   17          1.319563340800         0.058028146407
   18          0.580044559700         0.432026646602
   19          0.243299762600         0.495664212777
   20          0.096823725100         0.185492387767
   21          0.026906848500         0.002539530877
 P 21
    1      28609.335767000000         0.000000999057
    2       6773.123636400000         0.000008878039
    3       2199.801107900000         0.000051062326
    4        841.502015900000         0.000223069200
    5        356.921102880000         0.000777275458
    6        162.711743510000         0.002139256592
    7         78.004264994000         0.004391859965
    8         38.682579997000         0.006070272641
    9         19.589158685000         0.004523821235
   10          9.799086341700         0.001300243799
   11        261.377868690000         0.000073093613
   12        100.099321460000         0.000536473418
   13         44.012139363000         0.001555352652
   14         10.854010739000        -0.011239006473
   15          5.435193018200        -0.025587462811
   16          2.706280554200        -0.013330490318
   17          1.319563340800        -0.027048950493
   18          0.580044559700         0.151076736435
   19          0.243299762600        -0.096726989703
   20          0.096823725100         0.459448091546
   21          0.026906848500        -1.207888803695
 P 21
    1      28609.335767000000         0.000003327023
    2       6773.123636400000         0.000029565315
    3       2199.801107900000         0.000170045857
    4        841.502015900000         0.000742856744
    5        356.921102880000         0.002588453785
    6        162.711743510000         0.007124072635
    7         78.004264994000         0.014625608499
    8         38.682579997000         0.020214995890
    9         19.589158685000         0.015065061009
   10          9.799086341700         0.004330023479
   11        261.377868690000         0.000201643027
   12        100.099321460000         0.001479966846
   13         44.012139363000         0.004290744488
   14         10.854010739000        -0.031004997490
   15          5.435193018200        -0.070588020578
   16          2.706280554200        -0.172058833715
   17          1.319563340800         0.246340803564
   18          0.580044559700        -0.229080055008
   19          0.243299762600         1.512880818296
   20          0.096823725100        -2.136704280852
   21          0.026906848500         0.735143334290
 P 21
    1      28609.335767000000         0.000007322341
    2       6773.123636400000         0.000065069383
    3       2199.801107900000         0.000374248643
    4        841.502015900000         0.001634930324
    5        356.921102880000         0.005696847502
    6        162.711743510000         0.015679150089
    7         78.004264994000         0.032189047269
    8         38.682579997000         0.044490556293
    9         19.589158685000         0.033156224642
   10          9.799086341700         0.009529814124
   11        261.377868690000         0.000623036099
   12        100.099321460000         0.004572797709
   13         44.012139363000         0.013257531147
   14         10.854010739000        -0.095799160519
   15          5.435193018200        -0.218102682197
   16          2.706280554200         0.085047863368
   17          1.319563340800        -0.743541333147
   18          0.580044559700         2.892334428187
   19          0.243299762600        -3.301572753399
   20          0.096823725100         1.573444821823
   21          0.026906848500        -0.353208042453
 P 21
    1      28609.335767000000         0.000012555279
    2       6773.123636400000         0.000111571462
    3       2199.801107900000         0.000641706839
    4        841.502015900000         0.002803339409
    5        356.921102880000         0.009768120927
    6        162.711743510000         0.026884313483
    7         78.004264994000         0.055193070579
    8         38.682579997000         0.076285899147
    9         19.589158685000         0.056851444887
   10          9.799086341700         0.016340331517
   11        261.377868690000         0.000612410654
   12        100.099321460000         0.004494811844
   13         44.012139363000         0.013031433231
   14         10.854010739000        -0.094165372874
   15          5.435193018200        -0.214383093574
   16          2.706280554200        -1.782275839033
   17          1.319563340800         4.467669512385
   18          0.580044559700        -4.151636957710
   19          0.243299762600         2.261352083937
   20          0.096823725100        -0.817893101183
   21          0.026906848500         0.174989012964
 P 21
    1      28609.335767000000         0.000027998596
    2       6773.123636400000         0.000248807229
    3       2199.801107900000         0.001431022748
    4        841.502015900000         0.006251518952
    5        356.921102880000         0.021783160792
    6        162.711743510000         0.059952710225
    7         78.004264994000         0.123081966331
    8         38.682579997000         0.170119516304
    9         19.589158685000         0.126780183672
   10          9.799086341700         0.036439359370
   11        261.377868690000         0.005400555886
   12        100.099321460000         0.039637590233
   13         44.012139363000         0.114917960642
   14         10.854010739000        -0.830399267852
   15          5.435193018200        -1.890541698197
   16          2.706280554200         5.046549105266
   17          1.319563340800        -4.626551212647
   18          0.580044559700         2.555232185258
   19          0.243299762600        -1.155587491730
   20          0.096823725100         0.407753755537
   21          0.026906848500        -0.088782404693
 D 11
    1        665.350573860000         0.000595866893
    2        200.179953660000         0.005459241778
    3         77.545085570000         0.027980048316
    4         33.677854345000         0.094115989966
    5         15.624928334000         0.218244791553
    6          7.442786742300         0.337388327267
    7          3.533607353500         0.351402330466
    8          1.636372514200         0.207729200039
    9          0.678456847300         0.043993669195
   10          0.270000000000         0.000291427268
   11          0.090067366900         0.000569457204
 D 11
    1        665.350573860000         0.000039866178
    2        200.179953660000         0.000365247858
    3         77.545085570000         0.001871991225
    4         33.677854345000         0.006296783527
    5         15.624928334000         0.014601559297
    6          7.442786742300         0.022572798333
    7          3.533607353500         0.023510398251
    8          1.636372514200         0.019596751987
    9          0.678456847300        -0.131811629666
   10          0.270000000000         0.065743153101
   11          0.090067366900        -1.008950179592
 D 11
    1        665.350573860000         0.000130961112
    2        200.179953660000         0.001199845780
    3         77.545085570000         0.006149524835
    4         33.677854345000         0.020685047115
    5         15.624928334000         0.047966384856
    6          7.442786742300         0.074152048424
    7          3.533607353500         0.077232081015
    8          1.636372514200        -0.073002702073
    9          0.678456847300         0.033944430393
   10          0.270000000000        -1.254137597624
   11          0.090067366900         0.794619261933
 D 11
    1        665.350573860000         0.000217740306
    2        200.179953660000         0.001994903544
    3         77.545085570000         0.010224404745
    4         33.677854345000         0.034391648061
    5         15.624928334000         0.079750508547
    6          7.442786742300         0.123287664672
    7          3.533607353500         0.128408629410
    8          1.636372514200         0.179501569806
    9          0.678456847300        -1.689982881235
   10          0.270000000000         1.481084212472
   11          0.090067366900        -0.470291163295
 D 11
    1        665.350573860000         0.000562772710
    2        200.179953660000         0.005156037916
    3         77.545085570000         0.026426048868
    4         33.677854345000         0.088888829710
    5         15.624928334000         0.206123572821
    6          7.442786742300         0.318649929511
    7          3.533607353500         0.331885601200
    8          1.636372514200        -1.961956320864
    9          0.678456847300         1.794439857862
   10          0.270000000000        -0.835716111107
   11          0.090067366900         0.228852652483
 F 4
    1         14.180116992000        -0.000832335294
    2          4.539318368000         0.031787252368
    3          0.413000000000         1.057945430862
    4          0.955700000000        -0.091378724509
 F 4
    1         14.180116992000         0.015646044225
    2          4.539318368000         0.096817379892
    3          0.413000000000        -0.846097783361
    4          0.955700000000         1.311663563344
 F 4
    1         14.180116992000         0.051117584592
    2          4.539318368000         1.026744622992
    3          0.413000000000         0.299270428761
    4          0.955700000000        -0.596462006423
 F 4
    1         14.180116992000         1.166106271117
    2          4.539318368000        -0.683445753794
    3          0.413000000000        -0.108086704761
    4          0.955700000000         0.218942170991
 G 1
    1          0.739500000000         1.000000000000
 end
  // -----------------------------------------------
  // The basis set
  // -----------------------------------------------
  BAS[ATNO] = new BFNGauss[NSH];
  // Basis function   1 L = s
  InitBFNGauss(BAS[ATNO][  0]);
  BAS[ATNO][  0].l  = 0;
  BAS[ATNO][  0].ng = 25;
  BAS[ATNO][  0].a[  0] =  11713823.007999999449;     BAS[ATNO][  0].d[  0] =         0.000005639373;
  BAS[ATNO][  0].a[  1] =   1755253.397899999982;     BAS[ATNO][  0].d[  1] =         0.000043808784;
  BAS[ATNO][  0].a[  2] =    399717.419240000017;     BAS[ATNO][  0].d[  2] =         0.000230146695;
  BAS[ATNO][  0].a[  3] =    113285.792600000001;     BAS[ATNO][  0].d[  3] =         0.000970746448;
  BAS[ATNO][  0].a[  4] =     36977.205292999999;     BAS[ATNO][  0].d[  4] =         0.003521153151;
  BAS[ATNO][  0].a[  5] =     13355.036580000000;     BAS[ATNO][  0].d[  5] =         0.011363435716;
  BAS[ATNO][  0].a[  6] =      5210.901298800000;     BAS[ATNO][  0].d[  6] =         0.032936599318;
  BAS[ATNO][  0].a[  7] =      2162.113702000000;     BAS[ATNO][  0].d[  7] =         0.084835062174;
  BAS[ATNO][  0].a[  8] =       943.292910230000;     BAS[ATNO][  0].d[  8] =         0.185370935423;
  BAS[ATNO][  0].a[  9] =       429.207243310000;     BAS[ATNO][  0].d[  9] =         0.312085586554;
  BAS[ATNO][  0].a[ 10] =       202.407208400000;     BAS[ATNO][  0].d[ 10] =         0.330996528084;
  BAS[ATNO][  0].a[ 11] =      3260.498552100000;     BAS[ATNO][  0].d[ 11] =         0.000046605771;
  BAS[ATNO][  0].a[ 12] =      1011.106971600000;     BAS[ATNO][  0].d[ 12] =         0.000472107900;
  BAS[ATNO][  0].a[ 13] =       392.443592730000;     BAS[ATNO][  0].d[ 13] =         0.002258185197;
  BAS[ATNO][  0].a[ 14] =       173.217021320000;     BAS[ATNO][  0].d[ 14] =         0.005113093149;
  BAS[ATNO][  0].a[ 15] =        96.619988467000;     BAS[ATNO][  0].d[ 15] =         0.164044510875;
  BAS[ATNO][  0].a[ 16] =        38.158284867000;     BAS[ATNO][  0].d[ 16] =         0.016839513858;
  BAS[ATNO][  0].a[ 17] =        18.959517570000;     BAS[ATNO][  0].d[ 17] =        -0.003428422974;
  BAS[ATNO][  0].a[ 18] =         9.250599619900;     BAS[ATNO][  0].d[ 18] =         0.001660902357;
  BAS[ATNO][  0].a[ 19] =         4.348651762100;     BAS[ATNO][  0].d[ 19] =        -0.000877103598;
  BAS[ATNO][  0].a[ 20] =         2.038032420900;     BAS[ATNO][  0].d[ 20] =         0.000362624816;
  BAS[ATNO][  0].a[ 21] =         0.691101525400;     BAS[ATNO][  0].d[ 21] =        -0.000178112014;
  BAS[ATNO][  0].a[ 22] =         0.335060651400;     BAS[ATNO][  0].d[ 22] =         0.000122385444;
  BAS[ATNO][  0].a[ 23] =         0.140744411200;     BAS[ATNO][  0].d[ 23] =        -0.000048890733;
  BAS[ATNO][  0].a[ 24] =         0.056272458600;     BAS[ATNO][  0].d[ 24] =         0.000012675257;

  // Basis function   2 L = s
  InitBFNGauss(BAS[ATNO][  1]);
  BAS[ATNO][  1].l  = 0;
  BAS[ATNO][  1].ng = 25;
  BAS[ATNO][  1].a[  0] =  11713823.007999999449;     BAS[ATNO][  1].d[  0] =        -0.000001790117;
  BAS[ATNO][  1].a[  1] =   1755253.397899999982;     BAS[ATNO][  1].d[  1] =        -0.000013906307;
  BAS[ATNO][  1].a[  2] =    399717.419240000017;     BAS[ATNO][  1].d[  2] =        -0.000073055910;
  BAS[ATNO][  1].a[  3] =    113285.792600000001;     BAS[ATNO][  1].d[  3] =        -0.000308145919;
  BAS[ATNO][  1].a[  4] =     36977.205292999999;     BAS[ATNO][  1].d[  4] =        -0.001117726442;
  BAS[ATNO][  1].a[  5] =     13355.036580000000;     BAS[ATNO][  1].d[  5] =        -0.003607117336;
  BAS[ATNO][  1].a[  6] =      5210.901298800000;     BAS[ATNO][  1].d[  6] =        -0.010455128305;
  BAS[ATNO][  1].a[  7] =      2162.113702000000;     BAS[ATNO][  1].d[  7] =        -0.026929357557;
  BAS[ATNO][  1].a[  8] =       943.292910230000;     BAS[ATNO][  1].d[  8] =        -0.058842653883;
  BAS[ATNO][  1].a[  9] =       429.207243310000;     BAS[ATNO][  1].d[  9] =        -0.099065930210;
  BAS[ATNO][  1].a[ 10] =       202.407208400000;     BAS[ATNO][  1].d[ 10] =        -0.105068866886;
  BAS[ATNO][  1].a[ 11] =      3260.498552100000;     BAS[ATNO][  1].d[ 11] =        -0.001006705346;
  BAS[ATNO][  1].a[ 12] =      1011.106971600000;     BAS[ATNO][  1].d[ 12] =        -0.010197740152;
  BAS[ATNO][  1].a[ 13] =       392.443592730000;     BAS[ATNO][  1].d[ 13] =        -0.048777802358;
  BAS[ATNO][  1].a[ 14] =       173.217021320000;     BAS[ATNO][  1].d[ 14] =        -0.110445081008;
  BAS[ATNO][  1].a[ 15] =        96.619988467000;     BAS[ATNO][  1].d[ 15] =        -0.064453767986;
  BAS[ATNO][  1].a[ 16] =        38.158284867000;     BAS[ATNO][  1].d[ 16] =         0.407288653935;
  BAS[ATNO][  1].a[ 17] =        18.959517570000;     BAS[ATNO][  1].d[ 17] =         0.567293055510;
  BAS[ATNO][  1].a[ 18] =         9.250599619900;     BAS[ATNO][  1].d[ 18] =         0.181888532209;
  BAS[ATNO][  1].a[ 19] =         4.348651762100;     BAS[ATNO][  1].d[ 19] =         0.008116757525;
  BAS[ATNO][  1].a[ 20] =         2.038032420900;     BAS[ATNO][  1].d[ 20] =         0.001807592569;
  BAS[ATNO][  1].a[ 21] =         0.691101525400;     BAS[ATNO][  1].d[ 21] =        -0.000475730840;
  BAS[ATNO][  1].a[ 22] =         0.335060651400;     BAS[ATNO][  1].d[ 22] =         0.000249118127;
  BAS[ATNO][  1].a[ 23] =         0.140744411200;     BAS[ATNO][  1].d[ 23] =        -0.000121080676;
  BAS[ATNO][  1].a[ 24] =         0.056272458600;     BAS[ATNO][  1].d[ 24] =         0.000028992427;

  // Basis function   3 L = s
  InitBFNGauss(BAS[ATNO][  2]);
  BAS[ATNO][  2].l  = 0;
  BAS[ATNO][  2].ng = 25;
  BAS[ATNO][  2].a[  0] =  11713823.007999999449;     BAS[ATNO][  2].d[  0] =         0.000000716189;
  BAS[ATNO][  2].a[  1] =   1755253.397899999982;     BAS[ATNO][  2].d[  1] =         0.000005563631;
  BAS[ATNO][  2].a[  2] =    399717.419240000017;     BAS[ATNO][  2].d[  2] =         0.000029228185;
  BAS[ATNO][  2].a[  3] =    113285.792600000001;     BAS[ATNO][  2].d[  3] =         0.000123282919;
  BAS[ATNO][  2].a[  4] =     36977.205292999999;     BAS[ATNO][  2].d[  4] =         0.000447179630;
  BAS[ATNO][  2].a[  5] =     13355.036580000000;     BAS[ATNO][  2].d[  5] =         0.001443134326;
  BAS[ATNO][  2].a[  6] =      5210.901298800000;     BAS[ATNO][  2].d[  6] =         0.004182884318;
  BAS[ATNO][  2].a[  7] =      2162.113702000000;     BAS[ATNO][  2].d[  7] =         0.010773888578;
  BAS[ATNO][  2].a[  8] =       943.292910230000;     BAS[ATNO][  2].d[  8] =         0.023541749751;
  BAS[ATNO][  2].a[  9] =       429.207243310000;     BAS[ATNO][  2].d[  9] =         0.039634265008;
  BAS[ATNO][  2].a[ 10] =       202.407208400000;     BAS[ATNO][  2].d[ 10] =         0.042035917954;
  BAS[ATNO][  2].a[ 11] =      3260.498552100000;     BAS[ATNO][  2].d[ 11] =         0.000476942589;
  BAS[ATNO][  2].a[ 12] =      1011.106971600000;     BAS[ATNO][  2].d[ 12] =         0.004831340779;
  BAS[ATNO][  2].a[ 13] =       392.443592730000;     BAS[ATNO][  2].d[ 13] =         0.023109255788;
  BAS[ATNO][  2].a[ 14] =       173.217021320000;     BAS[ATNO][  2].d[ 14] =         0.052325104948;
  BAS[ATNO][  2].a[ 15] =        96.619988467000;     BAS[ATNO][  2].d[ 15] =         0.030954347195;
  BAS[ATNO][  2].a[ 16] =        38.158284867000;     BAS[ATNO][  2].d[ 16] =        -0.252147143111;
  BAS[ATNO][  2].a[ 17] =        18.959517570000;     BAS[ATNO][  2].d[ 17] =        -0.512408610207;
  BAS[ATNO][  2].a[ 18] =         9.250599619900;     BAS[ATNO][  2].d[ 18] =        -0.092913365326;
  BAS[ATNO][  2].a[ 19] =         4.348651762100;     BAS[ATNO][  2].d[ 19] =         0.694173684464;
  BAS[ATNO][  2].a[ 20] =         2.038032420900;     BAS[ATNO][  2].d[ 20] =         0.555880021731;
  BAS[ATNO][  2].a[ 21] =         0.691101525400;     BAS[ATNO][  2].d[ 21] =         0.045645299221;
  BAS[ATNO][  2].a[ 22] =         0.335060651400;     BAS[ATNO][  2].d[ 22] =        -0.010054106398;
  BAS[ATNO][  2].a[ 23] =         0.140744411200;     BAS[ATNO][  2].d[ 23] =         0.003536216850;
  BAS[ATNO][  2].a[ 24] =         0.056272458600;     BAS[ATNO][  2].d[ 24] =        -0.000744239891;

  // Basis function   4 L = s
  InitBFNGauss(BAS[ATNO][  3]);
  BAS[ATNO][  3].l  = 0;
  BAS[ATNO][  3].ng = 25;
  BAS[ATNO][  3].a[  0] =  11713823.007999999449;     BAS[ATNO][  3].d[  0] =        -0.000000228059;
  BAS[ATNO][  3].a[  1] =   1755253.397899999982;     BAS[ATNO][  3].d[  1] =        -0.000001771645;
  BAS[ATNO][  3].a[  2] =    399717.419240000017;     BAS[ATNO][  3].d[  2] =        -0.000009307227;
  BAS[ATNO][  3].a[  3] =    113285.792600000001;     BAS[ATNO][  3].d[  3] =        -0.000039257387;
  BAS[ATNO][  3].a[  4] =     36977.205292999999;     BAS[ATNO][  3].d[  4] =        -0.000142396885;
  BAS[ATNO][  3].a[  5] =     13355.036580000000;     BAS[ATNO][  3].d[  5] =        -0.000459542024;
  BAS[ATNO][  3].a[  6] =      5210.901298800000;     BAS[ATNO][  3].d[  6] =        -0.001331969653;
  BAS[ATNO][  3].a[  7] =      2162.113702000000;     BAS[ATNO][  3].d[  7] =        -0.003430764884;
  BAS[ATNO][  3].a[  8] =       943.292910230000;     BAS[ATNO][  3].d[  8] =        -0.007496477040;
  BAS[ATNO][  3].a[  9] =       429.207243310000;     BAS[ATNO][  3].d[  9] =        -0.012620869765;
  BAS[ATNO][  3].a[ 10] =       202.407208400000;     BAS[ATNO][  3].d[ 10] =        -0.013385636036;
  BAS[ATNO][  3].a[ 11] =      3260.498552100000;     BAS[ATNO][  3].d[ 11] =        -0.000155506711;
  BAS[ATNO][  3].a[ 12] =      1011.106971600000;     BAS[ATNO][  3].d[ 12] =        -0.001575254404;
  BAS[ATNO][  3].a[ 13] =       392.443592730000;     BAS[ATNO][  3].d[ 13] =        -0.007534752485;
  BAS[ATNO][  3].a[ 14] =       173.217021320000;     BAS[ATNO][  3].d[ 14] =        -0.017060554359;
  BAS[ATNO][  3].a[ 15] =        96.619988467000;     BAS[ATNO][  3].d[ 15] =        -0.010294530649;
  BAS[ATNO][  3].a[ 16] =        38.158284867000;     BAS[ATNO][  3].d[ 16] =         0.086652784397;
  BAS[ATNO][  3].a[ 17] =        18.959517570000;     BAS[ATNO][  3].d[ 17] =         0.184302463628;
  BAS[ATNO][  3].a[ 18] =         9.250599619900;     BAS[ATNO][  3].d[ 18] =         0.035520896087;
  BAS[ATNO][  3].a[ 19] =         4.348651762100;     BAS[ATNO][  3].d[ 19] =        -0.339590646617;
  BAS[ATNO][  3].a[ 20] =         2.038032420900;     BAS[ATNO][  3].d[ 20] =        -0.479101500802;
  BAS[ATNO][  3].a[ 21] =         0.691101525400;     BAS[ATNO][  3].d[ 21] =         0.292791933867;
  BAS[ATNO][  3].a[ 22] =         0.335060651400;     BAS[ATNO][  3].d[ 22] =         0.707274287330;
  BAS[ATNO][  3].a[ 23] =         0.140744411200;     BAS[ATNO][  3].d[ 23] =         0.271573501577;
  BAS[ATNO][  3].a[ 24] =         0.056272458600;     BAS[ATNO][  3].d[ 24] =         0.002129772386;

  // Basis function   5 L = s
  InitBFNGauss(BAS[ATNO][  4]);
  BAS[ATNO][  4].l  = 0;
  BAS[ATNO][  4].ng = 25;
  BAS[ATNO][  4].a[  0] =  11713823.007999999449;     BAS[ATNO][  4].d[  0] =         0.000000057448;
  BAS[ATNO][  4].a[  1] =   1755253.397899999982;     BAS[ATNO][  4].d[  1] =         0.000000446282;
  BAS[ATNO][  4].a[  2] =    399717.419240000017;     BAS[ATNO][  4].d[  2] =         0.000002344512;
  BAS[ATNO][  4].a[  3] =    113285.792600000001;     BAS[ATNO][  4].d[  3] =         0.000009889026;
  BAS[ATNO][  4].a[  4] =     36977.205292999999;     BAS[ATNO][  4].d[  4] =         0.000035870101;
  BAS[ATNO][  4].a[  5] =     13355.036580000000;     BAS[ATNO][  4].d[  5] =         0.000115759689;
  BAS[ATNO][  4].a[  6] =      5210.901298800000;     BAS[ATNO][  4].d[  6] =         0.000335526206;
  BAS[ATNO][  4].a[  7] =      2162.113702000000;     BAS[ATNO][  4].d[  7] =         0.000864217532;
  BAS[ATNO][  4].a[  8] =       943.292910230000;     BAS[ATNO][  4].d[  8] =         0.001888379736;
  BAS[ATNO][  4].a[  9] =       429.207243310000;     BAS[ATNO][  4].d[  9] =         0.003179226001;
  BAS[ATNO][  4].a[ 10] =       202.407208400000;     BAS[ATNO][  4].d[ 10] =         0.003371872376;
  BAS[ATNO][  4].a[ 11] =      3260.498552100000;     BAS[ATNO][  4].d[ 11] =         0.000042126061;
  BAS[ATNO][  4].a[ 12] =      1011.106971600000;     BAS[ATNO][  4].d[ 12] =         0.000426729258;
  BAS[ATNO][  4].a[ 13] =       392.443592730000;     BAS[ATNO][  4].d[ 13] =         0.002041130203;
  BAS[ATNO][  4].a[ 14] =       173.217021320000;     BAS[ATNO][  4].d[ 14] =         0.004621626636;
  BAS[ATNO][  4].a[ 15] =        96.619988467000;     BAS[ATNO][  4].d[ 15] =         0.001285819508;
  BAS[ATNO][  4].a[ 16] =        38.158284867000;     BAS[ATNO][  4].d[ 16] =        -0.016172633818;
  BAS[ATNO][  4].a[ 17] =        18.959517570000;     BAS[ATNO][  4].d[ 17] =        -0.065210213694;
  BAS[ATNO][  4].a[ 18] =         9.250599619900;     BAS[ATNO][  4].d[ 18] =         0.029297243959;
  BAS[ATNO][  4].a[ 19] =         4.348651762100;     BAS[ATNO][  4].d[ 19] =         0.014804920818;
  BAS[ATNO][  4].a[ 20] =         2.038032420900;     BAS[ATNO][  4].d[ 20] =         0.258719698113;
  BAS[ATNO][  4].a[ 21] =         0.691101525400;     BAS[ATNO][  4].d[ 21] =        -0.472401061626;
  BAS[ATNO][  4].a[ 22] =         0.335060651400;     BAS[ATNO][  4].d[ 22] =         0.616705016514;
  BAS[ATNO][  4].a[ 23] =         0.140744411200;     BAS[ATNO][  4].d[ 23] =        -1.836228523792;
  BAS[ATNO][  4].a[ 24] =         0.056272458600;     BAS[ATNO][  4].d[ 24] =         2.049348194554;

  // Basis function   6 L = s
  InitBFNGauss(BAS[ATNO][  5]);
  BAS[ATNO][  5].l  = 0;
  BAS[ATNO][  5].ng = 25;
  BAS[ATNO][  5].a[  0] =  11713823.007999999449;     BAS[ATNO][  5].d[  0] =         0.000000135143;
  BAS[ATNO][  5].a[  1] =   1755253.397899999982;     BAS[ATNO][  5].d[  1] =         0.000001049840;
  BAS[ATNO][  5].a[  2] =    399717.419240000017;     BAS[ATNO][  5].d[  2] =         0.000005515271;
  BAS[ATNO][  5].a[  3] =    113285.792600000001;     BAS[ATNO][  5].d[  3] =         0.000023263118;
  BAS[ATNO][  5].a[  4] =     36977.205292999999;     BAS[ATNO][  5].d[  4] =         0.000084381459;
  BAS[ATNO][  5].a[  5] =     13355.036580000000;     BAS[ATNO][  5].d[  5] =         0.000272315134;
  BAS[ATNO][  5].a[  6] =      5210.901298800000;     BAS[ATNO][  5].d[  6] =         0.000789297767;
  BAS[ATNO][  5].a[  7] =      2162.113702000000;     BAS[ATNO][  5].d[  7] =         0.002033000569;
  BAS[ATNO][  5].a[  8] =       943.292910230000;     BAS[ATNO][  5].d[  8] =         0.004442257807;
  BAS[ATNO][  5].a[  9] =       429.207243310000;     BAS[ATNO][  5].d[  9] =         0.007478867333;
  BAS[ATNO][  5].a[ 10] =       202.407208400000;     BAS[ATNO][  5].d[ 10] =         0.007932052065;
  BAS[ATNO][  5].a[ 11] =      3260.498552100000;     BAS[ATNO][  5].d[ 11] =         0.000080980233;
  BAS[ATNO][  5].a[ 12] =      1011.106971600000;     BAS[ATNO][  5].d[ 12] =         0.000820314874;
  BAS[ATNO][  5].a[ 13] =       392.443592730000;     BAS[ATNO][  5].d[ 13] =         0.003923727827;
  BAS[ATNO][  5].a[ 14] =       173.217021320000;     BAS[ATNO][  5].d[ 14] =         0.008884296069;
  BAS[ATNO][  5].a[ 15] =        96.619988467000;     BAS[ATNO][  5].d[ 15] =         0.011411163918;
  BAS[ATNO][  5].a[ 16] =        38.158284867000;     BAS[ATNO][  5].d[ 16] =        -0.075204440770;
  BAS[ATNO][  5].a[ 17] =        18.959517570000;     BAS[ATNO][  5].d[ 17] =        -0.037571225181;
  BAS[ATNO][  5].a[ 18] =         9.250599619900;     BAS[ATNO][  5].d[ 18] =        -0.177504373541;
  BAS[ATNO][  5].a[ 19] =         4.348651762100;     BAS[ATNO][  5].d[ 19] =         0.519511621003;
  BAS[ATNO][  5].a[ 20] =         2.038032420900;     BAS[ATNO][  5].d[ 20] =        -0.190785857541;
  BAS[ATNO][  5].a[ 21] =         0.691101525400;     BAS[ATNO][  5].d[ 21] =         1.377130695507;
  BAS[ATNO][  5].a[ 22] =         0.335060651400;     BAS[ATNO][  5].d[ 22] =        -4.627075157355;
  BAS[ATNO][  5].a[ 23] =         0.140744411200;     BAS[ATNO][  5].d[ 23] =         5.111958320872;
  BAS[ATNO][  5].a[ 24] =         0.056272458600;     BAS[ATNO][  5].d[ 24] =        -1.965856484168;

  // Basis function   7 L = s
  InitBFNGauss(BAS[ATNO][  6]);
  BAS[ATNO][  6].l  = 0;
  BAS[ATNO][  6].ng = 25;
  BAS[ATNO][  6].a[  0] =  11713823.007999999449;     BAS[ATNO][  6].d[  0] =         0.000000254891;
  BAS[ATNO][  6].a[  1] =   1755253.397899999982;     BAS[ATNO][  6].d[  1] =         0.000001980089;
  BAS[ATNO][  6].a[  2] =    399717.419240000017;     BAS[ATNO][  6].d[  2] =         0.000010402274;
  BAS[ATNO][  6].a[  3] =    113285.792600000001;     BAS[ATNO][  6].d[  3] =         0.000043876235;
  BAS[ATNO][  6].a[  4] =     36977.205292999999;     BAS[ATNO][  6].d[  4] =         0.000159150667;
  BAS[ATNO][  6].a[  5] =     13355.036580000000;     BAS[ATNO][  6].d[  5] =         0.000513609689;
  BAS[ATNO][  6].a[  6] =      5210.901298800000;     BAS[ATNO][  6].d[  6] =         0.001488683260;
  BAS[ATNO][  6].a[  7] =      2162.113702000000;     BAS[ATNO][  6].d[  7] =         0.003834413374;
  BAS[ATNO][  6].a[  8] =       943.292910230000;     BAS[ATNO][  6].d[  8] =         0.008378479084;
  BAS[ATNO][  6].a[  9] =       429.207243310000;     BAS[ATNO][  6].d[  9] =         0.014105784995;
  BAS[ATNO][  6].a[ 10] =       202.407208400000;     BAS[ATNO][  6].d[ 10] =         0.014960530253;
  BAS[ATNO][  6].a[ 11] =      3260.498552100000;     BAS[ATNO][  6].d[ 11] =         0.000214563793;
  BAS[ATNO][  6].a[ 12] =      1011.106971600000;     BAS[ATNO][  6].d[ 12] =         0.002173491789;
  BAS[ATNO][  6].a[ 13] =       392.443592730000;     BAS[ATNO][  6].d[ 13] =         0.010396239886;
  BAS[ATNO][  6].a[ 14] =       173.217021320000;     BAS[ATNO][  6].d[ 14] =         0.023539673805;
  BAS[ATNO][  6].a[ 15] =        96.619988467000;     BAS[ATNO][  6].d[ 15] =        -0.006502548556;
  BAS[ATNO][  6].a[ 16] =        38.158284867000;     BAS[ATNO][  6].d[ 16] =        -0.018536782478;
  BAS[ATNO][  6].a[ 17] =        18.959517570000;     BAS[ATNO][  6].d[ 17] =        -0.470883202515;
  BAS[ATNO][  6].a[ 18] =         9.250599619900;     BAS[ATNO][  6].d[ 18] =         0.507741804878;
  BAS[ATNO][  6].a[ 19] =         4.348651762100;     BAS[ATNO][  6].d[ 19] =        -0.673653402026;
  BAS[ATNO][  6].a[ 20] =         2.038032420900;     BAS[ATNO][  6].d[ 20] =         2.813472413534;
  BAS[ATNO][  6].a[ 21] =         0.691101525400;     BAS[ATNO][  6].d[ 21] =        -7.475239310501;
  BAS[ATNO][  6].a[ 22] =         0.335060651400;     BAS[ATNO][  6].d[ 22] =         8.402668304191;
  BAS[ATNO][  6].a[ 23] =         0.140744411200;     BAS[ATNO][  6].d[ 23] =        -4.216206659817;
  BAS[ATNO][  6].a[ 24] =         0.056272458600;     BAS[ATNO][  6].d[ 24] =         1.110306558626;

  // Basis function   8 L = s
  InitBFNGauss(BAS[ATNO][  7]);
  BAS[ATNO][  7].l  = 0;
  BAS[ATNO][  7].ng = 25;
  BAS[ATNO][  7].a[  0] =  11713823.007999999449;     BAS[ATNO][  7].d[  0] =        -0.000000586004;
  BAS[ATNO][  7].a[  1] =   1755253.397899999982;     BAS[ATNO][  7].d[  1] =        -0.000004552303;
  BAS[ATNO][  7].a[  2] =    399717.419240000017;     BAS[ATNO][  7].d[  2] =        -0.000023915240;
  BAS[ATNO][  7].a[  3] =    113285.792600000001;     BAS[ATNO][  7].d[  3] =        -0.000100873202;
  BAS[ATNO][  7].a[  4] =     36977.205292999999;     BAS[ATNO][  7].d[  4] =        -0.000365893683;
  BAS[ATNO][  7].a[  5] =     13355.036580000000;     BAS[ATNO][  7].d[  5] =        -0.001180809003;
  BAS[ATNO][  7].a[  6] =      5210.901298800000;     BAS[ATNO][  7].d[  6] =        -0.003422541737;
  BAS[ATNO][  7].a[  7] =      2162.113702000000;     BAS[ATNO][  7].d[  7] =        -0.008815468115;
  BAS[ATNO][  7].a[  8] =       943.292910230000;     BAS[ATNO][  7].d[  8] =        -0.019262455036;
  BAS[ATNO][  7].a[  9] =       429.207243310000;     BAS[ATNO][  7].d[  9] =        -0.032429758012;
  BAS[ATNO][  7].a[ 10] =       202.407208400000;     BAS[ATNO][  7].d[ 10] =        -0.034394851192;
  BAS[ATNO][  7].a[ 11] =      3260.498552100000;     BAS[ATNO][  7].d[ 11] =        -0.000219390305;
  BAS[ATNO][  7].a[ 12] =      1011.106971600000;     BAS[ATNO][  7].d[ 12] =        -0.002222383469;
  BAS[ATNO][  7].a[ 13] =       392.443592730000;     BAS[ATNO][  7].d[ 13] =        -0.010630098431;
  BAS[ATNO][  7].a[ 14] =       173.217021320000;     BAS[ATNO][  7].d[ 14] =        -0.024069187737;
  BAS[ATNO][  7].a[ 15] =        96.619988467000;     BAS[ATNO][  7].d[ 15] =        -0.115966201860;
  BAS[ATNO][  7].a[ 16] =        38.158284867000;     BAS[ATNO][  7].d[ 16] =         0.641573282393;
  BAS[ATNO][  7].a[ 17] =        18.959517570000;     BAS[ATNO][  7].d[ 17] =        -0.776265908649;
  BAS[ATNO][  7].a[ 18] =         9.250599619900;     BAS[ATNO][  7].d[ 18] =         3.125824368324;
  BAS[ATNO][  7].a[ 19] =         4.348651762100;     BAS[ATNO][  7].d[ 19] =        -8.098949068111;
  BAS[ATNO][  7].a[ 20] =         2.038032420900;     BAS[ATNO][  7].d[ 20] =         8.883704736029;
  BAS[ATNO][  7].a[ 21] =         0.691101525400;     BAS[ATNO][  7].d[ 21] =        -7.180238632417;
  BAS[ATNO][  7].a[ 22] =         0.335060651400;     BAS[ATNO][  7].d[ 22] =         5.260694108170;
  BAS[ATNO][  7].a[ 23] =         0.140744411200;     BAS[ATNO][  7].d[ 23] =        -2.116055232025;
  BAS[ATNO][  7].a[ 24] =         0.056272458600;     BAS[ATNO][  7].d[ 24] =         0.533300170269;

  // Basis function   9 L = s
  InitBFNGauss(BAS[ATNO][  8]);
  BAS[ATNO][  8].l  = 0;
  BAS[ATNO][  8].ng = 25;
  BAS[ATNO][  8].a[  0] =  11713823.007999999449;     BAS[ATNO][  8].d[  0] =         0.000000818112;
  BAS[ATNO][  8].a[  1] =   1755253.397899999982;     BAS[ATNO][  8].d[  1] =         0.000006355401;
  BAS[ATNO][  8].a[  2] =    399717.419240000017;     BAS[ATNO][  8].d[  2] =         0.000033387703;
  BAS[ATNO][  8].a[  3] =    113285.792600000001;     BAS[ATNO][  8].d[  3] =         0.000140827544;
  BAS[ATNO][  8].a[  4] =     36977.205292999999;     BAS[ATNO][  8].d[  4] =         0.000510818608;
  BAS[ATNO][  8].a[  5] =     13355.036580000000;     BAS[ATNO][  8].d[  5] =         0.001648509499;
  BAS[ATNO][  8].a[  6] =      5210.901298800000;     BAS[ATNO][  8].d[  6] =         0.004778158490;
  BAS[ATNO][  8].a[  7] =      2162.113702000000;     BAS[ATNO][  8].d[  7] =         0.012307141021;
  BAS[ATNO][  8].a[  8] =       943.292910230000;     BAS[ATNO][  8].d[  8] =         0.026892020646;
  BAS[ATNO][  8].a[  9] =       429.207243310000;     BAS[ATNO][  8].d[  9] =         0.045274692161;
  BAS[ATNO][  8].a[ 10] =       202.407208400000;     BAS[ATNO][  8].d[ 10] =         0.048018128875;
  BAS[ATNO][  8].a[ 11] =      3260.498552100000;     BAS[ATNO][  8].d[ 11] =         0.001300903528;
  BAS[ATNO][  8].a[ 12] =      1011.106971600000;     BAS[ATNO][  8].d[ 12] =         0.013177913666;
  BAS[ATNO][  8].a[ 13] =       392.443592730000;     BAS[ATNO][  8].d[ 13] =         0.063032560026;
  BAS[ATNO][  8].a[ 14] =       173.217021320000;     BAS[ATNO][  8].d[ 14] =         0.142721399113;
  BAS[ATNO][  8].a[ 15] =        96.619988467000;     BAS[ATNO][  8].d[ 15] =        -0.284445642393;
  BAS[ATNO][  8].a[ 16] =        38.158284867000;     BAS[ATNO][  8].d[ 16] =         1.154015569496;
  BAS[ATNO][  8].a[ 17] =        18.959517570000;     BAS[ATNO][  8].d[ 17] =        -6.616216977567;
  BAS[ATNO][  8].a[ 18] =         9.250599619900;     BAS[ATNO][  8].d[ 18] =        12.688040579551;
  BAS[ATNO][  8].a[ 19] =         4.348651762100;     BAS[ATNO][  8].d[ 19] =       -12.591247569287;
  BAS[ATNO][  8].a[ 20] =         2.038032420900;     BAS[ATNO][  8].d[ 20] =         7.401293152204;
  BAS[ATNO][  8].a[ 21] =         0.691101525400;     BAS[ATNO][  8].d[ 21] =        -3.904733835481;
  BAS[ATNO][  8].a[ 22] =         0.335060651400;     BAS[ATNO][  8].d[ 22] =         2.623023112017;
  BAS[ATNO][  8].a[ 23] =         0.140744411200;     BAS[ATNO][  8].d[ 23] =        -1.039408617581;
  BAS[ATNO][  8].a[ 24] =         0.056272458600;     BAS[ATNO][  8].d[ 24] =         0.264747139289;

  // Basis function  10 L = s
  InitBFNGauss(BAS[ATNO][  9]);
  BAS[ATNO][  9].l  = 0;
  BAS[ATNO][  9].ng = 25;
  BAS[ATNO][  9].a[  0] =  11713823.007999999449;     BAS[ATNO][  9].d[  0] =         0.000002268072;
  BAS[ATNO][  9].a[  1] =   1755253.397899999982;     BAS[ATNO][  9].d[  1] =         0.000017619240;
  BAS[ATNO][  9].a[  2] =    399717.419240000017;     BAS[ATNO][  9].d[  2] =         0.000092561572;
  BAS[ATNO][  9].a[  3] =    113285.792600000001;     BAS[ATNO][  9].d[  3] =         0.000390419757;
  BAS[ATNO][  9].a[  4] =     36977.205292999999;     BAS[ATNO][  9].d[  4] =         0.001416155332;
  BAS[ATNO][  9].a[  5] =     13355.036580000000;     BAS[ATNO][  9].d[  5] =         0.004570204530;
  BAS[ATNO][  9].a[  6] =      5210.901298800000;     BAS[ATNO][  9].d[  6] =         0.013246609490;
  BAS[ATNO][  9].a[  7] =      2162.113702000000;     BAS[ATNO][  9].d[  7] =         0.034119397962;
  BAS[ATNO][  9].a[  8] =       943.292910230000;     BAS[ATNO][  9].d[  8] =         0.074553428195;
  BAS[ATNO][  9].a[  9] =       429.207243310000;     BAS[ATNO][  9].d[  9] =         0.125516172829;
  BAS[ATNO][  9].a[ 10] =       202.407208400000;     BAS[ATNO][  9].d[ 10] =         0.133121871738;
  BAS[ATNO][  9].a[ 11] =      3260.498552100000;     BAS[ATNO][  9].d[ 11] =        -0.000392290631;
  BAS[ATNO][  9].a[ 12] =      1011.106971600000;     BAS[ATNO][  9].d[ 12] =        -0.003973832000;
  BAS[ATNO][  9].a[ 13] =       392.443592730000;     BAS[ATNO][  9].d[ 13] =        -0.019007622178;
  BAS[ATNO][  9].a[ 14] =       173.217021320000;     BAS[ATNO][  9].d[ 14] =        -0.043037985924;
[...]
<sf|pp>:         1728 b           10 skpd (  0.6%)    0.006 s ( 0.004 ms/b)
<sf|pd>:         1920 b         1916 skpd ( 99.8%)    0.000 s ( 0.011 ms/b)
<sf|pf>:         1536 b         1527 skpd ( 99.4%)    0.000 s ( 0.004 ms/b)
<sf|pg>: done
<sf|dd>:          720 b           24 skpd (  3.3%)    0.010 s ( 0.015 ms/b)
<sf|df>: done
<sf|dg>: done
<sf|ff>: done
<sf|fg>: done
<sf|gg>:           48 b           46 skpd ( 95.8%)    0.000 s ( 0.051 ms/b)
<sg|sg>:           78 b           12 skpd ( 15.4%)    0.000 s ( 0.002 ms/b)
<sg|pp>:          432 b           12 skpd (  2.8%)    0.003 s ( 0.007 ms/b)
<sg|pd>: done
<sg|pf>: done
<sg|pg>: done
<sg|dd>:          180 b           26 skpd ( 14.4%)    0.005 s ( 0.032 ms/b)
<sg|df>: done
<sg|dg>: done
<sg|ff>:          120 b          118 skpd ( 98.3%)    0.000 s ( 0.022 ms/b)
<sg|fg>: done
<sg|gg>: done
<pp|pp>:          666 b            0 skpd (  0.0%)    0.009 s ( 0.013 ms/b)
<pp|pd>:         1440 b            0 skpd (  0.0%)    0.011 s ( 0.007 ms/b)
<pp|pf>:         1152 b            0 skpd (  0.0%)    0.003 s ( 0.003 ms/b)
<pp|pg>:          288 b            0 skpd (  0.0%)    0.004 s ( 0.015 ms/b)
<pp|dd>:          540 b            0 skpd (  0.0%)    0.013 s ( 0.024 ms/b)
<pp|df>:          720 b            0 skpd (  0.0%)    0.004 s ( 0.005 ms/b)
<pp|dg>:          180 b            0 skpd (  0.0%)    0.006 s ( 0.031 ms/b)
<pp|ff>:          360 b            0 skpd (  0.0%)    0.002 s ( 0.004 ms/b)
<pp|fg>:          144 b            0 skpd (  0.0%)    0.002 s ( 0.012 ms/b)
<pp|gg>:           36 b            0 skpd (  0.0%)    0.003 s ( 0.070 ms/b)
<pd|pd>:          820 b            0 skpd (  0.0%)    0.015 s ( 0.018 ms/b)
<pd|pf>:         1280 b            0 skpd (  0.0%)    0.005 s ( 0.004 ms/b)
<pd|pg>:          320 b            0 skpd (  0.0%)    0.008 s ( 0.026 ms/b)
<pd|dd>:          600 b            0 skpd (  0.0%)    0.024 s ( 0.040 ms/b)
<pd|df>:          800 b           17 skpd (  2.1%)    0.007 s ( 0.009 ms/b)
<pd|dg>:          200 b            2 skpd (  1.0%)    0.011 s ( 0.056 ms/b)
<pd|ff>:          400 b          354 skpd ( 88.5%)    0.001 s ( 0.029 ms/b)
<pd|fg>:          160 b          144 skpd ( 90.0%)    0.002 s ( 0.111 ms/b)
<pd|gg>:           40 b           35 skpd ( 87.5%)    0.002 s ( 0.436 ms/b)
<pf|pf>:          528 b            0 skpd (  0.0%)    0.003 s ( 0.006 ms/b)
<pf|pg>:          256 b            0 skpd (  0.0%)    0.006 s ( 0.025 ms/b)
<pf|dd>:          480 b            0 skpd (  0.0%)    0.017 s ( 0.036 ms/b)
<pf|df>:          640 b          616 skpd ( 96.2%)    0.000 s ( 0.013 ms/b)
<pf|dg>:          160 b          159 skpd ( 99.4%)    0.000 s ( 0.048 ms/b)
<pf|ff>:          320 b          274 skpd ( 85.6%)    0.001 s ( 0.012 ms/b)
<pf|fg>:          128 b          120 skpd ( 93.8%)    0.001 s ( 0.066 ms/b)
<pf|gg>:           32 b           28 skpd ( 87.5%)    0.000 s ( 0.105 ms/b)
<pg|pg>:           36 b            0 skpd (  0.0%)    0.001 s ( 0.040 ms/b)
<pg|dd>:          120 b            0 skpd (  0.0%)    0.009 s ( 0.074 ms/b)
<pg|df>:          160 b          155 skpd ( 96.9%)    0.000 s ( 0.059 ms/b)
<pg|dg>: done
<pg|ff>:           80 b           74 skpd ( 92.5%)    0.000 s ( 0.026 ms/b)
<pg|fg>:           32 b           30 skpd ( 93.8%)    0.000 s ( 0.131 ms/b)
<pg|gg>: done
<dd|dd>:          120 b            0 skpd (  0.0%)    0.018 s ( 0.150 ms/b)
<dd|df>:          300 b            0 skpd (  0.0%)    0.005 s ( 0.018 ms/b)
<dd|dg>:           75 b            0 skpd (  0.0%)    0.009 s ( 0.117 ms/b)
<dd|ff>:          150 b            0 skpd (  0.0%)    0.002 s ( 0.013 ms/b)
<dd|fg>:           60 b            0 skpd (  0.0%)    0.003 s ( 0.047 ms/b)
<dd|gg>:           15 b            0 skpd (  0.0%)    0.004 s ( 0.299 ms/b)
<df|df>:          210 b            6 skpd (  2.9%)    0.006 s ( 0.028 ms/b)
<df|dg>:          100 b            0 skpd (  0.0%)    0.009 s ( 0.092 ms/b)
<df|ff>: done
<df|fg>:           80 b           76 skpd ( 95.0%)    0.001 s ( 0.211 ms/b)
<df|gg>:           20 b           18 skpd ( 90.0%)    0.001 s ( 0.584 ms/b)
<dg|dg>:           15 b            0 skpd (  0.0%)    0.002 s ( 0.158 ms/b)
<dg|ff>: done
<dg|fg>: done
<dg|gg>: done
<ff|ff>: done
<ff|fg>: done
<ff|gg>: done
<fg|fg>: done
<fg|gg>: done
<gg|gg>: done
Recanonicalizing the internal orbitals
Recanonicalizing the virtual orbitals
Time needed for Fock operator              ...            0.400 sec
Reference energy                           ...  -2752.054315454
<ss|**>: 
------------------------------
PARTIAL COULOMB TRANSFORMATION
------------------------------

Transformation type                        ... one-operator
Dimension of the basis                     ...   98
Number of internal MOs                     ...   89 (9-97)
Pair cutoff                                ... 0.000e+00 Eh
Number of AO pairs included in the trafo   ... 4851
Total Number of distinct AO pairs          ... 4851
Memory devoted for trafo                   ... 2500.0 MB 
Max. Number of MO pairs treated together   ... 67548      
Max. Number of MOs treated per batch       ...  689      
Number Format for Storage                  ... Double (8 Byte)
AO-integral source                         ... DIRECT
Integral package used                      ... LIBINT

Starting integral evaluation:
       36270 b        0 skpd     0.017 s (  0.000 ms/b)
<sp|**>:        44640 b        0 skpd     0.048 s (  0.001 ms/b)
<sd|**>:        27900 b        0 skpd     0.080 s (  0.003 ms/b)
<sf|**>:        22320 b        0 skpd     0.057 s (  0.003 ms/b)
<sg|**>:         5580 b        0 skpd     0.038 s (  0.007 ms/b)
<pp|**>:        16740 b        0 skpd     0.091 s (  0.005 ms/b)
<pd|**>:        18600 b        0 skpd     0.135 s (  0.007 ms/b)
<pf|**>:        14880 b        0 skpd     0.110 s (  0.007 ms/b)
<pg|**>:         3720 b        0 skpd     0.075 s (  0.020 ms/b)
<dd|**>:         6975 b        0 skpd     0.169 s (  0.024 ms/b)
<df|**>:         9300 b        0 skpd     0.090 s (  0.010 ms/b)
<dg|**>:         2325 b        0 skpd     0.098 s (  0.042 ms/b)
<ff|**>:         4650 b        0 skpd     0.071 s (  0.015 ms/b)
<fg|**>:         1860 b        0 skpd     0.079 s (  0.042 ms/b)
<gg|**>:          465 b        0 skpd     0.064 s (  0.138 ms/b)
Closing buffer AOJ ( 0.01 GB; CompressionRatio= 1.00)
Collecting buffer AOJ 
    ... done with AO integral generation
Number of MO pairs included in the trafo   ... 4005
    ... Now sorting integrals
IBATCH = 1 of  1
Closing buffer JAO ( 0.01 GB; CompressionRatio= 1.00)
Collecting buffer JAO 
TOTAL TIME for half transformation         ...     2.034 sec
AO-integral generation                     ...     0.991 sec
Half transformation                        ...     0.242 sec
J-integral sorting                         ...     0.726 sec

-------------------------- SECOND HALF TRANSFORMATION -------------------------
Formation of (pq|rs)                       ... ok (     0.860 sec)
Integral sorting                           ... ok (     0.826 sec)

------------------
CLOSED SHELL GUESS
------------------

Initial guess performed in     0.007 sec
E(0)                                       ...  -2752.054315454
E(MP2)                                     ...     -0.616117654
Initial E(tot)                             ...  -2752.670433108
<T|T>                                      ...      0.084509541
Number of pairs included                   ... 45
Total number of pairs                      ... 45

------------------------------------------------
                  RHF COUPLED CLUSTER ITERATIONS
------------------------------------------------

Number of amplitudes to be optimized       ... 288720

Iter       E(tot)           E(Corr)          Delta-E          Residual     Time
  0  -2752.670433108     -0.616117654      0.000000000      0.016170544    0.12
                           *** Turning on DIIS ***
  1  -2752.647409610     -0.593094156      0.023023498      0.002271199    0.37
  2  -2752.654129330     -0.599813876     -0.006719720      0.000764787    0.36
  3  -2752.655042476     -0.600727022     -0.000913146      0.000179080    0.36
  4  -2752.655163007     -0.600847553     -0.000120531      0.000042836    0.37
  5  -2752.655170390     -0.600854936     -0.000007383      0.000010472    0.37
  6  -2752.655170886     -0.600855432     -0.000000496      0.000002754    0.37
               --- The Coupled-Cluster iterations have converged ---

----------------------
COUPLED CLUSTER ENERGY
----------------------

E(0)                                       ...  -2752.054315454
E(CORR)                                    ...     -0.600855432
E(TOT)                                     ...  -2752.655170886
Singles Norm <S|S>**1/2                    ...      0.018375832  
T1 diagnostic                              ...      0.004331225  

------------------
LARGEST AMPLITUDES
------------------
  17-> 31  17-> 31       0.025703
  17-> 35  17-> 35       0.025270
  16-> 33  16-> 33       0.023691
  15-> 32  15-> 32       0.023106
  15-> 33  15-> 33       0.021908
  17-> 34  17-> 34       0.021406
  16-> 32  16-> 32       0.021244
  15-> 34  15-> 34       0.017405
  16-> 35  16-> 35       0.016571
  15-> 27  15-> 27       0.016035
  17-> 31  17-> 23       0.015325
  17-> 23  17-> 31       0.015325
  15-> 22  15-> 32       0.014973
  15-> 32  15-> 22       0.014973
  15-> 31  15-> 31       0.014563
  15-> 33  15-> 24       0.014245


        !!!!!!!!!!!!!!!!!!!!!!!!!!!!!!!!!!!!!!!!!!!!!!!!!!!!!!!!!!!!!!!!!!!!!!!!!! 
        !  Warning: Densities are linearized densities !                         !
        !!!!!!!!!!!!!!!!!!!!!!!!!!!!!!!!!!!!!!!!!!!!!!!!!!!!!!!!!!!!!!!!!!!!!!!!!! 

Trace of internal density part =     -0.175387090
Trace of external density part =      0.175387090
----------------------
RHF TRIPLES CORRECTION (Algorithm 1)
----------------------

Multiplier for the singles contribution    ...      1.000000000

10% done
20% done
30% done
40% done
50% done
60% done
70% done
80% done

Triples Correction (T)                     ...     -0.011521800
Scaling of triples based on CCSD energies (Peterson et al. Molecular Physics 113, 1551 (2015))
E(T*) = f*E(T) where f = E(F12-CCSD)/E(CCSD) 
f = CCSD (with F12)/ CCSD (without F12)    ...      1.000000000
Scaled triples correction (T)              ...     -0.011521800

Final correlation energy                   ...     -0.612377232
E(CCSD)                                    ...  -2752.655170886
E(CCSD(T))                                 ...  -2752.666692686

NORM  =      1.088031216 sqrt=     1.043087348
W(HF) =      0.919091277
------------------------------------------------------------------------------
                           ORCA POPULATION ANALYSIS
------------------------------------------------------------------------------
Input electron density              ... 36_Kr.mdcip
BaseName (.gbw .S,...)              ... 36_Kr

                    ********************************
                    * MULLIKEN POPULATION ANALYSIS *
                    ********************************

-----------------------
MULLIKEN ATOMIC CHARGES
-----------------------
   0 Kr:    0.000000
Sum of atomic charges:    0.0000000

--------------------------------
MULLIKEN REDUCED ORBITAL CHARGES
--------------------------------
  0 Krs       :     7.986765  s :     7.986765
      pz      :     5.967257  p :    17.901771
      px      :     5.967257
      py      :     5.967257
      dz2     :     2.015278  d :    10.076388
      dxz     :     2.015278
      dyz     :     2.015278
      dx2y2   :     2.015278
      dxy     :     2.015278
      f0      :     0.004493  f :     0.031452
      f+1     :     0.004493
      f-1     :     0.004493
      f+2     :     0.004493
      f-2     :     0.004493
      f+3     :     0.004493
      f-3     :     0.004493
      g0      :     0.000403  g :     0.003624
      g+1     :     0.000403
      g-1     :     0.000403
      g+2     :     0.000403
      g-2     :     0.000403
      g+3     :     0.000403
      g-3     :     0.000403
      g+4     :     0.000403
      g-4     :     0.000403


                     *******************************
                     * LOEWDIN POPULATION ANALYSIS *
                     *******************************

----------------------
LOEWDIN ATOMIC CHARGES
----------------------
   0 Kr:   -0.000000

-------------------------------
LOEWDIN REDUCED ORBITAL CHARGES
-------------------------------
  0 Krs       :     7.986765  s :     7.986765
      pz      :     5.967257  p :    17.901771
      px      :     5.967257
      py      :     5.967257
      dz2     :     2.015278  d :    10.076388
      dxz     :     2.015278
      dyz     :     2.015278
      dx2y2   :     2.015278
      dxy     :     2.015278
      f0      :     0.004493  f :     0.031452
      f+1     :     0.004493
      f-1     :     0.004493
      f+2     :     0.004493
      f-2     :     0.004493
      f+3     :     0.004493
      f-3     :     0.004493
      g0      :     0.000403  g :     0.003624
      g+1     :     0.000403
      g-1     :     0.000403
      g+2     :     0.000403
      g-2     :     0.000403
      g+3     :     0.000403
      g-3     :     0.000403
      g+4     :     0.000403
      g-4     :     0.000403


                      *****************************
                      * MAYER POPULATION ANALYSIS *
                      *****************************

  NA   - Mulliken gross atomic population
  ZA   - Total nuclear charge
  QA   - Mulliken gross atomic charge
  VA   - Mayer's total valence
  BVA  - Mayer's bonded valence
  FA   - Mayer's free valence

  ATOM       NA         ZA         QA         VA         BVA        FA
  0 Kr    36.0000    36.0000     0.0000     0.6914     0.0000     0.6914





------------------------------------------------------------------------------- 
                                     TIMINGS                                   
------------------------------------------------------------------------------- 


Total execution time                   ...        7.125 sec

Fock Matrix Formation                  ...        0.400 sec (  5.6%)
Initial Guess                          ...        0.007 sec (  0.1%)
DIIS Solver                            ...        0.095 sec (  1.3%)
State Vector Update                    ...        0.005 sec (  0.1%)
Sigma-vector construction              ...        2.235 sec ( 31.4%)
  <D|H|D>(0-ext)                       ...        0.010 sec (  0.4% of sigma)
  <D|H|D>(2-ext)                       ...        0.023 sec (  1.0% of sigma)
  <D|H|D>(4-ext)                       ...        0.127 sec (  5.7% of sigma)
  <D|H|D>(4-ext-corr)                  ...        0.119 sec (  5.3% of sigma)
  <S|H|0>                              ...        0.002 sec (  0.1% of sigma)
  <S|H|S>                              ...        0.002 sec (  0.1% of sigma)
  <S|H|D>(1-ext)                       ...        0.008 sec (  0.4% of sigma)
  <D|H|S>(1-ext)                       ...        0.005 sec (  0.2% of sigma)
  <S|H|D>(3-ext)                       ...        0.096 sec (  4.3% of sigma)
  Fock-dressing                        ...        1.514 sec ( 67.8% of sigma)
  (ik|jl)-dressing                     ...        0.012 sec (  0.5% of sigma)
  (ij|ab),(ia|jb)-dressing             ...        0.246 sec ( 11.0% of sigma)
Total Time for computing (T)           ...        0.247 sec (  3.5% of ALL)
  I/O of integral and amplitudes       ...        0.094 sec ( 37.9% of (T))
  N**6 sorting step                    ...        0.046 sec ( 18.6% of (T))
  External N**7 contributions          ...        0.062 sec ( 24.9% of (T))
  Internal N**7 contributions          ...        0.023 sec (  9.5% of (T))
  N**6 triples energy contributions    ...        0.022 sec (  8.9% of (T))
One-particle density matrix            ...        0.001 sec (  0.0%)


-------------------------   --------------------
FINAL SINGLE POINT ENERGY     -2752.666692685959
-------------------------   --------------------


                            ***************************************
                            *     ORCA property calculations      *
                            ***************************************

                                    ---------------------
                                    Active property flags
                                    ---------------------
   (+) Dipole Moment


------------------------------------------------------------------------------
                       ORCA ELECTRIC PROPERTIES CALCULATION
------------------------------------------------------------------------------

Dipole Moment Calculation                       ... on
Quadrupole Moment Calculation                   ... off
Polarizability Calculation                      ... off
GBWName                                         ... 36_Kr.gbw
Electron density file                           ... 36_Kr.scfp
The origin for moment calculation is the CENTER OF MASS  = ( 0.000000,  0.000000  0.000000)

-------------
DIPOLE MOMENT
-------------
                                X             Y             Z
Electronic contribution:     -0.00000      -0.00000       0.00000
Nuclear contribution   :      0.00000       0.00000       0.00000
                        -----------------------------------------
Total Dipole Moment    :     -0.00000      -0.00000       0.00000
                        -----------------------------------------
Magnitude (a.u.)       :      0.00000
Magnitude (Debye)      :      0.00000



--------------------
Rotational spectrum 
--------------------
 
Rotational constants in cm-1:     0.000000     0.000000     0.000000 
Rotational constants in MHz :     0.000000     0.000000     0.000000 

 Dipole components along the rotational axes: 
x,y,z [a.u.] :    -0.000000    -0.000000     0.000000 
x,y,z [Debye]:    -0.000000    -0.000000     0.000000 

 

                           *** MDCI DENSITY ***

------------------------------------------------------------------------------
                       ORCA ELECTRIC PROPERTIES CALCULATION
------------------------------------------------------------------------------

Dipole Moment Calculation                       ... on
Quadrupole Moment Calculation                   ... off
Polarizability Calculation                      ... off
GBWName                                         ... 36_Kr.gbw
Electron density file                           ... 36_Kr.mdcip
The origin for moment calculation is the CENTER OF MASS  = ( 0.000000,  0.000000  0.000000)

-------------
DIPOLE MOMENT
-------------
                                X             Y             Z
Electronic contribution:     -0.00000       0.00000      -0.00000
Nuclear contribution   :      0.00000       0.00000       0.00000
                        -----------------------------------------
Total Dipole Moment    :     -0.00000       0.00000      -0.00000
                        -----------------------------------------
Magnitude (a.u.)       :      0.00000
Magnitude (Debye)      :      0.00000



--------------------
Rotational spectrum 
--------------------
 
Rotational constants in cm-1:     0.000000     0.000000     0.000000 
Rotational constants in MHz :     0.000000     0.000000     0.000000 

 Dipole components along the rotational axes: 
x,y,z [a.u.] :    -0.000000     0.000000    -0.000000 
x,y,z [Debye]:    -0.000000     0.000000    -0.000000 

 

Timings for individual modules:

Sum of individual times         ...       11.383 sec (=   0.190 min)
GTO integral calculation        ...        0.806 sec (=   0.013 min)   7.1 %
SCF iterations                  ...        2.945 sec (=   0.049 min)  25.9 %
MDCI module                     ...        7.633 sec (=   0.127 min)  67.1 %
                             ****ORCA TERMINATED NORMALLY****
TOTAL RUN TIME: 0 days 0 hours 0 minutes 12 seconds 141 msec
