
                                 *****************
                                 * O   R   C   A *
                                 *****************

           --- An Ab Initio, DFT and Semiempirical electronic structure package ---

                  #######################################################
                  #                        -***-                        #
                  #          Department of theory and spectroscopy      #
                  #               Directorship: Frank Neese             #
                  #        Max Planck Institute fuer Kohlenforschung    #
                  #                Kaiser Wilhelm Platz 1               #
                  #                 D-45470 Muelheim/Ruhr               #
                  #                      Germany                        #
                  #                                                     #
                  #                  All rights reserved                #
                  #                        -***-                        #
                  #######################################################


                         Program Version 4.2.0 -  RELEASE  -


 With contributions from (in alphabetic order):
   Daniel Aravena         : Magnetic Suceptibility
   Michael Atanasov       : Ab Initio Ligand Field Theory (pilot matlab implementation)
   Alexander A. Auer      : GIAO ZORA, VPT2
   Ute Becker             : Parallelization
   Giovanni Bistoni       : ED, misc. LED, open-shell LED, HFLED
   Martin Brehm           : Molecular dynamics
   Dmytro Bykov           : SCF Hessian
   Vijay G. Chilkuri      : MRCI spin determinant printing, contributions to CSF-ICE
   Dipayan Datta          : RHF DLPNO-CCSD density
   Achintya Kumar Dutta   : EOM-CC, STEOM-CC
   Dmitry Ganyushin       : Spin-Orbit,Spin-Spin,Magnetic field MRCI
   Miquel Garcia          : C-PCM Hessian, Gaussian charge scheme
   Yang Guo               : DLPNO-NEVPT2, CIM, IAO-localization
   Andreas Hansen         : Spin unrestricted coupled pair/coupled cluster methods
   Benjamin Helmich-Paris : CASSCF linear response (MC-RPA)
   Lee Huntington         : MR-EOM, pCC
   Robert Izsak           : Overlap fitted RIJCOSX, COSX-SCS-MP3, EOM
   Christian Kollmar      : KDIIS, OOCD, Brueckner-CCSD(T), CCSD density
   Simone Kossmann        : Meta GGA functionals, TD-DFT gradient, OOMP2, MP2 Hessian
   Martin Krupicka        : AUTO-CI
   Lucas Lang             : DCDCAS
   Dagmar Lenk            : GEPOL surface, SMD
   Dimitrios Liakos       : Extrapolation schemes; Compound Job, initial MDCI parallelization
   Dimitrios Manganas     : Further ROCIS development; embedding schemes
   Dimitrios Pantazis     : SARC Basis sets
   Taras Petrenko         : DFT Hessian,TD-DFT gradient, ASA, ECA, R-Raman, ABS, FL, XAS/XES, NRVS
   Peter Pinski           : DLPNO-MP2, DLPNO-MP2 Gradient
   Christoph Reimann      : Effective Core Potentials
   Marius Retegan         : Local ZFS, SOC
   Christoph Riplinger    : Optimizer, TS searches, QM/MM, DLPNO-CCSD(T), (RO)-DLPNO pert. Triples
   Tobias Risthaus        : Range-separated hybrids, TD-DFT gradient, RPA, STAB
   Michael Roemelt        : Original ROCIS implementation
   Masaaki Saitow         : Open-shell DLPNO-CCSD energy and density
   Barbara Sandhoefer     : DKH picture change effects
   Avijit Sen             : IP-ROCIS
   Kantharuban Sivalingam : CASSCF convergence, NEVPT2, FIC-MRCI
   Bernardo de Souza      : ESD, SOC TD-DFT
   Georgi Stoychev        : AutoAux, RI-MP2 NMR
   Willem Van den Heuvel  : Paramagnetic NMR
   Boris Wezisla          : Elementary symmetry handling
   Frank Wennmohs         : Technical directorship


 We gratefully acknowledge several colleagues who have allowed us to
 interface, adapt or use parts of their codes:
   Stefan Grimme, W. Hujo, H. Kruse,             : VdW corrections, initial TS optimization,
                  C. Bannwarth                     DFT functionals, gCP, sTDA/sTD-DF
   Ed Valeev, F. Pavosevic, A. Kumar             : LibInt (2-el integral package), F12 methods
   Garnet Chan, S. Sharma, J. Yang, R. Olivares  : DMRG
   Ulf Ekstrom                                   : XCFun DFT Library
   Mihaly Kallay                                 : mrcc  (arbitrary order and MRCC methods)
   Andreas Klamt, Michael Diedenhofen            : otool_cosmo (COSMO solvation model)
   Jiri Pittner, Ondrej Demel                    : Mk-CCSD
   Frank Weinhold                                : gennbo (NPA and NBO analysis)
   Christopher J. Cramer and Donald G. Truhlar   : smd solvation model
   Lars Goerigk                                  : TD-DFT with DH, B97 family of functionals
   V. Asgeirsson, H. Jonsson                     : NEB implementation
   FAccTs GmbH                                   : IRC, NEB, NEB-TS, Multilevel, MM, QM/MM, CI optimization
   S Lehtola, MJT Oliveira, MAL Marques          : LibXC Library


 Your calculation uses the libint2 library for the computation of 2-el integrals
 For citations please refer to: http://libint.valeyev.net

 Your ORCA version has been built with support for libXC version: 4.2.3
 For citations please refer to: https://tddft.org/programs/libxc/

 This ORCA versions uses:
   CBLAS   interface :  Fast vector & matrix operations
   LAPACKE interface :  Fast linear algebra routines
   SCALAPACK package :  Parallel linear algebra routines


----- Orbital basis set information -----
Your calculation utilizes the basis: def2-SVP
   F. Weigend and R. Ahlrichs, Phys. Chem. Chem. Phys. 7, 3297 (2005).

----- AuxJ basis set information -----
Your calculation utilizes the auxiliary basis: def2/J
   F. Weigend, Phys. Chem. Chem. Phys. 8, 1057 (2006).

================================================================================
                                        WARNINGS
                       Please study these warnings very carefully!
================================================================================


INFO   : the flag for use of LIBINT has been found!

================================================================================
                                       INPUT FILE
================================================================================
NAME = 39_Y_atom39.inp
|  1> # input to generate an atomic fitting density for  Y
|  2> # this file is use internally by ORCA
|  3> #
|  4> # atomic ground state (S=2): 1s2 2s2 2p6 3s2 3p6 4s2 3d10 4p6 4d1 5s2 
|  5> #
|  6> ! RHF AllowRHF def2-SVP def2/J  NoMulliken NoLoewdin NoMayer NoPrintMOs 
|  7> 
|  8> %output print[p_atomdensfit] 2 end
|  9> 
| 10> %scf
| 11>   guess hcore
| 12>   maxiter 1000
| 13>   maxdisk 500000
| 14>   SCFMode Conventional
| 15>   lshift 0.600000
| 16>   hftyp rohf
| 17>   rohf_case sahf
| 18>   rohf_numop   3
| 19>   rohf_norb[1] 5,1
| 20>   rohf_nel[1]  1,2
| 21> end
| 22> 
| 23> %basis
| 24>   NewECP 39
| 25>     N_core 28
| 26>     lmax f
| 27>     s 4
| 28>       1       7.4880494000    135.1538441000  2
| 29>       2       3.7440247000     15.5524413000  2
| 30>       3       6.5842120000     19.1221981000  2
| 31>       4       3.2921060000      2.4363754000  2
| 32>     p 4
| 33>       1       6.4453772000     87.7849917000  2
| 34>       2       3.2226886000     11.5640660000  2
| 35>       3       6.5842120000     19.1221981000  2
| 36>       4       3.2921060000      2.4363754000  2
| 37>     d 4
| 38>       1       4.6584472000     29.7010007000  2
| 39>       2       2.3292236000      5.5399685000  2
| 40>       3       6.5842120000     19.1221981000  2
| 41>       4       3.2921060000      2.4363754000  2
| 42>     f 2
| 43>       1       6.5842120000    -19.1221981000  2
| 44>       2       3.2921060000     -2.4363754000  2
| 45>   end
| 46>   NewGTO 39
| 47>     s 2 
| 48>      1      12.0000000000     -2.5523745896
| 49>      2      10.8000000000      3.5334521673
| 50>     s 1 
| 51>      1       3.1007372195      1.0000000000
| 52>     s 1 
| 53>      1       0.7415542757      1.0000000000
| 54>     s 1 
| 55>      1       0.3417677578      1.0000000000
| 56>     s 1 
| 57>      1       0.0794287970      1.0000000000
| 58>     s 1 
| 59>      1       0.0433083365      1.0000000000
| 60>     s 1 
| 61>      1       0.0215932249      1.0000000000
| 62>     p 4 
| 63>      1       8.0336135138      0.0727570321
| 64>      2       4.0181723477     -0.4144826629
| 65>      3       1.1052105890      0.5523578260
| 66>      4       0.8321931669      0.6206436392
| 67>     p 1 
| 68>      1       0.4476267667      1.0000000000
| 69>     p 1 
| 70>      1       0.2052334711      1.0000000000
| 71>     p 1 
| 72>      1       0.0550455618      1.0000000000
| 73>     p 1 
| 74>      1       0.0226030275      1.0000000000
| 75>     d 4 
| 76>      1      13.7551053470      0.0032608301
| 77>      2       3.9629908552     -0.0343015337
| 78>      3       1.3427449755      0.3058098200
| 79>      4       0.6257924811      0.7558417604
| 80>     d 1 
| 81>      1       0.2763236396      1.0000000000
| 82>     d 1 
| 83>      1       0.1170698775      1.0000000000
| 84>     d 1 
| 85>      1       0.0466015010      1.0000000000
| 86>   end
| 87>   NewAuxGTO 39
| 88>     S 1
| 89>      1 1310.72 1.0
| 90>     S 1
| 91>      1  655.36 1.0
| 92>     S 1
| 93>      1  327.68 1.0
| 94>     S 1
| 95>      1  163.84 1.0
| 96>     S 1
| 97>      1   81.82 1.0
| 98>     S 1
| 99>      1   40.96 1.0
|100>     S 1
|101>      1   20.48 1.0
|102>     S 1
|103>      1   10.24 1.0
|104>     S 1
|105>      1    5.12 1.0
|106>     S 1
|107>      1    2.56 1.0
|108>     S 1
|109>      1    1.28 1.0
|110>     S 1
|111>      1    0.64 1.0
|112>     S 1
|113>      1    0.32 1.0
|114>     S 1
|115>      1    0.16 1.0
|116>     S 1
|117>      1    0.08 1.0
|118>     S 1
|119>      1    0.04 1.0
|120>     S 1
|121>      1    0.02 1.0
|122>     S 1
|123>      1    0.01 1.0
|124>   end
|125> end
|126> 
|127> * xyz 0 2
|128> 39  0.0 0.0 0.0
|129> *
|130> 
|131> 
|132>                          ****END OF INPUT****
================================================================================

                       ****************************
                       * Single Point Calculation *
                       ****************************

---------------------------------
CARTESIAN COORDINATES (ANGSTROEM)
---------------------------------
   Y     0.000000    0.000000    0.000000

----------------------------
CARTESIAN COORDINATES (A.U.)
----------------------------
  NO LB      ZA    FRAG     MASS         X           Y           Z
   0  Y   11.0000*   0    88.910    0.000000    0.000000    0.000000
* core charge reduced due to ECP

--------------------------------
INTERNAL COORDINATES (ANGSTROEM)
--------------------------------
  Y     0   0   0     0.000000000000     0.00000000     0.00000000

---------------------------
INTERNAL COORDINATES (A.U.)
---------------------------
  Y     0   0   0     0.000000000000     0.00000000     0.00000000

---------------------
BASIS SET INFORMATION
---------------------
There are 1 groups of distinct atoms

 Group   1 Type  Y  : 8s8p7d contracted to 7s5p4d pattern {2111111/41111/4111}

Atom   0 Y   basis set group =>   1
---------------------------------
AUXILIARY/J BASIS SET INFORMATION
---------------------------------
There are 1 groups of distinct atoms

 Group   1 Type  Y  : 18s contracted to 18s pattern {111111111111111111}

Atom   0 Y   basis set group =>   1
-------------------------
ECP PARAMETER INFORMATION
-------------------------

 Group 1, Type  Y ECP (replacing 28 core electrons, lmax=3)

Atom   0 Y   ECP group =>   1

------------------------------------------------------------------------------
                           ORCA GTO INTEGRAL CALCULATION
------------------------------------------------------------------------------

                         BASIS SET STATISTICS AND STARTUP INFO

 # of primitive gaussian shells          ...   23
 # of primitive gaussian functions       ...   67
 # of contracted shells                  ...   16
 # of contracted basis functions         ...   42
 Highest angular momentum                ...    2
 Maximum contraction depth               ...    4
 Integral package used                   ... LIBINT
 Integral threshhold            Thresh   ...  1.000e-10
 Primitive cut-off              TCut     ...  1.000e-11
 Storage cut-off                TCutStore... -1.000e+00
 Buffer length                           ... 1048576 integrals/buffer
 Generate file with integrals 4 distinct ...false


------------------------------ INTEGRAL EVALUATION ----------------------------


 * One electron integrals 

   ECP integrals                         ... done
 Pre-screening matrix                    ... done
 Shell pair data                         ... done (   0.000 sec)
 Statistics run                          ... done
 Maximum amount of storage needed        ...     4 MB
 Maximum amount of storage dedicated     ... 500000 MB
 Beginning two electron integral evaluation:
 Starting repulsion integrals
  <ss|ss>  ...          406 b.         0 skpd (  0.0%)     0.000 s. (  0.000 ms/b)
  <ss|sp>  ...          980 b.         0 skpd (  0.0%)     0.000 s. (  0.000 ms/b)
  <ss|sd>  ...          784 b.         0 skpd (  0.0%)     0.000 s. (  0.000 ms/b)
  <ss|pp>  ...          420 b.         0 skpd (  0.0%)     0.000 s. (  0.000 ms/b)
  <ss|pd>  ...          560 b.         0 skpd (  0.0%)     0.000 s. (  0.001 ms/b)
  <ss|dd>  ...          280 b.         0 skpd (  0.0%)     0.000 s. (  0.001 ms/b)
  <sp|sp>  ...          630 b.         0 skpd (  0.0%)     0.000 s. (  0.000 ms/b)
  <sp|sd>  ...          980 b.         0 skpd (  0.0%)     0.001 s. (  0.001 ms/b)
  <sp|pp>  ...          525 b.         0 skpd (  0.0%)     0.001 s. (  0.001 ms/b)
  <sp|pd>  ...          700 b.         0 skpd (  0.0%)     0.001 s. (  0.002 ms/b)
  <sp|dd>  ...          350 b.         0 skpd (  0.0%)     0.001 s. (  0.003 ms/b)
  <sd|sd>  ...          406 b.         0 skpd (  0.0%)     0.001 s. (  0.001 ms/b)
  <sd|pp>  ...          420 b.         0 skpd (  0.0%)     0.001 s. (  0.002 ms/b)
  <sd|pd>  ...          560 b.         0 skpd (  0.0%)     0.002 s. (  0.004 ms/b)
  <sd|dd>  ...          280 b.         0 skpd (  0.0%)     0.002 s. (  0.008 ms/b)
  <pp|pp>  ...          120 b.         0 skpd (  0.0%)     0.000 s. (  0.003 ms/b)
  <pp|pd>  ...          300 b.         0 skpd (  0.0%)     0.002 s. (  0.006 ms/b)
  <pp|dd>  ...          150 b.         0 skpd (  0.0%)     0.002 s. (  0.012 ms/b)
  <pd|pd>  ...          210 b.         0 skpd (  0.0%)     0.003 s. (  0.013 ms/b)
  <pd|dd>  ...          200 b.         0 skpd (  0.0%)     0.005 s. (  0.026 ms/b)
  <dd|dd>  ...           55 b.         0 skpd (  0.0%)     0.004 s. (  0.070 ms/b)


                                      INTEGRAL STATISTICS

Integral type statistics:
 Number of integrals retained            ...     408156 
 One   Center Integrals retained         ...     408156 (100.0%)
 Two   Center Integrals retained         ...          0 (  0.0%)
 Three Center Integrals retained         ...          0 (  0.0%)
 Four  Center Integrals retained         ...          0 (  0.0%)

Storage statistics:
 Number of char integrals                ...          0 (  0.0%)
 Number of short int integrals           ...          0 (  0.0%)
 Number of double/float integrals        ...     408156 (100.0%)
 Amount of memory used                   ...          5 MB
 Amount of memory estimated              ...          4 MB ( 95.0%)

Prescreening statistics:
 Total number of shell quadruples        ...       9316 
 Number of skipped shell quadruples      ...          0 (  0.0%)
 # of negligible batches done            ...          0 (  0.0%)

Timings:
 Total evaluation time               ...     0.190 sec (   0.003 min)
 One electron matrix time            ...     0.015 sec (   0.000 min) =  8.1%
 Schwartz matrix evaluation time     ...     0.070 sec (   0.001 min) = 37.0%
 Statistics run                      ...     0.003 sec (   0.000 min) =  1.7%
 Repulsion integral time             ...     0.026 sec (   0.000 min) = 13.8%

-------------------------------------------------------------------------------
                                 ORCA SCF
-------------------------------------------------------------------------------

------------
SCF SETTINGS
------------
Hamiltonian:
 Ab initio Hamiltonian  Method          .... Hartree-Fock(GTOs)


General Settings:
 Integral files         IntName         .... 39_Y_atom39
 Hartree-Fock type      HFTyp           .... ROHF
 Total Charge           Charge          ....    0
 Multiplicity           Mult            ....    2
 Number of Electrons    NEL             ....   11
 Basis Dimension        Dim             ....   42
 Nuclear Repulsion      ENuc            ....      0.0000000000 Eh

Convergence Acceleration:
 DIIS                   CNVDIIS         .... on
   Start iteration      DIISMaxIt       ....    12
   Startup error        DIISStart       ....  0.200000
   # of expansion vecs  DIISMaxEq       ....     5
   Bias factor          DIISBfac        ....   1.050
   Max. coefficient     DIISMaxC        ....  10.000
 Newton-Raphson         CNVNR           .... off
 SOSCF                  CNVSOSCF        .... off
 Level Shifting         CNVShift        .... on
   Level shift para.    LevelShift      ....    0.6000
   Turn off err/grad.   ShiftErr        ....    0.0010
 Zerner damping         CNVZerner       .... off
 Static damping         CNVDamp         .... on
   Fraction old density DampFac         ....    0.7000
   Max. Damping (<1)    DampMax         ....    0.9800
   Min. Damping (>=0)   DampMin         ....    0.0000
   Turn off err/grad.   DampErr         ....    0.1000
 Fernandez-Rico         CNVRico         .... off

SCF Procedure:
 Maximum # iterations   MaxIter         ....  1000
 SCF integral mode      SCFMode         .... Conventional
 Integral Threshold     Thresh          ....  1.000e-10 Eh
 Primitive CutOff       TCut            ....  1.000e-11 Eh
 Integral Buffer length BufferLength    .... 1048576
 Integral index format  IndFormat       ....     0
 Integral value format  ValFormat       ....     0
 Integral Storage       Thresh          ....  1.000e-10 Eh

Convergence Tolerance:
 Convergence Check Mode ConvCheckMode   .... Total+1el-Energy
 Convergence forced     ConvForced      .... 0
 Energy Change          TolE            ....  1.000e-06 Eh
 1-El. energy change                    ....  1.000e-03 Eh
 DIIS Error             TolErr          ....  1.000e-06


Diagonalization of the overlap matrix:
Smallest eigenvalue                        ... 4.808e-03
Time for diagonalization                   ...    0.001 sec
Threshold for overlap eigenvalues          ... 1.000e-08
Number of eigenvalues below threshold      ... 0
Time for construction of square roots      ...    0.002 sec
Total time needed                          ...    0.003 sec

--------------------
INITIAL GUESS: HCORE
--------------------
AVERAGE-CONFIGURATION (SAHF) CASE FOUND

-------------------
FINAL ROHF SETTINGS
-------------------
Number of operators             ... 3
  operator   0:   4 orbitals   8 electrons n(mue)= 2.000
  operator   1:   5 orbitals   1 electrons n(mue)= 0.200
  operator   2:   1 orbitals   2 electrons n(mue)= 2.000
Vector coupling coefficients a and b (Zerner convention):
   1.000    1.000    1.000           1.000    1.000    1.000 
   1.000    0.000    1.000           1.000    0.000    1.000 
   1.000    1.000    1.000           1.000    1.000    1.000 

                      -----------------
                      INTIAL GUESS DONE 
                      -----------------

 InCore treatment chosen:
   Memory dedicated               ...    1024 MB
   Memory needed                  ...      5 MB
   Number of tiny    integrals    ...       0
   Number of small   integrals    ...       0
   Number of regular integrals    ...  408156

--------------
SCF ITERATIONS
--------------
ITER       Energy         Delta-E        Max-DP      RMS-DP      [F,P]     Damp
  0    -34.6247736922   0.000000000000 3.28241566  0.08923166  0.7923381 0.7000
  1    -36.3758375351  -1.751063842889 2.25926897  0.06225489  0.3763267 0.7000
                            ****Activating DIIS****
  2    -36.7853225769  -0.409485041821 5.08265054  0.14266157  0.0859199 0.0000
  3    -37.2556116638  -0.470289086953 0.02396805  0.00061588  0.1366600 0.7000
  4    -37.2842143168  -0.028602652923 0.00835148  0.00019233  0.1387077 0.7000
  5    -37.2767687159   0.007445600899 0.01225058  0.00029403  0.1387881 0.7000
  6    -37.2838618993  -0.007093183429 0.01107664  0.00029606  0.1391069 0.7000
  7    -37.2906489089  -0.006787009596 0.11322486  0.00232091  0.1395462 0.7000
  8    -37.3868384034  -0.096189494552 0.16353262  0.00343754  0.1251993 0.7000
  9    -37.4655012017  -0.078662798226 0.61574755  0.01559031  0.0864143 0.0000
 10    -37.6062589681  -0.140757766441 0.05290305  0.00166419  0.0377308 0.0000
 11    -37.6153468033  -0.009087835178 0.28122449  0.00856360  0.0387694 0.0000
 12    -37.6369478155  -0.021601012175 0.12041351  0.00344516  0.0202130 0.0000
 13    -37.6416856363  -0.004737820877 0.11947491  0.00323231  0.0202499 0.0000
 14    -37.6456430184  -0.003957382082 0.04902643  0.00125647  0.0200698 0.0000
 15    -37.6472302549  -0.001587236472 0.03072056  0.00078166  0.0199678 0.0000
 16    -37.6482253965  -0.000995141625 0.00277358  0.00007696  0.0198910 0.0000
 17    -37.6481491166   0.000076279927 0.00400232  0.00010712  0.0199074 0.0000
 18    -37.6482925783  -0.000143461723 0.08371837  0.00214622  0.0199027 0.0000
 19    -37.6511550585  -0.002862480218 0.01054865  0.00025493  0.0197276 0.0000
 20    -37.6514985831  -0.000343524598 0.02798745  0.00068371  0.0196980 0.0000
 21    -37.6524417329  -0.000943149752 0.01206467  0.00029475  0.0196352 0.0000
 22    -37.6528544004  -0.000412667566 0.04277546  0.00103521  0.0196115 0.0000
 23    -37.6543166121  -0.001462211654 0.05474055  0.00131381  0.0195124 0.0000
 24    -37.6562119939  -0.001895381794 0.00237068  0.00005503  0.0193720 0.0000
 25    -37.6562914620  -0.000079468069 0.04664156  0.00108739  0.0193637 0.0000
 26    -37.6578984650  -0.001607003088 0.02625929  0.00060561  0.0192418 0.0000
 27    -37.6588069923  -0.000908527266 0.05125976  0.00117415  0.0191713 0.0000
 28    -37.6605960267  -0.001789034350 0.03821554  0.00086550  0.0190225 0.0000
 29    -37.6619375092  -0.001341482542 0.02904742  0.00064760  0.0189049 0.0000
 30    -37.6629525988  -0.001015089552 0.05240540  0.00116052  0.0188144 0.0000
 31    -37.6647978337  -0.001845234981 0.04693266  0.00102611  0.0186416 0.0000
 32    -37.6664549763  -0.001657142596 0.05811013  0.00125822  0.0184797 0.0000
 33    -37.6685200834  -0.002065107120 0.05953564  0.00127207  0.0182656 0.0000
 34    -37.6706412647  -0.002121181287 0.06934538  0.00146341  0.0180366 0.0000
 35    -37.6731204523  -0.002479187541 0.09326956  0.00194439  0.0181325 0.0000
 36    -37.6764775434  -0.003357091121 0.13432131  0.00275898  0.0182213 0.0000
 37    -37.6813547030  -0.004877159618 0.23386271  0.00472676  0.0182666 0.0000
 38    -37.6899815937  -0.008626890716 0.41467350  0.00829743  0.0180867 0.0000
 39    -37.7054437434  -0.015462149678 0.32027519  0.00633017  0.0165787 0.0000
 40    -37.7171363954  -0.011692652005 0.22061123  0.00455100  0.0136733 0.0000
 41    -37.7248825607  -0.007746165280 0.24840419  0.00542257  0.0104630 0.0000
 42    -37.7315126810  -0.006630120339 0.09728875  0.00223221  0.0066064 0.0000
 43    -37.7310308224   0.000481858651 0.18023056  0.00445777  0.0067469 0.0000
 44    -37.7347792332  -0.003748410773 0.06778025  0.00208345  0.0058246 0.0000
 45    -37.7358522342  -0.001073001054 0.05097661  0.00170858  0.0057774 0.0000
 46    -37.7367320491  -0.000879814877 0.03657668  0.00098300  0.0057499 0.0000
 47    -37.7372385438  -0.000506494731 0.04477564  0.00119265  0.0057180 0.0000
 48    -37.7378855600  -0.000647016201 0.06349560  0.00170246  0.0056742 0.0000
 49    -37.7388403084  -0.000954748347 0.10713362  0.00286615  0.0056044 0.0000
 50    -37.7404925365  -0.001652228112 0.20210284  0.00563533  0.0054661 0.0000
 51    -37.7438177277  -0.003325191252 0.22066415  0.00670880  0.0051300 0.0000
 52    -37.7478933037  -0.004075576002 0.17806267  0.00635860  0.0045850 0.0000
 53    -37.7517529730  -0.003859669266 0.15962154  0.00541760  0.0038728 0.0000
 54    -37.7547962347  -0.003043261703 0.11997843  0.00417407  0.0030755 0.0000
 55    -37.7567418544  -0.001945619743 0.06499281  0.00241705  0.0023408 0.0000
 56    -37.7576478234  -0.000905968974 0.05181931  0.00168084  0.0018780 0.0000
 57    -37.7581236198  -0.000475796429 0.06860285  0.00180591  0.0015948 0.0000
 58    -37.7584715389  -0.000347919034 0.05844344  0.00146280  0.0013882 0.0000
 59    -37.7586714359  -0.000199897038 0.03445915  0.00084168  0.0012634 0.0000
 60    -37.7587592636  -0.000087827673 0.02127757  0.00051352  0.0011697 0.0000
 61    -37.7588020470  -0.000042783399 0.01484738  0.00036261  0.0011354 0.0000
 62    -37.7588291951  -0.000027148127 0.01235683  0.00030920  0.0011168 0.0000
 63    -37.7588516900  -0.000022494862 0.01266471  0.00032338  0.0011009 0.0000
 64    -37.7588767873  -0.000025097373 0.01419015  0.00037009  0.0010819 0.0000
 65    -37.7589075763  -0.000030788911 0.01523667  0.00040883  0.0010569 0.0000
 66    -37.7589430664  -0.000035490180 0.01557279  0.00043299  0.0010264 0.0000
 67    -37.7589817756  -0.000038709198 0.01633426  0.00047443  0.0009911 0.0000
 68    -37.7590247625  -0.000042986862 0.01745981  0.00053649  0.0009494 0.0000
 69    -37.7590733638  -0.000048601304 0.01790102  0.00059320  0.0008986 0.0000
 70    -37.7591263165  -0.000052952656 0.01617485  0.00059161  0.0008380 0.0000
 71    -37.7591776661  -0.000051349632 0.01259819  0.00051787  0.0007727 0.0000
 72    -37.7592211565  -0.000043490397 0.00974287  0.00043128  0.0007107 0.0000
 73    -37.7592563133  -0.000035156859 0.00891446  0.00037076  0.0007138 0.0000
 74    -37.7592857443  -0.000029430945 0.00845990  0.00033327  0.0007729 0.0000
 75    -37.7593114045  -0.000025660160 0.00785675  0.00029526  0.0008240 0.0000
 76    -37.7593333535  -0.000021949001 0.00670201  0.00024110  0.0008665 0.0000
 77    -37.7593508002  -0.000017446750 0.00543452  0.00018779  0.0008980 0.0000
 78    -37.7593642468  -0.000013446559 0.00464319  0.00015536  0.0009193 0.0000
 79    -37.7593753232  -0.000011076407 0.00446402  0.00014630  0.0009339 0.0000
 80    -37.7593855837  -0.000010260572 0.00469538  0.00015206  0.0009451 0.0000
 81    -37.7593958846  -0.000010300905 0.00501719  0.00016157  0.0009546 0.0000
 82    -37.7594062824  -0.000010397751 0.00521476  0.00016800  0.0009625 0.0000
 83    -37.7594163874  -0.000010105046 0.00525531  0.00017044  0.0009686 0.0000
 84    -37.7594258254  -0.000009437924 0.00528292  0.00017284  0.0009729 0.0000
 85    -37.7594345117  -0.000008686350 0.00538115  0.00017841  0.0009752 0.0000
 86    -37.7594425256  -0.000008013832 0.00548032  0.00018512  0.0009760 0.0000
 87    -37.7594498374  -0.000007311824 0.00541813  0.00018755  0.0009751 0.0000
 88    -37.7594562639  -0.000006426516 0.00509491  0.00018201  0.0009725 0.0000
 89    -37.7594616521  -0.000005388255 0.00458871  0.00017060  0.0009683 0.0000
 90    -37.7594660615  -0.000004409337 0.00427005  0.00015846  0.0009629 0.0000
 91    -37.7594697272  -0.000003665703 0.00415112  0.00014815  0.0009563 0.0000
 92    -37.7594729032  -0.000003176038 0.00401044  0.00013851  0.0009488 0.0000
 93    -37.7594757739  -0.000002870669 0.00379007  0.00012736  0.0009406 0.0000
 94    -37.7594784517  -0.000002677793 0.00347039  0.00011407  0.0009321 0.0000
 95    -37.7594810044  -0.000002552740 0.00307973  0.00009962  0.0009234 0.0000
 96    -37.7594834715  -0.000002467088 0.00265078  0.00008501  0.0009151 0.0000
 97    -37.7594858611  -0.000002389544 0.00219583  0.00007050  0.0009075 0.0000
 98    -37.7594881402  -0.000002279149 0.00172296  0.00005614  0.0009007 0.0000
 99    -37.7594902368  -0.000002096587 0.00126200  0.00004261  0.0008950 0.0000
100    -37.7594920666  -0.000001829819 0.00086731  0.00003124  0.0008906 0.0000
101    -37.7594935817  -0.000001515118 0.00059150  0.00002320  0.0008874 0.0000
102    -37.7594948097  -0.000001227963 0.00044796  0.00001871  0.0008850 0.0000
103    -37.7594958451  -0.000001035370 0.00040050  0.00001690  0.0008832 0.0000
                 **** Energy Check signals convergence ****

               *****************************************************
               *                     SUCCESS                       *
               *           SCF CONVERGED AFTER 104 CYCLES          *
               *****************************************************


----------------
TOTAL SCF ENERGY
----------------

Total Energy       :          -37.75949679 Eh           -1027.48814 eV

Components:
Nuclear Repulsion  :            0.00000000 Eh               0.00000 eV
Electronic Energy  :          -37.75949679 Eh           -1027.48814 eV
One Electron Energy:          -61.51097205 Eh           -1673.79864 eV
Two Electron Energy:           23.75147526 Eh             646.31050 eV

Virial components:
Potential Energy   :          -49.35415031 Eh           -1342.99471 eV
Kinetic Energy     :           11.59465351 Eh             315.50656 eV
Virial Ratio       :            4.25663003


---------------
SCF CONVERGENCE
---------------

  Last Energy change         ...   -9.4871e-07  Tolerance :   1.0000e-06
  Last MAX-Density change    ...    3.9539e-04  Tolerance :   1.0000e-05
  Last RMS-Density change    ...    1.6496e-05  Tolerance :   1.0000e-06
  Last DIIS Error            ...    8.8165e-04  Tolerance :   1.0000e-06

             **** THE GBW FILE WAS UPDATED (39_Y_atom39.gbw) ****
             **** DENSITY FILE WAS UPDATED (39_Y_atom39.scfp) ****
             **** ENERGY FILE WAS UPDATED (39_Y_atom39.en.tmp) ****
             **** THE GBW FILE WAS UPDATED (39_Y_atom39.gbw) ****
             **** DENSITY FILE WAS UPDATED (39_Y_atom39.scfp) ****
----------------
ORBITAL ENERGIES
----------------

  NO   OCC          E(Eh)            E(eV) 
   0   2.0000      -2.390033       -65.0361 
   1   2.0000      -1.426239       -38.8099 
   2   2.0000      -1.426171       -38.8081 
   3   2.0000      -1.425071       -38.7781 
   4   0.2000      -0.193607        -5.2683 
   5   0.2000      -0.158032        -4.3003 
   6   0.2000      -0.157906        -4.2968 
   7   0.2000      -0.157880        -4.2961 
   8   0.2000      -0.070672        -1.9231 
   9   2.0000      -0.262679        -7.1479 
  10   0.0000       0.022666         0.6168 
  11   0.0000       0.022700         0.6177 
  12   0.0000       0.024792         0.6746 
  13   0.0000       0.025061         0.6820 
  14   0.0000       0.096560         2.6275 
  15   0.0000       0.096679         2.6308 
  16   0.0000       0.097115         2.6426 
  17   0.0000       0.148164         4.0317 
  18   0.0000       0.154112         4.1936 
  19   0.0000       0.154129         4.1941 
  20   0.0000       0.154908         4.2153 
  21   0.0000       0.155012         4.2181 
  22   0.0000       0.263106         7.1595 
  23   0.0000       0.530388        14.4326 
  24   0.0000       0.531071        14.4512 
  25   0.0000       0.531077        14.4513 
  26   0.0000       0.532279        14.4840 
  27   0.0000       0.532400        14.4873 
  28   0.0000       0.612081        16.6556 
  29   0.0000       0.612359        16.6631 
  30   0.0000       0.614409        16.7189 
  31   0.0000       1.500278        40.8246 
  32   0.0000       1.705543        46.4102 
  33   0.0000       1.705549        46.4104 
  34   0.0000       1.707330        46.4588 
  35   0.0000       1.707523        46.4641 
  36   0.0000       1.707684        46.4684 
  37   0.0000       7.100654       193.2186 
  38   0.0000       7.101052       193.2294 
  39   0.0000       7.104286       193.3174 
  40   0.0000      19.352055       526.5962 
  41   0.0000      67.757429      1843.7734 
CleanUpVectors: The p-vectors have cracked symmetry
CleanUpVectors: The p-vectors have cracked symmetry
CleanUpVectors: The p-vectors have cracked symmetry
CleanUpVectors: The p-vectors have cracked symmetry
CleanUpVectors: The p-vectors have cracked symmetry
CleanUpVectors: The p-vectors have cracked symmetry
CleanUpVectors: The d-vectors have cracked symmetry at i=7
CleanUpVectors: The d-vectors have cracked symmetry at i=10
CleanUpVectors: The d-vectors have cracked symmetry at i=11
CleanUpVectors: The d-vectors have cracked symmetry at i=12
CleanUpVectors: The d-vectors have cracked symmetry at i=13
CleanUpVectors: The p-vectors have cracked symmetry
CleanUpVectors: The p-vectors have cracked symmetry
CleanUpVectors: The p-vectors have cracked symmetry
CleanUpVectors: The d-vectors have cracked symmetry at i=17
CleanUpVectors: The d-vectors have cracked symmetry at i=18
CleanUpVectors: The d-vectors have cracked symmetry at i=19
CleanUpVectors: The d-vectors have cracked symmetry at i=20
CleanUpVectors: The d-vectors have cracked symmetry at i=21
CleanUpVectors: The d-vectors have cracked symmetry at i=23
CleanUpVectors: The d-vectors have cracked symmetry at i=24
CleanUpVectors: The d-vectors have cracked symmetry at i=25
CleanUpVectors: The d-vectors have cracked symmetry at i=26
CleanUpVectors: The d-vectors have cracked symmetry at i=27
CleanUpVectors: The p-vectors have cracked symmetry
CleanUpVectors: The p-vectors have cracked symmetry
CleanUpVectors: The p-vectors have cracked symmetry
CleanUpVectors: The d-vectors have cracked symmetry at i=32
CleanUpVectors: The d-vectors have cracked symmetry at i=33
CleanUpVectors: The d-vectors have cracked symmetry at i=34
CleanUpVectors: The d-vectors have cracked symmetry at i=35
CleanUpVectors: The d-vectors have cracked symmetry at i=36
CleanUpVectors: The p-vectors have cracked symmetry
CleanUpVectors: The p-vectors have cracked symmetry
CleanUpVectors: The p-vectors have cracked symmetry
--------------------------
ATOM BASIS FOR ELEMENT  Y
--------------------------
 NewGTO  Y
 S 8
    1         12.000000000000        -0.275070134515
    2         10.800000000000         0.380801143736
    3          3.100737219500        -0.570281374600
    4          0.741554275700         0.788018337405
    5          0.341767757800         0.479899080861
    6          0.079428797000         0.020968178685
    7          0.043308336500         0.001371653583
    8          0.021593224900         0.002361246069
 P 23
    1          8.033613513800        -0.005443706191
    2          4.018172347700         0.031011735538
    3          1.105210589000        -0.041327602710
    4          0.832193166900        -0.046436770763
    5          8.033613513800        -0.000899936950
    6          4.018172347700         0.005126765792
    7          1.105210589000        -0.006832153575
    8          0.832193166900        -0.007676785698
    9          8.033613513800        -0.030949472009
   10          4.018172347700         0.176313123331
   11          1.105210589000        -0.234962622602
   12          0.832193166900        -0.264010122250
   13          0.447626766700        -0.084781945081
   14          0.447626766700        -0.014015893283
   15          0.447626766700        -0.482016542439
   16          0.205233471100        -0.024043355133
   17          0.205233471100        -0.003974774339
   18          0.205233471100        -0.136695317602
   19          0.055045561800        -0.001188927084
   20          0.055045561800        -0.000196549809
   21          0.055045561800        -0.006759487784
   22          0.022603027500         0.000201239527
   23          0.022603027500         0.000033268307
 P 23
    1          8.033613513800        -0.001480197822
    2          4.018172347700         0.008432399139
    3          1.105210589000        -0.011237385959
    4          0.832193166900        -0.012626619536
    5          8.033613513800        -0.000244701801
    6          4.018172347700         0.001394018576
    7          1.105210589000        -0.001857730464
    8          0.832193166900        -0.002087394333
    9          8.033613513800        -0.008415469066
   10          4.018172347700         0.047941290726
   11          1.105210589000        -0.063888672533
   12          0.832193166900        -0.071786976410
   13          0.447626766700        -0.045822437966
   14          0.447626766700        -0.007575226059
   15          0.447626766700        -0.260517414333
   16          0.205233471100         0.023516459554
   17          0.205233471100         0.003887669560
   18          0.205233471100         0.133699722432
   19          0.055045561800         0.129666777284
   20          0.055045561800         0.021436117193
   21          0.055045561800         0.737203323136
   22          0.022603027500         0.046363609656
   23          0.022603027500         0.007664690917
 S 8
    1         12.000000000000        -0.053964243390
    2         10.800000000000         0.074706931162
    3          3.100737219500        -0.120433029282
    4          0.741554275700         0.254673090029
    5          0.341767757800         0.137850378861
    6          0.079428797000         0.147411911932
    7          0.043308336500        -2.656428604599
    8          0.021593224900         2.684818817717
 S 8
    1         12.000000000000        -0.098000739434
    2         10.800000000000         0.135670103660
    3          3.100737219500        -0.218797248528
    4          0.741554275700         0.392923419663
    5          0.341767757800         0.389209045949
    6          0.079428797000        -0.722339937303
    7          0.043308336500        -0.338697668389
    8          0.021593224900        -0.178597901590
 S 8
    1         12.000000000000         0.064424300956
    2         10.800000000000        -0.089187608577
    3          3.100737219500         0.155284553980
    4          0.741554275700        -0.094551555015
    5          0.341767757800        -1.132015159446
    6          0.079428797000         6.503343470964
    7          0.043308336500        -8.764857816748
    8          0.021593224900         3.461138415475
 S 8
    1         12.000000000000        -0.450052953403
    2         10.800000000000         0.623043572868
    3          3.100737219500        -0.992759727560
    4          0.741554275700         4.284667966040
    5          0.341767757800        -5.053973796094
    6          0.079428797000         4.804016259219
    7          0.043308336500        -4.358524810065
    8          0.021593224900         1.314167990119
 S 8
    1         12.000000000000        -3.465894092079
    2         10.800000000000         4.798108804714
    3          3.100737219500        -2.867785802819
    4          0.741554275700         2.448453186632
    5          0.341767757800        -1.790721047154
    6          0.079428797000         1.208380109971
    7          0.043308336500        -1.083216272259
    8          0.021593224900         0.332444279600
 S 8
    1         12.000000000000        -4.420505290995
    2         10.800000000000         6.119651897754
    3          3.100737219500        -1.239148175501
    4          0.741554275700         0.792330205931
    5          0.341767757800        -0.559569481457
    6          0.079428797000         0.375288625164
    7          0.043308336500        -0.337138833515
    8          0.021593224900         0.103709975090
 D 23
    1         12.000000000000         0.000012248455
    2         10.800000000000        -0.000018840551
    3          3.100737219500         0.000111149777
    4          0.741554275700        -0.000525131142
    5          0.341767757800        -0.004770629283
    6          0.079428797000         0.112949427563
    7          0.043308336500        -0.435746490476
    8          0.021593224900         0.779662371784
    9         13.755105347000         0.001147669170
   10          3.962990855200        -0.012072635342
   11          1.342744975500         0.107631643329
   12          0.625792481100         0.266023147225
   13         13.755105347000         0.000038841612
   14          3.962990855200        -0.000408585180
   15          1.342744975500         0.003642675616
   16          0.625792481100         0.009003263370
   17         13.755105347000        -0.000342948784
   18          3.962990855200         0.003607568901
   19          1.342744975500        -0.032162701702
   20          0.625792481100        -0.079493565882
   21         13.755105347000        -0.000104846232
   22          3.962990855200         0.001102905229
   23          1.342744975500        -0.009832774609
 P 23
    1          8.033613513800        -0.001043675428
    2          4.018172347700         0.005945615953
    3          1.105210589000        -0.007923389314
    4          0.832193166900        -0.008902926594
    5          8.033613513800        -0.000172537247
    6          4.018172347700         0.000982911145
    7          1.105210589000        -0.001309870621
    8          0.832193166900        -0.001471804745
    9          8.033613513800        -0.005933678697
   10          4.018172347700         0.033803013620
   11          1.105210589000        -0.045047382645
   12          0.832193166900        -0.050616412379
   13          0.447626766700        -0.015031947325
   14          0.447626766700        -0.002485035810
   15          0.447626766700        -0.085462149619
   16          0.205233471100        -0.023799184339
   17          0.205233471100        -0.003934408766
   18          0.205233471100        -0.135307116825
   19          0.055045561800         0.270870798577
   20          0.055045561800         0.044779536523
   21          0.055045561800         1.540000122075
   22          0.022603027500        -0.289645543451
   23          0.022603027500        -0.047883320239
 D 23
    1         12.000000000000        -0.000010473364
    2         10.800000000000         0.000016110109
    3          3.100737219500        -0.000092758521
    4          0.741554275700         0.000761473643
    5          0.341767757800         0.001679178737
    6          0.079428797000        -0.051070036618
    7          0.043308336500         0.093327854532
    8          0.021593224900        -0.029529131055
    9         13.755105347000         0.000630293813
   10          3.962990855200        -0.006630227211
   11          1.342744975500         0.059110726879
   12          0.625792481100         0.146098499593
   13         13.755105347000         0.000021379678
   14          3.962990855200        -0.000224898483
   15          1.342744975500         0.002005046342
   16          0.625792481100         0.004955687023
   17         13.755105347000        -0.000188026394
   18          3.962990855200         0.001977899341
   19          1.342744975500        -0.017633644221
   20          0.625792481100        -0.043583442448
   21         13.755105347000        -0.000059345088
   22          3.962990855200         0.000624266669
   23          1.342744975500        -0.005565549320
 D 23
    1         12.000000000000        -0.000012910760
    2         10.800000000000         0.000019859308
    3          3.100737219500        -0.000110506112
    4          0.741554275700         0.001729745351
    5          0.341767757800        -0.003959545684
    6          0.079428797000         0.021662019404
    7          0.043308336500        -0.037485681748
    8          0.021593224900         0.006553661552
    9         13.755105347000         0.000891780549
   10          3.962990855200        -0.009380875303
   11          1.342744975500         0.083633688593
   12          0.625792481100         0.206709628928
   13         13.755105347000         0.000031548238
   14          3.962990855200        -0.000331864252
   15          1.342744975500         0.002958682494
   16          0.625792481100         0.007312701027
   17         13.755105347000        -0.000257405611
   18          3.962990855200         0.002707717657
   19          1.342744975500        -0.024140222316
   20          0.625792481100        -0.059665147875
   21         13.755105347000        -0.000131631226
   22          3.962990855200         0.001384663663
   23          1.342744975500        -0.012344746715
 P 23
    1          8.033613513800         0.002584322688
    2          4.018172347700        -0.014722383784
    3          1.105210589000         0.019619696138
    4          0.832193166900         0.022045201567
    5          8.033613513800         0.000427232366
    6          4.018172347700        -0.002433859704
    7          1.105210589000         0.003243468486
    8          0.832193166900         0.003644445665
    9          8.033613513800         0.014692825052
   10          4.018172347700        -0.083702167028
   11          1.105210589000         0.111545189098
   12          0.832193166900         0.125335079613
   13          0.447626766700         0.231714781011
   14          0.447626766700         0.038306382762
   15          0.447626766700         1.317383759801
   16          0.205233471100        -0.423182705674
   17          0.205233471100        -0.069959277655
   18          0.205233471100        -2.405949337588
   19          0.055045561800         0.284011349297
   20          0.055045561800         0.046951892354
   21          0.055045561800         1.614708986321
   22          0.022603027500        -0.122593955193
   23          0.022603027500        -0.020266859763
 D 23
    1         12.000000000000        -0.000004167788
    2         10.800000000000         0.000006410884
    3          3.100737219500        -0.000038070898
    4          0.741554275700         0.000670964028
    5          0.341767757800        -0.001622794523
    6          0.079428797000         0.005201288785
    7          0.043308336500        -0.005247205049
    8          0.021593224900        -0.001471229777
    9         13.755105347000         0.000063603552
   10          3.962990855200        -0.000669062577
   11          1.342744975500         0.005964920058
   12          0.625792481100         0.014742939507
   13         13.755105347000        -0.000125487766
   14          3.962990855200         0.001320038974
   15          1.342744975500        -0.011768595671
   16          0.625792481100        -0.029087346082
   17         13.755105347000        -0.000866708728
   18          3.962990855200         0.009117138197
   19          1.342744975500        -0.081282382742
   20          0.625792481100        -0.200898124399
   21         13.755105347000         0.004678288677
   22          3.962990855200        -0.049212155125
   23          1.342744975500         0.438743072896
 P 23
    1          8.033613513800        -0.036332156735
    2          4.018172347700         0.206977231447
    3          1.105210589000        -0.275826961720
    4          0.832193166900        -0.309926357976
    5          8.033613513800        -0.006006321647
    6          4.018172347700         0.034216846380
    7          1.105210589000        -0.045598874381
    8          0.832193166900        -0.051236082857
    9          8.033613513800        -0.206561674763
   10          4.018172347700         1.176741691320
   11          1.105210589000        -1.568177732292
   12          0.832193166900        -1.762045342474
   13          0.447626766700         0.791315263492
   14          0.447626766700         0.130817832567
   15          0.447626766700         4.498918335217
   16          0.205233471100        -0.443766160542
   17          0.205233471100        -0.073362071942
   18          0.205233471100        -2.522973849135
   19          0.055045561800         0.152918738693
   20          0.055045561800         0.025280060777
   21          0.055045561800         0.869399276172
   22          0.022603027500        -0.063842660397
   23          0.022603027500        -0.010554274439
 end
  // -----------------------------------------------
  // The basis set
  // -----------------------------------------------
  BAS[ATNO] = new BFNGauss[NSH];
  // Basis function   1 L = s
  InitBFNGauss(BAS[ATNO][  0]);
  BAS[ATNO][  0].l  = 0;
  BAS[ATNO][  0].ng = 8;
  BAS[ATNO][  0].a[  0] =        12.000000000000;     BAS[ATNO][  0].d[  0] =        -0.275070134515;
  BAS[ATNO][  0].a[  1] =        10.800000000000;     BAS[ATNO][  0].d[  1] =         0.380801143736;
  BAS[ATNO][  0].a[  2] =         3.100737219500;     BAS[ATNO][  0].d[  2] =        -0.570281374600;
  BAS[ATNO][  0].a[  3] =         0.741554275700;     BAS[ATNO][  0].d[  3] =         0.788018337405;
  BAS[ATNO][  0].a[  4] =         0.341767757800;     BAS[ATNO][  0].d[  4] =         0.479899080861;
  BAS[ATNO][  0].a[  5] =         0.079428797000;     BAS[ATNO][  0].d[  5] =         0.020968178685;
  BAS[ATNO][  0].a[  6] =         0.043308336500;     BAS[ATNO][  0].d[  6] =         0.001371653583;
  BAS[ATNO][  0].a[  7] =         0.021593224900;     BAS[ATNO][  0].d[  7] =         0.002361246069;

  // Basis function   2 L = p
  InitBFNGauss(BAS[ATNO][  1]);
  BAS[ATNO][  1].l  = 1;
  BAS[ATNO][  1].ng = 23;
  BAS[ATNO][  1].a[  0] =         8.033613513800;     BAS[ATNO][  1].d[  0] =         0.005443706191;
  BAS[ATNO][  1].a[  1] =         4.018172347700;     BAS[ATNO][  1].d[  1] =        -0.031011735538;
  BAS[ATNO][  1].a[  2] =         1.105210589000;     BAS[ATNO][  1].d[  2] =         0.041327602710;
  BAS[ATNO][  1].a[  3] =         0.832193166900;     BAS[ATNO][  1].d[  3] =         0.046436770763;
  BAS[ATNO][  1].a[  4] =         8.033613513800;     BAS[ATNO][  1].d[  4] =         0.000899936950;
  BAS[ATNO][  1].a[  5] =         4.018172347700;     BAS[ATNO][  1].d[  5] =        -0.005126765792;
  BAS[ATNO][  1].a[  6] =         1.105210589000;     BAS[ATNO][  1].d[  6] =         0.006832153575;
  BAS[ATNO][  1].a[  7] =         0.832193166900;     BAS[ATNO][  1].d[  7] =         0.007676785698;
  BAS[ATNO][  1].a[  8] =         8.033613513800;     BAS[ATNO][  1].d[  8] =         0.030949472009;
  BAS[ATNO][  1].a[  9] =         4.018172347700;     BAS[ATNO][  1].d[  9] =        -0.176313123331;
  BAS[ATNO][  1].a[ 10] =         1.105210589000;     BAS[ATNO][  1].d[ 10] =         0.234962622602;
  BAS[ATNO][  1].a[ 11] =         0.832193166900;     BAS[ATNO][  1].d[ 11] =         0.264010122250;
  BAS[ATNO][  1].a[ 12] =         0.447626766700;     BAS[ATNO][  1].d[ 12] =         0.084781945081;
  BAS[ATNO][  1].a[ 13] =         0.447626766700;     BAS[ATNO][  1].d[ 13] =         0.014015893283;
  BAS[ATNO][  1].a[ 14] =         0.447626766700;     BAS[ATNO][  1].d[ 14] =         0.482016542439;
  BAS[ATNO][  1].a[ 15] =         0.205233471100;     BAS[ATNO][  1].d[ 15] =         0.024043355133;
  BAS[ATNO][  1].a[ 16] =         0.205233471100;     BAS[ATNO][  1].d[ 16] =         0.003974774339;
  BAS[ATNO][  1].a[ 17] =         0.205233471100;     BAS[ATNO][  1].d[ 17] =         0.136695317602;
  BAS[ATNO][  1].a[ 18] =         0.055045561800;     BAS[ATNO][  1].d[ 18] =         0.001188927084;
  BAS[ATNO][  1].a[ 19] =         0.055045561800;     BAS[ATNO][  1].d[ 19] =         0.000196549809;
  BAS[ATNO][  1].a[ 20] =         0.055045561800;     BAS[ATNO][  1].d[ 20] =         0.006759487784;
  BAS[ATNO][  1].a[ 21] =         0.022603027500;     BAS[ATNO][  1].d[ 21] =        -0.000201239527;
  BAS[ATNO][  1].a[ 22] =         0.022603027500;     BAS[ATNO][  1].d[ 22] =        -0.000033268307;

  // Basis function   3 L = p
  InitBFNGauss(BAS[ATNO][  2]);
  BAS[ATNO][  2].l  = 1;
  BAS[ATNO][  2].ng = 23;
  BAS[ATNO][  2].a[  0] =         8.033613513800;     BAS[ATNO][  2].d[  0] =        -0.001480197822;
  BAS[ATNO][  2].a[  1] =         4.018172347700;     BAS[ATNO][  2].d[  1] =         0.008432399139;
  BAS[ATNO][  2].a[  2] =         1.105210589000;     BAS[ATNO][  2].d[  2] =        -0.011237385959;
  BAS[ATNO][  2].a[  3] =         0.832193166900;     BAS[ATNO][  2].d[  3] =        -0.012626619536;
  BAS[ATNO][  2].a[  4] =         8.033613513800;     BAS[ATNO][  2].d[  4] =        -0.000244701801;
  BAS[ATNO][  2].a[  5] =         4.018172347700;     BAS[ATNO][  2].d[  5] =         0.001394018576;
  BAS[ATNO][  2].a[  6] =         1.105210589000;     BAS[ATNO][  2].d[  6] =        -0.001857730464;
  BAS[ATNO][  2].a[  7] =         0.832193166900;     BAS[ATNO][  2].d[  7] =        -0.002087394333;
  BAS[ATNO][  2].a[  8] =         8.033613513800;     BAS[ATNO][  2].d[  8] =        -0.008415469066;
  BAS[ATNO][  2].a[  9] =         4.018172347700;     BAS[ATNO][  2].d[  9] =         0.047941290726;
  BAS[ATNO][  2].a[ 10] =         1.105210589000;     BAS[ATNO][  2].d[ 10] =        -0.063888672533;
  BAS[ATNO][  2].a[ 11] =         0.832193166900;     BAS[ATNO][  2].d[ 11] =        -0.071786976410;
  BAS[ATNO][  2].a[ 12] =         0.447626766700;     BAS[ATNO][  2].d[ 12] =        -0.045822437966;
  BAS[ATNO][  2].a[ 13] =         0.447626766700;     BAS[ATNO][  2].d[ 13] =        -0.007575226059;
  BAS[ATNO][  2].a[ 14] =         0.447626766700;     BAS[ATNO][  2].d[ 14] =        -0.260517414333;
  BAS[ATNO][  2].a[ 15] =         0.205233471100;     BAS[ATNO][  2].d[ 15] =         0.023516459554;
  BAS[ATNO][  2].a[ 16] =         0.205233471100;     BAS[ATNO][  2].d[ 16] =         0.003887669560;
  BAS[ATNO][  2].a[ 17] =         0.205233471100;     BAS[ATNO][  2].d[ 17] =         0.133699722432;
  BAS[ATNO][  2].a[ 18] =         0.055045561800;     BAS[ATNO][  2].d[ 18] =         0.129666777284;
  BAS[ATNO][  2].a[ 19] =         0.055045561800;     BAS[ATNO][  2].d[ 19] =         0.021436117193;
  BAS[ATNO][  2].a[ 20] =         0.055045561800;     BAS[ATNO][  2].d[ 20] =         0.737203323136;
  BAS[ATNO][  2].a[ 21] =         0.022603027500;     BAS[ATNO][  2].d[ 21] =         0.046363609656;
  BAS[ATNO][  2].a[ 22] =         0.022603027500;     BAS[ATNO][  2].d[ 22] =         0.007664690917;

  // Basis function   4 L = s
  InitBFNGauss(BAS[ATNO][  3]);
  BAS[ATNO][  3].l  = 0;
  BAS[ATNO][  3].ng = 8;
  BAS[ATNO][  3].a[  0] =        12.000000000000;     BAS[ATNO][  3].d[  0] =        -0.053964243390;
  BAS[ATNO][  3].a[  1] =        10.800000000000;     BAS[ATNO][  3].d[  1] =         0.074706931162;
  BAS[ATNO][  3].a[  2] =         3.100737219500;     BAS[ATNO][  3].d[  2] =        -0.120433029282;
  BAS[ATNO][  3].a[  3] =         0.741554275700;     BAS[ATNO][  3].d[  3] =         0.254673090029;
  BAS[ATNO][  3].a[  4] =         0.341767757800;     BAS[ATNO][  3].d[  4] =         0.137850378861;
  BAS[ATNO][  3].a[  5] =         0.079428797000;     BAS[ATNO][  3].d[  5] =         0.147411911932;
  BAS[ATNO][  3].a[  6] =         0.043308336500;     BAS[ATNO][  3].d[  6] =        -2.656428604599;
  BAS[ATNO][  3].a[  7] =         0.021593224900;     BAS[ATNO][  3].d[  7] =         2.684818817717;

  // Basis function   5 L = s
  InitBFNGauss(BAS[ATNO][  4]);
  BAS[ATNO][  4].l  = 0;
  BAS[ATNO][  4].ng = 8;
  BAS[ATNO][  4].a[  0] =        12.000000000000;     BAS[ATNO][  4].d[  0] =         0.098000739434;
  BAS[ATNO][  4].a[  1] =        10.800000000000;     BAS[ATNO][  4].d[  1] =        -0.135670103660;
  BAS[ATNO][  4].a[  2] =         3.100737219500;     BAS[ATNO][  4].d[  2] =         0.218797248528;
  BAS[ATNO][  4].a[  3] =         0.741554275700;     BAS[ATNO][  4].d[  3] =        -0.392923419663;
  BAS[ATNO][  4].a[  4] =         0.341767757800;     BAS[ATNO][  4].d[  4] =        -0.389209045949;
  BAS[ATNO][  4].a[  5] =         0.079428797000;     BAS[ATNO][  4].d[  5] =         0.722339937303;
  BAS[ATNO][  4].a[  6] =         0.043308336500;     BAS[ATNO][  4].d[  6] =         0.338697668389;
  BAS[ATNO][  4].a[  7] =         0.021593224900;     BAS[ATNO][  4].d[  7] =         0.178597901590;

  // Basis function   6 L = s
  InitBFNGauss(BAS[ATNO][  5]);
  BAS[ATNO][  5].l  = 0;
  BAS[ATNO][  5].ng = 8;
  BAS[ATNO][  5].a[  0] =        12.000000000000;     BAS[ATNO][  5].d[  0] =        -0.064424300956;
  BAS[ATNO][  5].a[  1] =        10.800000000000;     BAS[ATNO][  5].d[  1] =         0.089187608577;
  BAS[ATNO][  5].a[  2] =         3.100737219500;     BAS[ATNO][  5].d[  2] =        -0.155284553980;
  BAS[ATNO][  5].a[  3] =         0.741554275700;     BAS[ATNO][  5].d[  3] =         0.094551555015;
  BAS[ATNO][  5].a[  4] =         0.341767757800;     BAS[ATNO][  5].d[  4] =         1.132015159446;
  BAS[ATNO][  5].a[  5] =         0.079428797000;     BAS[ATNO][  5].d[  5] =        -6.503343470964;
  BAS[ATNO][  5].a[  6] =         0.043308336500;     BAS[ATNO][  5].d[  6] =         8.764857816748;
  BAS[ATNO][  5].a[  7] =         0.021593224900;     BAS[ATNO][  5].d[  7] =        -3.461138415475;

  // Basis function   7 L = s
  InitBFNGauss(BAS[ATNO][  6]);
  BAS[ATNO][  6].l  = 0;
  BAS[ATNO][  6].ng = 8;
  BAS[ATNO][  6].a[  0] =        12.000000000000;     BAS[ATNO][  6].d[  0] =         0.450052953403;
  BAS[ATNO][  6].a[  1] =        10.800000000000;     BAS[ATNO][  6].d[  1] =        -0.623043572868;
  BAS[ATNO][  6].a[  2] =         3.100737219500;     BAS[ATNO][  6].d[  2] =         0.992759727560;
  BAS[ATNO][  6].a[  3] =         0.741554275700;     BAS[ATNO][  6].d[  3] =        -4.284667966040;
  BAS[ATNO][  6].a[  4] =         0.341767757800;     BAS[ATNO][  6].d[  4] =         5.053973796094;
  BAS[ATNO][  6].a[  5] =         0.079428797000;     BAS[ATNO][  6].d[  5] =        -4.804016259219;
  BAS[ATNO][  6].a[  6] =         0.043308336500;     BAS[ATNO][  6].d[  6] =         4.358524810065;
  BAS[ATNO][  6].a[  7] =         0.021593224900;     BAS[ATNO][  6].d[  7] =        -1.314167990119;

  // Basis function   8 L = s
  InitBFNGauss(BAS[ATNO][  7]);
  BAS[ATNO][  7].l  = 0;
  BAS[ATNO][  7].ng = 8;
  BAS[ATNO][  7].a[  0] =        12.000000000000;     BAS[ATNO][  7].d[  0] =        -3.465894092079;
  BAS[ATNO][  7].a[  1] =        10.800000000000;     BAS[ATNO][  7].d[  1] =         4.798108804714;
  BAS[ATNO][  7].a[  2] =         3.100737219500;     BAS[ATNO][  7].d[  2] =        -2.867785802819;
  BAS[ATNO][  7].a[  3] =         0.741554275700;     BAS[ATNO][  7].d[  3] =         2.448453186632;
  BAS[ATNO][  7].a[  4] =         0.341767757800;     BAS[ATNO][  7].d[  4] =        -1.790721047154;
  BAS[ATNO][  7].a[  5] =         0.079428797000;     BAS[ATNO][  7].d[  5] =         1.208380109971;
  BAS[ATNO][  7].a[  6] =         0.043308336500;     BAS[ATNO][  7].d[  6] =        -1.083216272259;
  BAS[ATNO][  7].a[  7] =         0.021593224900;     BAS[ATNO][  7].d[  7] =         0.332444279600;

  // Basis function   9 L = s
  InitBFNGauss(BAS[ATNO][  8]);
  BAS[ATNO][  8].l  = 0;
  BAS[ATNO][  8].ng = 8;
  BAS[ATNO][  8].a[  0] =        12.000000000000;     BAS[ATNO][  8].d[  0] =        -4.420505290995;
  BAS[ATNO][  8].a[  1] =        10.800000000000;     BAS[ATNO][  8].d[  1] =         6.119651897754;
  BAS[ATNO][  8].a[  2] =         3.100737219500;     BAS[ATNO][  8].d[  2] =        -1.239148175501;
  BAS[ATNO][  8].a[  3] =         0.741554275700;     BAS[ATNO][  8].d[  3] =         0.792330205931;
  BAS[ATNO][  8].a[  4] =         0.341767757800;     BAS[ATNO][  8].d[  4] =        -0.559569481457;
  BAS[ATNO][  8].a[  5] =         0.079428797000;     BAS[ATNO][  8].d[  5] =         0.375288625164;
  BAS[ATNO][  8].a[  6] =         0.043308336500;     BAS[ATNO][  8].d[  6] =        -0.337138833515;
  BAS[ATNO][  8].a[  7] =         0.021593224900;     BAS[ATNO][  8].d[  7] =         0.103709975090;

  // Basis function  10 L = d
  InitBFNGauss(BAS[ATNO][  9]);
  BAS[ATNO][  9].l  = 2;
  BAS[ATNO][  9].ng = 23;
  BAS[ATNO][  9].a[  0] =        12.000000000000;     BAS[ATNO][  9].d[  0] =         0.000012248455;
  BAS[ATNO][  9].a[  1] =        10.800000000000;     BAS[ATNO][  9].d[  1] =        -0.000018840551;
  BAS[ATNO][  9].a[  2] =         3.100737219500;     BAS[ATNO][  9].d[  2] =         0.000111149777;
  BAS[ATNO][  9].a[  3] =         0.741554275700;     BAS[ATNO][  9].d[  3] =        -0.000525131142;
  BAS[ATNO][  9].a[  4] =         0.341767757800;     BAS[ATNO][  9].d[  4] =        -0.004770629283;
  BAS[ATNO][  9].a[  5] =         0.079428797000;     BAS[ATNO][  9].d[  5] =         0.112949427563;
  BAS[ATNO][  9].a[  6] =         0.043308336500;     BAS[ATNO][  9].d[  6] =        -0.435746490476;
  BAS[ATNO][  9].a[  7] =         0.021593224900;     BAS[ATNO][  9].d[  7] =         0.779662371784;
  BAS[ATNO][  9].a[  8] =        13.755105347000;     BAS[ATNO][  9].d[  8] =         0.001147669170;
  BAS[ATNO][  9].a[  9] =         3.962990855200;     BAS[ATNO][  9].d[  9] =        -0.012072635342;
  BAS[ATNO][  9].a[ 10] =         1.342744975500;     BAS[ATNO][  9].d[ 10] =         0.107631643329;
  BAS[ATNO][  9].a[ 11] =         0.625792481100;     BAS[ATNO][  9].d[ 11] =         0.266023147225;
  BAS[ATNO][  9].a[ 12] =        13.755105347000;     BAS[ATNO][  9].d[ 12] =         0.000038841612;
  BAS[ATNO][  9].a[ 13] =         3.962990855200;     BAS[ATNO][  9].d[ 13] =        -0.000408585180;
  BAS[ATNO][  9].a[ 14] =         1.342744975500;     BAS[ATNO][  9].d[ 14] =         0.003642675616;
  BAS[ATNO][  9].a[ 15] =         0.625792481100;     BAS[ATNO][  9].d[ 15] =         0.009003263370;
  BAS[ATNO][  9].a[ 16] =        13.755105347000;     BAS[ATNO][  9].d[ 16] =        -0.000342948784;
  BAS[ATNO][  9].a[ 17] =         3.962990855200;     BAS[ATNO][  9].d[ 17] =         0.003607568901;
  BAS[ATNO][  9].a[ 18] =         1.342744975500;     BAS[ATNO][  9].d[ 18] =        -0.032162701702;
  BAS[ATNO][  9].a[ 19] =         0.625792481100;     BAS[ATNO][  9].d[ 19] =        -0.079493565882;
  BAS[ATNO][  9].a[ 20] =        13.755105347000;     BAS[ATNO][  9].d[ 20] =        -0.000104846232;
  BAS[ATNO][  9].a[ 21] =         3.962990855200;     BAS[ATNO][  9].d[ 21] =         0.001102905229;
  BAS[ATNO][  9].a[ 22] =         1.342744975500;     BAS[ATNO][  9].d[ 22] =        -0.009832774609;

  // Basis function  11 L = p
  InitBFNGauss(BAS[ATNO][ 10]);
  BAS[ATNO][ 10].l  = 1;
  BAS[ATNO][ 10].ng = 23;
  BAS[ATNO][ 10].a[  0] =         8.033613513800;     BAS[ATNO][ 10].d[  0] =        -0.001043675428;
  BAS[ATNO][ 10].a[  1] =         4.018172347700;     BAS[ATNO][ 10].d[  1] =         0.005945615953;
  BAS[ATNO][ 10].a[  2] =         1.105210589000;     BAS[ATNO][ 10].d[  2] =        -0.007923389314;
  BAS[ATNO][ 10].a[  3] =         0.832193166900;     BAS[ATNO][ 10].d[  3] =        -0.008902926594;
  BAS[ATNO][ 10].a[  4] =         8.033613513800;     BAS[ATNO][ 10].d[  4] =        -0.000172537247;
  BAS[ATNO][ 10].a[  5] =         4.018172347700;     BAS[ATNO][ 10].d[  5] =         0.000982911145;
  BAS[ATNO][ 10].a[  6] =         1.105210589000;     BAS[ATNO][ 10].d[  6] =        -0.001309870621;
  BAS[ATNO][ 10].a[  7] =         0.832193166900;     BAS[ATNO][ 10].d[  7] =        -0.001471804745;
  BAS[ATNO][ 10].a[  8] =         8.033613513800;     BAS[ATNO][ 10].d[  8] =        -0.005933678697;
  BAS[ATNO][ 10].a[  9] =         4.018172347700;     BAS[ATNO][ 10].d[  9] =         0.033803013620;
  BAS[ATNO][ 10].a[ 10] =         1.105210589000;     BAS[ATNO][ 10].d[ 10] =        -0.045047382645;
  BAS[ATNO][ 10].a[ 11] =         0.832193166900;     BAS[ATNO][ 10].d[ 11] =        -0.050616412379;
  BAS[ATNO][ 10].a[ 12] =         0.447626766700;     BAS[ATNO][ 10].d[ 12] =        -0.015031947325;
  BAS[ATNO][ 10].a[ 13] =         0.447626766700;     BAS[ATNO][ 10].d[ 13] =        -0.002485035810;
  BAS[ATNO][ 10].a[ 14] =         0.447626766700;     BAS[ATNO][ 10].d[ 14] =        -0.085462149619;
  BAS[ATNO][ 10].a[ 15] =         0.205233471100;     BAS[ATNO][ 10].d[ 15] =        -0.023799184339;
  BAS[ATNO][ 10].a[ 16] =         0.205233471100;     BAS[ATNO][ 10].d[ 16] =        -0.003934408766;
  BAS[ATNO][ 10].a[ 17] =         0.205233471100;     BAS[ATNO][ 10].d[ 17] =        -0.135307116825;
  BAS[ATNO][ 10].a[ 18] =         0.055045561800;     BAS[ATNO][ 10].d[ 18] =         0.270870798577;
  BAS[ATNO][ 10].a[ 19] =         0.055045561800;     BAS[ATNO][ 10].d[ 19] =         0.044779536523;
  BAS[ATNO][ 10].a[ 20] =         0.055045561800;     BAS[ATNO][ 10].d[ 20] =         1.540000122075;
  BAS[ATNO][ 10].a[ 21] =         0.022603027500;     BAS[ATNO][ 10].d[ 21] =        -0.289645543451;
  BAS[ATNO][ 10].a[ 22] =         0.022603027500;     BAS[ATNO][ 10].d[ 22] =        -0.047883320239;

  // Basis function  12 L = d
  InitBFNGauss(BAS[ATNO][ 11]);
  BAS[ATNO][ 11].l  = 2;
  BAS[ATNO][ 11].ng = 23;
  BAS[ATNO][ 11].a[  0] =        12.000000000000;     BAS[ATNO][ 11].d[  0] =        -0.000010473364;
  BAS[ATNO][ 11].a[  1] =        10.800000000000;     BAS[ATNO][ 11].d[  1] =         0.000016110109;
  BAS[ATNO][ 11].a[  2] =         3.100737219500;     BAS[ATNO][ 11].d[  2] =        -0.000092758521;
  BAS[ATNO][ 11].a[  3] =         0.741554275700;     BAS[ATNO][ 11].d[  3] =         0.000761473643;
  BAS[ATNO][ 11].a[  4] =         0.341767757800;     BAS[ATNO][ 11].d[  4] =         0.001679178737;
  BAS[ATNO][ 11].a[  5] =         0.079428797000;     BAS[ATNO][ 11].d[  5] =        -0.051070036618;
  BAS[ATNO][ 11].a[  6] =         0.043308336500;     BAS[ATNO][ 11].d[  6] =         0.093327854532;
  BAS[ATNO][ 11].a[  7] =         0.021593224900;     BAS[ATNO][ 11].d[  7] =        -0.029529131055;
  BAS[ATNO][ 11].a[  8] =        13.755105347000;     BAS[ATNO][ 11].d[  8] =         0.000630293813;
  BAS[ATNO][ 11].a[  9] =         3.962990855200;     BAS[ATNO][ 11].d[  9] =        -0.006630227211;
  BAS[ATNO][ 11].a[ 10] =         1.342744975500;     BAS[ATNO][ 11].d[ 10] =         0.059110726879;
  BAS[ATNO][ 11].a[ 11] =         0.625792481100;     BAS[ATNO][ 11].d[ 11] =         0.146098499593;
  BAS[ATNO][ 11].a[ 12] =        13.755105347000;     BAS[ATNO][ 11].d[ 12] =         0.000021379678;
  BAS[ATNO][ 11].a[ 13] =         3.962990855200;     BAS[ATNO][ 11].d[ 13] =        -0.000224898483;
  BAS[ATNO][ 11].a[ 14] =         1.342744975500;     BAS[ATNO][ 11].d[ 14] =         0.002005046342;
  BAS[ATNO][ 11].a[ 15] =         0.625792481100;     BAS[ATNO][ 11].d[ 15] =         0.004955687023;
  BAS[ATNO][ 11].a[ 16] =        13.755105347000;     BAS[ATNO][ 11].d[ 16] =        -0.000188026394;
  BAS[ATNO][ 11].a[ 17] =         3.962990855200;     BAS[ATNO][ 11].d[ 17] =         0.001977899341;
  BAS[ATNO][ 11].a[ 18] =         1.342744975500;     BAS[ATNO][ 11].d[ 18] =        -0.017633644221;
  BAS[ATNO][ 11].a[ 19] =         0.625792481100;     BAS[ATNO][ 11].d[ 19] =        -0.043583442448;
  BAS[ATNO][ 11].a[ 20] =        13.755105347000;     BAS[ATNO][ 11].d[ 20] =        -0.000059345088;
  BAS[ATNO][ 11].a[ 21] =         3.962990855200;     BAS[ATNO][ 11].d[ 21] =         0.000624266669;
  BAS[ATNO][ 11].a[ 22] =         1.342744975500;     BAS[ATNO][ 11].d[ 22] =        -0.005565549320;

  // Basis function  13 L = d
  InitBFNGauss(BAS[ATNO][ 12]);
  BAS[ATNO][ 12].l  = 2;
  BAS[ATNO][ 12].ng = 23;
  BAS[ATNO][ 12].a[  0] =        12.000000000000;     BAS[ATNO][ 12].d[  0] =        -0.000012910760;
  BAS[ATNO][ 12].a[  1] =        10.800000000000;     BAS[ATNO][ 12].d[  1] =         0.000019859308;
  BAS[ATNO][ 12].a[  2] =         3.100737219500;     BAS[ATNO][ 12].d[  2] =        -0.000110506112;
  BAS[ATNO][ 12].a[  3] =         0.741554275700;     BAS[ATNO][ 12].d[  3] =         0.001729745351;
  BAS[ATNO][ 12].a[  4] =         0.341767757800;     BAS[ATNO][ 12].d[  4] =        -0.003959545684;
  BAS[ATNO][ 12].a[  5] =         0.079428797000;     BAS[ATNO][ 12].d[  5] =         0.021662019404;
  BAS[ATNO][ 12].a[  6] =         0.043308336500;     BAS[ATNO][ 12].d[  6] =        -0.037485681748;
  BAS[ATNO][ 12].a[  7] =         0.021593224900;     BAS[ATNO][ 12].d[  7] =         0.006553661552;
  BAS[ATNO][ 12].a[  8] =        13.755105347000;     BAS[ATNO][ 12].d[  8] =         0.000891780549;
  BAS[ATNO][ 12].a[  9] =         3.962990855200;     BAS[ATNO][ 12].d[  9] =        -0.009380875303;
  BAS[ATNO][ 12].a[ 10] =         1.342744975500;     BAS[ATNO][ 12].d[ 10] =         0.083633688593;
  BAS[ATNO][ 12].a[ 11] =         0.625792481100;     BAS[ATNO][ 12].d[ 11] =         0.206709628928;
  BAS[ATNO][ 12].a[ 12] =        13.755105347000;     BAS[ATNO][ 12].d[ 12] =         0.000031548238;
  BAS[ATNO][ 12].a[ 13] =         3.962990855200;     BAS[ATNO][ 12].d[ 13] =        -0.000331864252;
  BAS[ATNO][ 12].a[ 14] =         1.342744975500;     BAS[ATNO][ 12].d[ 14] =         0.002958682494;
  BAS[ATNO][ 12].a[ 15] =         0.625792481100;     BAS[ATNO][ 12].d[ 15] =         0.007312701027;
  BAS[ATNO][ 12].a[ 16] =        13.755105347000;     BAS[ATNO][ 12].d[ 16] =        -0.000257405611;
  BAS[ATNO][ 12].a[ 17] =         3.962990855200;     BAS[ATNO][ 12].d[ 17] =         0.002707717657;
  BAS[ATNO][ 12].a[ 18] =         1.342744975500;     BAS[ATNO][ 12].d[ 18] =        -0.024140222316;
  BAS[ATNO][ 12].a[ 19] =         0.625792481100;     BAS[ATNO][ 12].d[ 19] =        -0.059665147875;
  BAS[ATNO][ 12].a[ 20] =        13.755105347000;     BAS[ATNO][ 12].d[ 20] =        -0.000131631226;
  BAS[ATNO][ 12].a[ 21] =         3.962990855200;     BAS[ATNO][ 12].d[ 21] =         0.001384663663;
  BAS[ATNO][ 12].a[ 22] =         1.342744975500;     BAS[ATNO][ 12].d[ 22] =        -0.012344746715;

  // Basis function  14 L = p
  InitBFNGauss(BAS[ATNO][ 13]);
  BAS[ATNO][ 13].l  = 1;
  BAS[ATNO][ 13].ng = 23;
  BAS[ATNO][ 13].a[  0] =         8.033613513800;     BAS[ATNO][ 13].d[  0] =        -0.002584322688;
  BAS[ATNO][ 13].a[  1] =         4.018172347700;     BAS[ATNO][ 13].d[  1] =         0.014722383784;
  BAS[ATNO][ 13].a[  2] =         1.105210589000;     BAS[ATNO][ 13].d[  2] =        -0.019619696138;
  BAS[ATNO][ 13].a[  3] =         0.832193166900;     BAS[ATNO][ 13].d[  3] =        -0.022045201567;
  BAS[ATNO][ 13].a[  4] =         8.033613513800;     BAS[ATNO][ 13].d[  4] =        -0.000427232366;
  BAS[ATNO][ 13].a[  5] =         4.018172347700;     BAS[ATNO][ 13].d[  5] =         0.002433859704;
  BAS[ATNO][ 13].a[  6] =         1.105210589000;     BAS[ATNO][ 13].d[  6] =        -0.003243468486;
  BAS[ATNO][ 13].a[  7] =         0.832193166900;     BAS[ATNO][ 13].d[  7] =        -0.003644445665;
  BAS[ATNO][ 13].a[  8] =         8.033613513800;     BAS[ATNO][ 13].d[  8] =        -0.014692825052;
  BAS[ATNO][ 13].a[  9] =         4.018172347700;     BAS[ATNO][ 13].d[  9] =         0.083702167028;
  BAS[ATNO][ 13].a[ 10] =         1.105210589000;     BAS[ATNO][ 13].d[ 10] =        -0.111545189098;
  BAS[ATNO][ 13].a[ 11] =         0.832193166900;     BAS[ATNO][ 13].d[ 11] =        -0.125335079613;
  BAS[ATNO][ 13].a[ 12] =         0.447626766700;     BAS[ATNO][ 13].d[ 12] =        -0.231714781011;
  BAS[ATNO][ 13].a[ 13] =         0.447626766700;     BAS[ATNO][ 13].d[ 13] =        -0.038306382762;
  BAS[ATNO][ 13].a[ 14] =         0.447626766700;     BAS[ATNO][ 13].d[ 14] =        -1.317383759801;
  BAS[ATNO][ 13].a[ 15] =         0.205233471100;     BAS[ATNO][ 13].d[ 15] =         0.423182705674;
  BAS[ATNO][ 13].a[ 16] =         0.205233471100;     BAS[ATNO][ 13].d[ 16] =         0.069959277655;
  BAS[ATNO][ 13].a[ 17] =         0.205233471100;     BAS[ATNO][ 13].d[ 17] =         2.405949337588;
  BAS[ATNO][ 13].a[ 18] =         0.055045561800;     BAS[ATNO][ 13].d[ 18] =        -0.284011349297;
  BAS[ATNO][ 13].a[ 19] =         0.055045561800;     BAS[ATNO][ 13].d[ 19] =        -0.046951892354;
  BAS[ATNO][ 13].a[ 20] =         0.055045561800;     BAS[ATNO][ 13].d[ 20] =        -1.614708986321;
  BAS[ATNO][ 13].a[ 21] =         0.022603027500;     BAS[ATNO][ 13].d[ 21] =         0.122593955193;
  BAS[ATNO][ 13].a[ 22] =         0.022603027500;     BAS[ATNO][ 13].d[ 22] =         0.020266859763;

  // Basis function  15 L = d
  InitBFNGauss(BAS[ATNO][ 14]);
  BAS[ATNO][ 14].l  = 2;
  BAS[ATNO][ 14].ng = 23;
  BAS[ATNO][ 14].a[  0] =        12.000000000000;     BAS[ATNO][ 14].d[  0] =        -0.000004167788;
  BAS[ATNO][ 14].a[  1] =        10.800000000000;     BAS[ATNO][ 14].d[  1] =         0.000006410884;
  BAS[ATNO][ 14].a[  2] =         3.100737219500;     BAS[ATNO][ 14].d[  2] =        -0.000038070898;
  BAS[ATNO][ 14].a[  3] =         0.741554275700;     BAS[ATNO][ 14].d[  3] =         0.000670964028;
  BAS[ATNO][ 14].a[  4] =         0.341767757800;     BAS[ATNO][ 14].d[  4] =        -0.001622794523;
  BAS[ATNO][ 14].a[  5] =         0.079428797000;     BAS[ATNO][ 14].d[  5] =         0.005201288785;
  BAS[ATNO][ 14].a[  6] =         0.043308336500;     BAS[ATNO][ 14].d[  6] =        -0.005247205049;
  BAS[ATNO][ 14].a[  7] =         0.021593224900;     BAS[ATNO][ 14].d[  7] =        -0.001471229777;
  BAS[ATNO][ 14].a[  8] =        13.755105347000;     BAS[ATNO][ 14].d[  8] =         0.000063603552;
  BAS[ATNO][ 14].a[  9] =         3.962990855200;     BAS[ATNO][ 14].d[  9] =        -0.000669062577;
  BAS[ATNO][ 14].a[ 10] =         1.342744975500;     BAS[ATNO][ 14].d[ 10] =         0.005964920058;
  BAS[ATNO][ 14].a[ 11] =         0.625792481100;     BAS[ATNO][ 14].d[ 11] =         0.014742939507;
  BAS[ATNO][ 14].a[ 12] =        13.755105347000;     BAS[ATNO][ 14].d[ 12] =        -0.000125487766;
  BAS[ATNO][ 14].a[ 13] =         3.962990855200;     BAS[ATNO][ 14].d[ 13] =         0.001320038974;
  BAS[ATNO][ 14].a[ 14] =         1.342744975500;     BAS[ATNO][ 14].d[ 14] =        -0.011768595671;
  BAS[ATNO][ 14].a[ 15] =         0.625792481100;     BAS[ATNO][ 14].d[ 15] =        -0.029087346082;
  BAS[ATNO][ 14].a[ 16] =        13.755105347000;     BAS[ATNO][ 14].d[ 16] =        -0.000866708728;
  BAS[ATNO][ 14].a[ 17] =         3.962990855200;     BAS[ATNO][ 14].d[ 17] =         0.009117138197;
  BAS[ATNO][ 14].a[ 18] =         1.342744975500;     BAS[ATNO][ 14].d[ 18] =        -0.081282382742;
  BAS[ATNO][ 14].a[ 19] =         0.625792481100;     BAS[ATNO][ 14].d[ 19] =        -0.200898124399;
  BAS[ATNO][ 14].a[ 20] =        13.755105347000;     BAS[ATNO][ 14].d[ 20] =         0.004678288677;
  BAS[ATNO][ 14].a[ 21] =         3.962990855200;     BAS[ATNO][ 14].d[ 21] =        -0.049212155125;
  BAS[ATNO][ 14].a[ 22] =         1.342744975500;     BAS[ATNO][ 14].d[ 22] =         0.438743072896;

  // Basis function  16 L = p
  InitBFNGauss(BAS[ATNO][ 15]);
  BAS[ATNO][ 15].l  = 1;
  BAS[ATNO][ 15].ng = 23;
  BAS[ATNO][ 15].a[  0] =         8.033613513800;     BAS[ATNO][ 15].d[  0] =        -0.036332156735;
  BAS[ATNO][ 15].a[  1] =         4.018172347700;     BAS[ATNO][ 15].d[  1] =         0.206977231447;
  BAS[ATNO][ 15].a[  2] =         1.105210589000;     BAS[ATNO][ 15].d[  2] =        -0.275826961720;
  BAS[ATNO][ 15].a[  3] =         0.832193166900;     BAS[ATNO][ 15].d[  3] =        -0.309926357976;
  BAS[ATNO][ 15].a[  4] =         8.033613513800;     BAS[ATNO][ 15].d[  4] =        -0.006006321647;
  BAS[ATNO][ 15].a[  5] =         4.018172347700;     BAS[ATNO][ 15].d[  5] =         0.034216846380;
  BAS[ATNO][ 15].a[  6] =         1.105210589000;     BAS[ATNO][ 15].d[  6] =        -0.045598874381;
  BAS[ATNO][ 15].a[  7] =         0.832193166900;     BAS[ATNO][ 15].d[  7] =        -0.051236082857;
  BAS[ATNO][ 15].a[  8] =         8.033613513800;     BAS[ATNO][ 15].d[  8] =        -0.206561674763;
  BAS[ATNO][ 15].a[  9] =         4.018172347700;     BAS[ATNO][ 15].d[  9] =         1.176741691320;
  BAS[ATNO][ 15].a[ 10] =         1.105210589000;     BAS[ATNO][ 15].d[ 10] =        -1.568177732292;
  BAS[ATNO][ 15].a[ 11] =         0.832193166900;     BAS[ATNO][ 15].d[ 11] =        -1.762045342474;
  BAS[ATNO][ 15].a[ 12] =         0.447626766700;     BAS[ATNO][ 15].d[ 12] =         0.791315263492;
  BAS[ATNO][ 15].a[ 13] =         0.447626766700;     BAS[ATNO][ 15].d[ 13] =         0.130817832567;
  BAS[ATNO][ 15].a[ 14] =         0.447626766700;     BAS[ATNO][ 15].d[ 14] =         4.498918335217;
  BAS[ATNO][ 15].a[ 15] =         0.205233471100;     BAS[ATNO][ 15].d[ 15] =        -0.443766160542;
  BAS[ATNO][ 15].a[ 16] =         0.205233471100;     BAS[ATNO][ 15].d[ 16] =        -0.073362071942;
  BAS[ATNO][ 15].a[ 17] =         0.205233471100;     BAS[ATNO][ 15].d[ 17] =        -2.522973849135;
  BAS[ATNO][ 15].a[ 18] =         0.055045561800;     BAS[ATNO][ 15].d[ 18] =         0.152918738693;
  BAS[ATNO][ 15].a[ 19] =         0.055045561800;     BAS[ATNO][ 15].d[ 19] =         0.025280060777;
  BAS[ATNO][ 15].a[ 20] =         0.055045561800;     BAS[ATNO][ 15].d[ 20] =         0.869399276172;
  BAS[ATNO][ 15].a[ 21] =         0.022603027500;     BAS[ATNO][ 15].d[ 21] =        -0.063842660397;
  BAS[ATNO][ 15].a[ 22] =         0.022603027500;     BAS[ATNO][ 15].d[ 22] =        -0.010554274439;

-------------------------------------------
RADIAL EXPECTATION VALUES <R**-3> TO <R**3>
-------------------------------------------
   0 :     0.000000     0.802546     0.850040     1.304413     1.886054     3.026051
   1 :     0.644089     0.659096     0.764960     1.467937     2.414981     4.444863
   2 :     0.644091     0.659097     0.764960     1.467939     2.414997     4.444960
   3 :     0.643743     0.658816     0.764765     1.468482     2.417166     4.452243
   4 :     0.046798     0.081223     0.241753     4.940848    27.639443   172.131160
   5 :     0.046793     0.081215     0.241742     4.941013    27.640866   172.140887
   6 :     0.046877     0.081274     0.241767     4.941253    27.643195   172.152903
   7 :     0.000000     0.040007     0.153410     8.008444    70.596737   659.052585
   8 :     0.000000     0.133553     0.310740     3.870909    17.076368    84.588598
   9 :     0.000000     0.084468     0.222468     6.447414    52.357416   492.699491
  10 :     0.000000     0.504074     0.593446     2.620390    11.208357    74.272303
  11 :     0.000000     3.754525     1.740596     0.755799     1.136510     4.998613
  12 :     0.000000    39.436493     5.011863     0.281337     0.166391     0.502313
  13 :     0.196666     0.270960     0.465891     2.679348     8.895841   178.459419
  14 :     0.148332     0.214759     0.403406     3.277231    13.783648   353.542758
  15 :     0.148026     0.214382     0.402861     3.288195    13.919353   354.365814
  16 :     0.146647     0.212731     0.401055     3.301964    13.994800   361.325732
  17 :     0.146394     0.212429     0.400705     3.305631    14.026117   362.480953
  18 :     0.016614     0.034849     0.149198     8.297191    76.621653   753.776541
  19 :     0.016594     0.034828     0.149173     8.297627    76.627304   753.841711
  20 :     0.016538     0.034757     0.149068     8.300108    76.660405   754.223295
  21 :     0.042249     0.067999     0.201605     6.284723    43.443371  1582.225937
  22 :     0.078363     0.111595     0.252481     5.746276    38.866106  1414.751031
  23 :     0.078453     0.111706     0.252615     5.744602    38.849766  1414.341609
  24 :     0.079588     0.113132     0.254348     5.725312    38.685275  1408.386078
  25 :     0.079767     0.113357     0.254622     5.722210    38.658367  1407.390923
  26 :     0.132576     0.180747     0.348459     4.037614    20.843735   642.923516
  27 :     0.142670     0.191580     0.358838     3.980147    20.526191   635.754560
  28 :     0.142723     0.191638     0.358893     3.979841    20.524495   635.721067
  29 :     0.143044     0.192033     0.359339     3.975435    20.485293   634.144851
  30 :     0.143076     0.192074     0.359385     3.975023    20.481912   634.017291
  31 :     0.213261     0.231188     0.386250     3.792896    20.092400   141.329717
  32 :     0.213290     0.231213     0.386281     3.792329    20.085573   141.256781
  33 :     0.213637     0.231486     0.386526     3.789297    20.049965   140.873291
  34 :     0.517774     0.502504     0.608769     2.400876     8.443512   204.736132
  35 :     0.517784     0.502513     0.608775     2.400855     8.443405   204.733222
  36 :     0.518013     0.502720     0.608949     2.399819     8.435948   204.481996
  37 :     0.518054     0.502756     0.608978     2.399665     8.434919   204.449489
  38 :     0.515693     0.500786     0.607556     2.404123     8.456413   205.000681
  39 :     2.927072     1.137732     0.785143     2.170227     7.657922    42.818325
  40 :     2.927067     1.137736     0.785148     2.170192     7.657658    42.816266
  41 :     2.927040     1.137755     0.785177     2.169960     7.655668    42.798874
Making the total density                ... o.k.
o.k.
Initializing the integrals              ... done
Making exponents                        ... done
Making rho(0)                           ... done (         0.000114422)
Integral calculation                    ... Two index integrals                     ... done
Solving the equation system             ... done
atomic density will be written to file 39_Y_atom39.adf

-------
TIMINGS
-------

Total SCF time: 0 days 0 hours 0 min 2 sec 

Total time                  ....       2.910 sec
Sum of individual times     ....       2.315 sec  ( 79.5%)

Fock matrix formation       ....       1.998 sec  ( 68.7%)
Diagonalization             ....       0.133 sec  (  4.6%)
Density matrix formation    ....       0.004 sec  (  0.1%)
Population analysis         ....       0.000 sec  (  0.0%)
Initial guess               ....       0.001 sec  (  0.0%)
Orbital Transformation      ....       0.000 sec  (  0.0%)
Orbital Orthonormalization  ....       0.000 sec  (  0.0%)
DIIS solution               ....       0.179 sec  (  6.2%)

-------------------------   --------------------
FINAL SINGLE POINT ENERGY       -37.759496793772
-------------------------   --------------------


                            ***************************************
                            *     ORCA property calculations      *
                            ***************************************

                                    ---------------------
                                    Active property flags
                                    ---------------------
   (+) Dipole Moment


------------------------------------------------------------------------------
                       ORCA ELECTRIC PROPERTIES CALCULATION
------------------------------------------------------------------------------

Dipole Moment Calculation                       ... on
Quadrupole Moment Calculation                   ... off
Polarizability Calculation                      ... off
GBWName                                         ... 39_Y_atom39.gbw
Electron density file                           ... 39_Y_atom39.scfp
The origin for moment calculation is the CENTER OF MASS  = ( 0.000000,  0.000000  0.000000)

-------------
DIPOLE MOMENT
-------------
                                X             Y             Z
Electronic contribution:     -0.00000      -0.00000      -0.00000
Nuclear contribution   :      0.00000       0.00000       0.00000
                        -----------------------------------------
Total Dipole Moment    :     -0.00000      -0.00000      -0.00000
                        -----------------------------------------
Magnitude (a.u.)       :      0.00000
Magnitude (Debye)      :      0.00000



--------------------
Rotational spectrum 
--------------------
 
Rotational constants in cm-1:     0.000000     0.000000     0.000000 
Rotational constants in MHz :     0.000000     0.000000     0.000000 

 Dipole components along the rotational axes: 
x,y,z [a.u.] :    -0.000000    -0.000000    -0.000000 
x,y,z [Debye]:    -0.000000    -0.000000    -0.000000 

 

Timings for individual modules:

Sum of individual times         ...        3.185 sec (=   0.053 min)
GTO integral calculation        ...        0.253 sec (=   0.004 min)   8.0 %
SCF iterations                  ...        2.931 sec (=   0.049 min)  92.0 %
                             ****ORCA TERMINATED NORMALLY****
TOTAL RUN TIME: 0 days 0 hours 0 minutes 3 seconds 375 msec
