
                                 *****************
                                 * O   R   C   A *
                                 *****************

           --- An Ab Initio, DFT and Semiempirical electronic structure package ---

                  #######################################################
                  #                        -***-                        #
                  #          Department of theory and spectroscopy      #
                  #               Directorship: Frank Neese             #
                  #        Max Planck Institute fuer Kohlenforschung    #
                  #                Kaiser Wilhelm Platz 1               #
                  #                 D-45470 Muelheim/Ruhr               #
                  #                      Germany                        #
                  #                                                     #
                  #                  All rights reserved                #
                  #                        -***-                        #
                  #######################################################


                         Program Version 4.2.0 -  RELEASE  -


 With contributions from (in alphabetic order):
   Daniel Aravena         : Magnetic Suceptibility
   Michael Atanasov       : Ab Initio Ligand Field Theory (pilot matlab implementation)
   Alexander A. Auer      : GIAO ZORA, VPT2
   Ute Becker             : Parallelization
   Giovanni Bistoni       : ED, misc. LED, open-shell LED, HFLED
   Martin Brehm           : Molecular dynamics
   Dmytro Bykov           : SCF Hessian
   Vijay G. Chilkuri      : MRCI spin determinant printing, contributions to CSF-ICE
   Dipayan Datta          : RHF DLPNO-CCSD density
   Achintya Kumar Dutta   : EOM-CC, STEOM-CC
   Dmitry Ganyushin       : Spin-Orbit,Spin-Spin,Magnetic field MRCI
   Miquel Garcia          : C-PCM Hessian, Gaussian charge scheme
   Yang Guo               : DLPNO-NEVPT2, CIM, IAO-localization
   Andreas Hansen         : Spin unrestricted coupled pair/coupled cluster methods
   Benjamin Helmich-Paris : CASSCF linear response (MC-RPA)
   Lee Huntington         : MR-EOM, pCC
   Robert Izsak           : Overlap fitted RIJCOSX, COSX-SCS-MP3, EOM
   Christian Kollmar      : KDIIS, OOCD, Brueckner-CCSD(T), CCSD density
   Simone Kossmann        : Meta GGA functionals, TD-DFT gradient, OOMP2, MP2 Hessian
   Martin Krupicka        : AUTO-CI
   Lucas Lang             : DCDCAS
   Dagmar Lenk            : GEPOL surface, SMD
   Dimitrios Liakos       : Extrapolation schemes; Compound Job, initial MDCI parallelization
   Dimitrios Manganas     : Further ROCIS development; embedding schemes
   Dimitrios Pantazis     : SARC Basis sets
   Taras Petrenko         : DFT Hessian,TD-DFT gradient, ASA, ECA, R-Raman, ABS, FL, XAS/XES, NRVS
   Peter Pinski           : DLPNO-MP2, DLPNO-MP2 Gradient
   Christoph Reimann      : Effective Core Potentials
   Marius Retegan         : Local ZFS, SOC
   Christoph Riplinger    : Optimizer, TS searches, QM/MM, DLPNO-CCSD(T), (RO)-DLPNO pert. Triples
   Tobias Risthaus        : Range-separated hybrids, TD-DFT gradient, RPA, STAB
   Michael Roemelt        : Original ROCIS implementation
   Masaaki Saitow         : Open-shell DLPNO-CCSD energy and density
   Barbara Sandhoefer     : DKH picture change effects
   Avijit Sen             : IP-ROCIS
   Kantharuban Sivalingam : CASSCF convergence, NEVPT2, FIC-MRCI
   Bernardo de Souza      : ESD, SOC TD-DFT
   Georgi Stoychev        : AutoAux, RI-MP2 NMR
   Willem Van den Heuvel  : Paramagnetic NMR
   Boris Wezisla          : Elementary symmetry handling
   Frank Wennmohs         : Technical directorship


 We gratefully acknowledge several colleagues who have allowed us to
 interface, adapt or use parts of their codes:
   Stefan Grimme, W. Hujo, H. Kruse,             : VdW corrections, initial TS optimization,
                  C. Bannwarth                     DFT functionals, gCP, sTDA/sTD-DF
   Ed Valeev, F. Pavosevic, A. Kumar             : LibInt (2-el integral package), F12 methods
   Garnet Chan, S. Sharma, J. Yang, R. Olivares  : DMRG
   Ulf Ekstrom                                   : XCFun DFT Library
   Mihaly Kallay                                 : mrcc  (arbitrary order and MRCC methods)
   Andreas Klamt, Michael Diedenhofen            : otool_cosmo (COSMO solvation model)
   Jiri Pittner, Ondrej Demel                    : Mk-CCSD
   Frank Weinhold                                : gennbo (NPA and NBO analysis)
   Christopher J. Cramer and Donald G. Truhlar   : smd solvation model
   Lars Goerigk                                  : TD-DFT with DH, B97 family of functionals
   V. Asgeirsson, H. Jonsson                     : NEB implementation
   FAccTs GmbH                                   : IRC, NEB, NEB-TS, Multilevel, MM, QM/MM, CI optimization
   S Lehtola, MJT Oliveira, MAL Marques          : LibXC Library


 Your calculation uses the libint2 library for the computation of 2-el integrals
 For citations please refer to: http://libint.valeyev.net

 Your ORCA version has been built with support for libXC version: 4.2.3
 For citations please refer to: https://tddft.org/programs/libxc/

 This ORCA versions uses:
   CBLAS   interface :  Fast vector & matrix operations
   LAPACKE interface :  Fast linear algebra routines
   SCALAPACK package :  Parallel linear algebra routines


----- Orbital basis set information -----
Your calculation utilizes the basis: def2-QZVPPD
   F. Weigend and R. Ahlrichs, Phys. Chem. Chem. Phys. 7, 3297 (2005).
   D. Rappoport and F. Furche, J. Chem. Phys. 133 134105 (2010).

cite the ECPs for Zr [Def2-ECP] as follows:
Ce-Yb(ecp-28): M. Dolg, H. Stoll, H.Preuss, J. Chem. Phys., 1989, 90, 1730-1734.
Y-Cd(ecp-28), Hf-Hg(ecp-46): D. Andrae,U. Haeussermann, M. Dolg, H. Stoll, H. Preuss, Theor. Chim. Acta, 1990, 77, 123-141.
In-Sb(ecp-28), Tl-Bi(ecp-46): B. Metz, H. Stoll, M. Dolg, J. Chem. Phys., 2000, 113, 2563-2569.
Te-Xe(ecp-28), Po-Rn(ecp-46): K. A. Peterson, D. Figgen, E. Goll, H. Stoll, M. Dolg, J. Chem. Phys., 2003, 119, 11113-11123.
Rb(ecp-28), Cs(ecp-46): T. Leininger, A. Nicklass, W. Kuechle, H. Stoll, M. Dolg, A. Bergner, Chem. Phys. Lett., 1996, 255, 274-280.
Sr(ecp-28), Ba(ecp-46): M. Kaupp, P. V. Schleyer, H. Stoll and H. Preuss, J. Chem. Phys., 1991, 94, 1360-1366.
La(ecp-46): M. Dolg, H. Stoll, A. Savin, H. Preuss, Theor. Chim. Acta, 1989, 75, 173-194.
Lu(ecp-28): X. Cao, M. Dolg, J. Chem. Phys., 2001, 115, 7348-7355.

ECP parameters for Zr [Def2-ECP] have been obtained from:
TURBOMOLE (7.0.2)

================================================================================
                                        WARNINGS
                       Please study these warnings very carefully!
================================================================================


WARNING: your system is open-shell and RHF/RKS was chosen
  ===> : WILL SWITCH to UHF/UKS


WARNING: MDCI localization with Augmented Hessian Foster-Boys
  ===> : Switching off randomization!

WARNING: Post HF methods need fully converged wavefunctions
  ===> : Setting SCFConvForced true
         You can overwrite this default with %scf ConvForced false 


INFO   : the flag for use of LIBINT has been found!

================================================================================
                                       INPUT FILE
================================================================================
NAME = 40_Zr.in
|  1> #
|  2> # 40_Zr CCSD(T)/Def2-QZVPPD
|  3> #
|  4> ! CCSD(T) Def2-QZVPPD verytightscf slowconv kdiis
|  5> 
|  6> *xyz 0 3
|  7>  Zr 0.0 0.0 0.0
|  8> *
|  9> 
| 10> %maxcore 5000 
| 11> 
| 12> %pal
| 13> nprocs 24
| 14> end
| 15> 
| 16> %mdci
| 17> maxiter 100
| 18> maxdiis 25
| 19> end
| 20> 
| 21> 
| 22>                          ****END OF INPUT****
================================================================================

                       ****************************
                       * Single Point Calculation *
                       ****************************

---------------------------------
CARTESIAN COORDINATES (ANGSTROEM)
---------------------------------
  Zr     0.000000    0.000000    0.000000

----------------------------
CARTESIAN COORDINATES (A.U.)
----------------------------
  NO LB      ZA    FRAG     MASS         X           Y           Z
   0 Zr   12.0000*   0    91.220    0.000000    0.000000    0.000000
* core charge reduced due to ECP

--------------------------------
INTERNAL COORDINATES (ANGSTROEM)
--------------------------------
 Zr     0   0   0     0.000000000000     0.00000000     0.00000000

---------------------------
INTERNAL COORDINATES (A.U.)
---------------------------
 Zr     0   0   0     0.000000000000     0.00000000     0.00000000

---------------------
BASIS SET INFORMATION
---------------------
There are 1 groups of distinct atoms

 Group   1 Type Zr  : 8s8p7d3f2g contracted to 7s5p4d3f2g pattern {2111111/41111/4111/111/11}

Atom   0Zr   basis set group =>   1
-------------------------
ECP PARAMETER INFORMATION
-------------------------

 Group 1, Type Zr ECP Def2-ECP (replacing 28 core electrons, lmax=3)

Atom   0Zr   ECP group =>   1



           ************************************************************
           *        Program running with 24 parallel MPI-processes    *
           *              working on a common directory               *
           ************************************************************
------------------------------------------------------------------------------
                           ORCA GTO INTEGRAL CALCULATION
------------------------------------------------------------------------------

                         BASIS SET STATISTICS AND STARTUP INFO

 # of primitive gaussian shells          ...   28
 # of primitive gaussian functions       ...  106
 # of contracted shells                  ...   21
 # of contracted basis functions         ...   81
 Highest angular momentum                ...    4
 Maximum contraction depth               ...    4
 Integral package used                   ... LIBINT
 Integral threshhold            Thresh   ...  1.000e-12
 Primitive cut-off              TCut     ...  1.000e-14


------------------------------ INTEGRAL EVALUATION ----------------------------


 * One electron integrals 

   ECP integrals                         ... done
 Pre-screening matrix                    ... done
 Shell pair data                         ... done (   0.000 sec)



           ************************************************************
           *        Program running with 24 parallel MPI-processes    *
           *              working on a common directory               *
           ************************************************************
-------------------------------------------------------------------------------
                                 ORCA SCF
-------------------------------------------------------------------------------

------------
SCF SETTINGS
------------
Hamiltonian:
 Ab initio Hamiltonian  Method          .... Hartree-Fock(GTOs)


General Settings:
 Integral files         IntName         .... 40_Zr
 Hartree-Fock type      HFTyp           .... UHF
 Total Charge           Charge          ....    0
 Multiplicity           Mult            ....    3
 Number of Electrons    NEL             ....   12
 Basis Dimension        Dim             ....   81
 Nuclear Repulsion      ENuc            ....      0.0000000000 Eh

Convergence Acceleration:
 DIIS                   CNVDIIS         .... off
 Newton-Raphson         CNVNR           .... off
 SOSCF                  CNVSOSCF        .... off
 Level Shifting         CNVShift        .... off
 Zerner damping         CNVZerner       .... off
 Static damping         CNVDamp         .... off
 Fernandez-Rico         CNVRico         .... off

SCF Procedure:
 Maximum # iterations   MaxIter         ....   125
 SCF integral mode      SCFMode         .... Direct
   Integral package                     .... LIBINT
 Reset frequency        DirectResetFreq ....    20
 Integral Threshold     Thresh          ....  1.000e-12 Eh
 Primitive CutOff       TCut            ....  1.000e-14 Eh

Convergence Tolerance:
 Convergence Check Mode ConvCheckMode   .... Total+1el-Energy
 Convergence forced     ConvForced      .... 1
 Energy Change          TolE            ....  1.000e-09 Eh
 1-El. energy change                    ....  1.000e-06 Eh


Diagonalization of the overlap matrix:
Smallest eigenvalue                        ... 3.713e-03
Time for diagonalization                   ...    0.002 sec
Threshold for overlap eigenvalues          ... 1.000e-08
Number of eigenvalues below threshold      ... 0
Time for construction of square roots      ...    0.011 sec
Total time needed                          ...    0.014 sec

-------------------
DFT GRID GENERATION
-------------------

General Integration Accuracy     IntAcc      ...  4.340
Radial Grid Type                 RadialGrid  ... Gauss-Chebyshev
Angular Grid (max. acc.)         AngularGrid ... Lebedev-110
Angular grid pruning method      GridPruning ... 3 (G Style)
Weight generation scheme         WeightScheme... Becke
Basis function cutoff            BFCut       ...    1.0000e-12
Integration weight cutoff        WCut        ...    1.0000e-14
Grids for H and He will be reduced by one unit

# of grid points (after initial pruning)     ...   3280 (   0.0 sec)
# of grid points (after weights+screening)   ...   3280 (   0.0 sec)
Grid point division into batches done        ...    0.0 sec
Reduced shell lists constructed in    0.0 sec

Total number of grid points                  ...     3280
Total number of batches                      ...       52
Average number of points per batch           ...       63
Average number of grid points per atom       ...     3280
Average number of shells per batch           ...     7.75 (36.90%)
Average number of basis functions per batch  ...    29.75 (36.73%)
Average number of large shells per batch     ...     5.75 (74.19%)
Average number of large basis fcns per batch ...    21.25 (71.43%)
Maximum spatial batch extension              ...  23.83, 37.49, 37.49 au
Average spatial batch extension              ...   1.37,  1.91,  2.16 au

Time for grid setup =    0.063 sec

------------------------------
INITIAL GUESS: MODEL POTENTIAL
------------------------------
Loading Hartree-Fock densities                     ... done
  calling /sw/apps/orca/orca_4_2_0_linux_x86-64_openmpi314/orca 40_Zr_atom40.inp > 40_Zr_atom40.out in order to generate an atomic fitting density for atom 0 (Zr with ECP) on-the-fly... 
    atom 0 (Zr), assumed electronic state with S=3: 1s2 2s2 2p6 3s2 3p6 4s2 3d10 4p6 4d2 5s2           ... done
Calculating cut-offs                               ... done
Setting up the integral package                    ... done
Initializing the effective Hamiltonian             ... done
Starting the Coulomb interaction                   ... done (   0.0 sec)
Reading the grid                                   ... done
Mapping shells                                     ... done
Starting the XC term evaluation                    ... done (   0.0 sec)
Transforming the Hamiltonian                       ... done (   0.0 sec)
Diagonalizing the Hamiltonian                      ... done (   0.0 sec)
Back transforming the eigenvectors                 ... done (   0.0 sec)
Now organizing SCF variables                       ... done
                      ------------------
                      INITIAL GUESS DONE (   4.1 sec)
                      ------------------
--------------
SCF ITERATIONS
--------------
ITER       Energy         Delta-E        Max-DP      RMS-DP      [F,P]   Gradient Norm
               ***  Starting incremental Fock matrix formation  ***
                             ****Resetting KDIIS****
                             ****Turning on KDIIS(Cayley)****
  0    -45.8703450454   0.000000000000 0.05069598  0.00112200  0.2454696   0.267075016
  1    -45.9913395998  -0.120994554390 0.05364273  0.00170214  0.2153410   0.223965811
  2    -46.1401880584  -0.148848458634 0.07555991  0.00284117  0.1708012   0.167413541
  3    -46.2753653010  -0.135177242601 0.09605433  0.00199608  0.1001187   0.079431254
  4    -46.2956678232  -0.020302522234 0.01870270  0.00056437  0.0207426   0.015883900
  5    -46.2998750361  -0.004207212824 0.02413353  0.00087718  0.0172115   0.011388902
  6    -46.3042902980  -0.004415261938 0.00415287  0.00014739  0.0079680   0.006117637
  7    -46.3043817358  -0.000091437805 0.01293182  0.00036219  0.0082089   0.006366645
  8    -46.3052867003  -0.000904964473 0.00512015  0.00017064  0.0085438   0.005626707
  9    -46.3055252913  -0.000238591053 0.00319732  0.00012761  0.0090195   0.006229356
 10    -46.3051548516   0.000370439711 0.01309409  0.00036529  0.0087252   0.005339496
 11    -46.3061407437  -0.000985892057 0.00144075  0.00005068  0.0100466   0.005111392
 12    -46.3058946934   0.000246050278 0.01721797  0.00035366  0.0097754   0.005088738
 13    -46.3048752570   0.001019436368 0.03839063  0.00052533  0.0081579   0.004709172
 14    -46.3046214037   0.000253853362 0.03229555  0.00046544  0.0069696   0.004403548
 15    -46.3046051933   0.000016210410 0.01772387  0.00026585  0.0062691   0.004715183
 16    -46.3051763222  -0.000571128900 0.01033610  0.00035762  0.0068591   0.004656595
 17    -46.3039994062   0.001176915998 0.01774958  0.00042073  0.0063172   0.003585426
 18    -46.3045404781  -0.000541071933 0.00763160  0.00020007  0.0069305   0.003419188
 19    -46.3038208492   0.000719628902 0.02209136  0.00052078  0.0059858   0.003276775
               *** Restarting incremental Fock matrix formation ***
                             ****Resetting KDIIS****
 20    -46.3024553710   0.001365478211 0.00108052  0.00001828  0.0035995   0.002653671
 21    -46.3024967149  -0.000041343935 0.00316950  0.00005744  0.0036597   0.002588184
 22    -46.3026306608  -0.000133945902 0.00296152  0.00005461  0.0038703   0.002512105
 23    -46.3027373831  -0.000106722237 0.03478540  0.00069872  0.0040172   0.002453381
 24    -46.3019803495   0.000757033595 0.01177648  0.00015064  0.0019330   0.001482385
 25    -46.3021354242  -0.000155074740 0.01711824  0.00023456  0.0016671   0.001254243
 26    -46.3023554605  -0.000220036293 0.00058098  0.00001671  0.0015480   0.001116705
 27    -46.3023719438  -0.000016483354 0.00446895  0.00007427  0.0015765   0.001151869
 28    -46.3023762919  -0.000004348057 0.00809212  0.00011269  0.0014356   0.001063665
 29    -46.3024350913  -0.000058799363 0.00344969  0.00006197  0.0014156   0.000883091
 30    -46.3024985518  -0.000063460496 0.00169588  0.00004621  0.0015304   0.000879525
 31    -46.3024596287   0.000038923102 0.00834585  0.00012169  0.0014373   0.000841044
 32    -46.3024343064   0.000025322223 0.00218154  0.00005519  0.0012476   0.000740577
 33    -46.3024428617  -0.000008555214 0.00058790  0.00001809  0.0012716   0.000711323
 34    -46.3024494037  -0.000006542076 0.00242893  0.00004712  0.0012877   0.000719177
 35    -46.3024447468   0.000004656947 0.00041116  0.00001231  0.0012549   0.000694571
 36    -46.3024371358   0.000007610954 0.00224892  0.00003029  0.0012290   0.000688447
 37    -46.3024330620   0.000004073852 0.00127537  0.00001869  0.0012365   0.000698702
 38    -46.3024317520   0.000001309998 0.00234809  0.00005527  0.0012173   0.000688306
 39    -46.3023995305   0.000032221430 0.00268225  0.00007504  0.0010260   0.000642111
               *** Restarting incremental Fock matrix formation ***
                             ****Resetting KDIIS****
 40    -46.3023853529   0.000014177677 0.00016063  0.00000374  0.0008468   0.000549724
 41    -46.3023869900  -0.000001637132 0.00014601  0.00000306  0.0008538   0.000549420
 42    -46.3023878971  -0.000000907099 0.00024987  0.00000759  0.0008563   0.000547290
 43    -46.3023849656   0.000002931472 0.00446757  0.00008495  0.0008260   0.000536951
 44    -46.3024039088  -0.000018943204 0.00196378  0.00004647  0.0007849   0.000503184
 45    -46.3023851669   0.000018741926 0.00365681  0.00008428  0.0006839   0.000457863
 46    -46.3023910562  -0.000005889287 0.00232975  0.00006199  0.0006346   0.000410394
 47    -46.3024121434  -0.000021087214 0.00072330  0.00002265  0.0006323   0.000387235
 48    -46.3024225806  -0.000010437171 0.00092509  0.00002177  0.0006565   0.000386142
 49    -46.3024169424   0.000005638227 0.00164003  0.00003579  0.0006419   0.000393296
 50    -46.3024157795   0.000001162829 0.00083104  0.00001924  0.0006402   0.000368839
 51    -46.3024109165   0.000004862998 0.00088563  0.00001774  0.0006029   0.000362597
 52    -46.3024079212   0.000002995375 0.00080869  0.00002071  0.0005921   0.000368121
 53    -46.3024138789  -0.000005957770 0.00022880  0.00000590  0.0005976   0.000367934
 54    -46.3024125931   0.000001285820 0.00050067  0.00001279  0.0005982   0.000367887
 55    -46.3024139217  -0.000001328604 0.00119524  0.00002602  0.0005964   0.000364723
 56    -46.3024197050  -0.000005783254 0.00250844  0.00005450  0.0006485   0.000372920
 57    -46.3024069684   0.000012736544 0.00257668  0.00005307  0.0005202   0.000344472
 58    -46.3024143863  -0.000007417903 0.00068948  0.00002771  0.0003737   0.000285128
 59    -46.3024171395  -0.000002753157 0.00065805  0.00001598  0.0003397   0.000246222
               *** Restarting incremental Fock matrix formation ***
                             ****Resetting KDIIS****
 60    -46.3024195833  -0.000002443858 0.00007492  0.00000180  0.0003418   0.000245388
 61    -46.3024199236  -0.000000340280 0.00017026  0.00000484  0.0003439   0.000245842
 62    -46.3024187787   0.000001144937 0.00028372  0.00000866  0.0003357   0.000243165
 63    -46.3024167033   0.000002075404 0.00318063  0.00005569  0.0003417   0.000235455
 64    -46.3024187603  -0.000002056986 0.00019524  0.00000629  0.0003414   0.000213099
 65    -46.3024171966   0.000001563625 0.00046580  0.00001079  0.0003456   0.000208759
 66    -46.3024168535   0.000000343141 0.00070477  0.00001950  0.0003486   0.000200614
 67    -46.3024218551  -0.000005001611 0.00018619  0.00000725  0.0003393   0.000197319
 68    -46.3024202056   0.000001649545 0.00016002  0.00000518  0.0003421   0.000197603
 69    -46.3024192754   0.000000930138 0.00019584  0.00000363  0.0003473   0.000195942
 70    -46.3024193786  -0.000000103155 0.00026523  0.00000575  0.0003470   0.000196925
 71    -46.3024204273  -0.000001048718 0.00016326  0.00000524  0.0003446   0.000197525
 72    -46.3024214503  -0.000001022969 0.00029038  0.00001579  0.0003437   0.000197431
 73    -46.3024172418   0.000004208472 0.00035315  0.00001280  0.0003516   0.000195478
 74    -46.3024147969   0.000002444943 0.00013806  0.00000433  0.0003562   0.000192110
 75    -46.3024149809  -0.000000184013 0.00025845  0.00000805  0.0003605   0.000188329
 76    -46.3024164128  -0.000001431906 0.00002836  0.00000093  0.0003580   0.000186339
 77    -46.3024161974   0.000000215327 0.00014226  0.00000343  0.0003585   0.000186347
 78    -46.3024168330  -0.000000635535 0.00008366  0.00000441  0.0003576   0.000186175
 79    -46.3024157209   0.000001112056 0.00035465  0.00000764  0.0003601   0.000186072
               *** Restarting incremental Fock matrix formation ***
                             ****Resetting KDIIS****
 80    -46.3024164526  -0.000000731677 0.00001874  0.00000073  0.0003581   0.000186249
 81    -46.3024166392  -0.000000186602 0.00002247  0.00000090  0.0003581   0.000185758
 82    -46.3024168684  -0.000000229207 0.00008816  0.00000311  0.0003583   0.000184945
 83    -46.3024161164   0.000000751975 0.00078559  0.00002951  0.0003598   0.000183923
Warning: badly conditioned DIIS matrix, 1 vectors out of 5 destroyed
 84    -46.3024229284  -0.000006812013 0.00032927  0.00001351  0.0003480   0.000175614
 85    -46.3024198716   0.000003056851 0.00186431  0.00006797  0.0003537   0.000178828
 86    -46.3024314018  -0.000011530210 0.00017781  0.00000857  0.0003222   0.000151698
 87    -46.3024331542  -0.000001752387 0.00047009  0.00002262  0.0003173   0.000149228
 88    -46.3024377988  -0.000004644560 0.00045748  0.00001518  0.0002961   0.000148483
 89    -46.3024406646  -0.000002865811 0.00079740  0.00001550  0.0002857   0.000144253
 90    -46.3024412694  -0.000000604846 0.00033035  0.00000546  0.0002851   0.000138003
 91    -46.3024419294  -0.000000660035 0.00027814  0.00000732  0.0002828   0.000138866
 92    -46.3024425144  -0.000000584996 0.00021175  0.00000859  0.0002818   0.000136195
 93    -46.3024437458  -0.000001231371 0.00020628  0.00000836  0.0002770   0.000135453
 94    -46.3024448265  -0.000001080715 0.00053164  0.00002273  0.0002756   0.000134816
 95    -46.3024484217  -0.000003595175 0.00062482  0.00002740  0.0002582   0.000135663
 96    -46.3024523107  -0.000003889001 0.00011824  0.00000565  0.0002457   0.000128159
 97    -46.3024532341  -0.000000923363 0.00030951  0.00001346  0.0002401   0.000129577
 98    -46.3024541638  -0.000000929715 0.00058746  0.00002225  0.0002349   0.000125433
 99    -46.3024567631  -0.000002599281 0.00016198  0.00000577  0.0002178   0.000122928
               *** Restarting incremental Fock matrix formation ***
                             ****Resetting KDIIS****
100    -46.3024577392  -0.000000976150 0.00001348  0.00000045  0.0002122   0.000122622
101    -46.3024578206  -0.000000081353 0.00001576  0.00000042  0.0002128   0.000122389
102    -46.3024578885  -0.000000067920 0.00003915  0.00000135  0.0002131   0.000121743
103    -46.3024577106   0.000000177900 0.00028893  0.00000999  0.0002112   0.000120052
104    -46.3024592718  -0.000001561166 0.00062658  0.00001424  0.0002025   0.000116853
105    -46.3024587122   0.000000559504 0.00032789  0.00000953  0.0002034   0.000113111
106    -46.3024592767  -0.000000564419 0.00027762  0.00000796  0.0001981   0.000107780
107    -46.3024600447  -0.000000768011 0.00057372  0.00001795  0.0001913   0.000096648
108    -46.3024619102  -0.000001865565 0.00019595  0.00000388  0.0001736   0.000095155
109    -46.3024617978   0.000000112433 0.00005784  0.00000142  0.0001733   0.000093547
110    -46.3024618699  -0.000000072080 0.00006677  0.00000196  0.0001737   0.000092934
111    -46.3024619164  -0.000000046519 0.00007202  0.00000197  0.0001730   0.000093887
112    -46.3024619946  -0.000000078182 0.00005740  0.00000135  0.0001710   0.000093288
113    -46.3024620389  -0.000000044343 0.00022862  0.00000559  0.0001702   0.000093251
114    -46.3024625323  -0.000000493393 0.00013433  0.00000328  0.0001656   0.000094434
115    -46.3024622233   0.000000309034 0.00010091  0.00000220  0.0001678   0.000093821
116    -46.3024622616  -0.000000038337 0.00010031  0.00000296  0.0001673   0.000091976
117    -46.3024619834   0.000000278230 0.00015314  0.00000554  0.0001703   0.000091707
118    -46.3024613659   0.000000617545 0.00007532  0.00000241  0.0001758   0.000091446
119    -46.3024611562   0.000000209677 0.00009006  0.00000206  0.0001795   0.000090594
               *** Restarting incremental Fock matrix formation ***
                             ****Resetting KDIIS****
120    -46.3024611570  -0.000000000822 0.00001951  0.00000052  0.0001800   0.000090547
121    -46.3024612014  -0.000000044365 0.00004178  0.00000106  0.0001796   0.000090605
122    -46.3024610945   0.000000106875 0.00005078  0.00000141  0.0001803   0.000090149
123    -46.3024609576   0.000000136848 0.00044195  0.00000812  0.0001811   0.000089417
124    -46.3024614276  -0.000000469993 0.00043225  0.00000870  0.0001761   0.000089490
                    *** KDIIS BlockDiag (31.201 sec) ***

               *****************************************************
               *                      ERROR                        *
               *        SCF NOT CONVERGED AFTER 125 CYCLES         *
               *****************************************************


---------------
SCF CONVERGENCE
---------------

  Last Energy change         ...   -4.6999e-07  Tolerance :   1.0000e-09
  Last MAX-Density change    ...    4.3225e-04  Tolerance :   1.0000e-08
  Last RMS-Density change    ...    8.6954e-06  Tolerance :   1.0000e-09

     --------------------------------------------------------------------
                                      ERROR
     This wavefunction IS NOT CONVERGED! 
     But SCFConvergence was forced (by user or by method)
     Aborting ...
     --------------------------------------------------------------------



ORCA finished by error termination in SCF
Calling Command: mpirun -np 24  /sw/apps/orca/orca_4_2_0_linux_x86-64_openmpi314/orca_scf_mpi 40_Zr.gbw b 40_Zr 
[file orca_tools/qcmsg.cpp, line 458]: 
  .... aborting the run

