
                                 *****************
                                 * O   R   C   A *
                                 *****************

           --- An Ab Initio, DFT and Semiempirical electronic structure package ---

                  #######################################################
                  #                        -***-                        #
                  #          Department of theory and spectroscopy      #
                  #               Directorship: Frank Neese             #
                  #        Max Planck Institute fuer Kohlenforschung    #
                  #                Kaiser Wilhelm Platz 1               #
                  #                 D-45470 Muelheim/Ruhr               #
                  #                      Germany                        #
                  #                                                     #
                  #                  All rights reserved                #
                  #                        -***-                        #
                  #######################################################


                         Program Version 4.2.0 -  RELEASE  -


 With contributions from (in alphabetic order):
   Daniel Aravena         : Magnetic Suceptibility
   Michael Atanasov       : Ab Initio Ligand Field Theory (pilot matlab implementation)
   Alexander A. Auer      : GIAO ZORA, VPT2
   Ute Becker             : Parallelization
   Giovanni Bistoni       : ED, misc. LED, open-shell LED, HFLED
   Martin Brehm           : Molecular dynamics
   Dmytro Bykov           : SCF Hessian
   Vijay G. Chilkuri      : MRCI spin determinant printing, contributions to CSF-ICE
   Dipayan Datta          : RHF DLPNO-CCSD density
   Achintya Kumar Dutta   : EOM-CC, STEOM-CC
   Dmitry Ganyushin       : Spin-Orbit,Spin-Spin,Magnetic field MRCI
   Miquel Garcia          : C-PCM Hessian, Gaussian charge scheme
   Yang Guo               : DLPNO-NEVPT2, CIM, IAO-localization
   Andreas Hansen         : Spin unrestricted coupled pair/coupled cluster methods
   Benjamin Helmich-Paris : CASSCF linear response (MC-RPA)
   Lee Huntington         : MR-EOM, pCC
   Robert Izsak           : Overlap fitted RIJCOSX, COSX-SCS-MP3, EOM
   Christian Kollmar      : KDIIS, OOCD, Brueckner-CCSD(T), CCSD density
   Simone Kossmann        : Meta GGA functionals, TD-DFT gradient, OOMP2, MP2 Hessian
   Martin Krupicka        : AUTO-CI
   Lucas Lang             : DCDCAS
   Dagmar Lenk            : GEPOL surface, SMD
   Dimitrios Liakos       : Extrapolation schemes; Compound Job, initial MDCI parallelization
   Dimitrios Manganas     : Further ROCIS development; embedding schemes
   Dimitrios Pantazis     : SARC Basis sets
   Taras Petrenko         : DFT Hessian,TD-DFT gradient, ASA, ECA, R-Raman, ABS, FL, XAS/XES, NRVS
   Peter Pinski           : DLPNO-MP2, DLPNO-MP2 Gradient
   Christoph Reimann      : Effective Core Potentials
   Marius Retegan         : Local ZFS, SOC
   Christoph Riplinger    : Optimizer, TS searches, QM/MM, DLPNO-CCSD(T), (RO)-DLPNO pert. Triples
   Tobias Risthaus        : Range-separated hybrids, TD-DFT gradient, RPA, STAB
   Michael Roemelt        : Original ROCIS implementation
   Masaaki Saitow         : Open-shell DLPNO-CCSD energy and density
   Barbara Sandhoefer     : DKH picture change effects
   Avijit Sen             : IP-ROCIS
   Kantharuban Sivalingam : CASSCF convergence, NEVPT2, FIC-MRCI
   Bernardo de Souza      : ESD, SOC TD-DFT
   Georgi Stoychev        : AutoAux, RI-MP2 NMR
   Willem Van den Heuvel  : Paramagnetic NMR
   Boris Wezisla          : Elementary symmetry handling
   Frank Wennmohs         : Technical directorship


 We gratefully acknowledge several colleagues who have allowed us to
 interface, adapt or use parts of their codes:
   Stefan Grimme, W. Hujo, H. Kruse,             : VdW corrections, initial TS optimization,
                  C. Bannwarth                     DFT functionals, gCP, sTDA/sTD-DF
   Ed Valeev, F. Pavosevic, A. Kumar             : LibInt (2-el integral package), F12 methods
   Garnet Chan, S. Sharma, J. Yang, R. Olivares  : DMRG
   Ulf Ekstrom                                   : XCFun DFT Library
   Mihaly Kallay                                 : mrcc  (arbitrary order and MRCC methods)
   Andreas Klamt, Michael Diedenhofen            : otool_cosmo (COSMO solvation model)
   Jiri Pittner, Ondrej Demel                    : Mk-CCSD
   Frank Weinhold                                : gennbo (NPA and NBO analysis)
   Christopher J. Cramer and Donald G. Truhlar   : smd solvation model
   Lars Goerigk                                  : TD-DFT with DH, B97 family of functionals
   V. Asgeirsson, H. Jonsson                     : NEB implementation
   FAccTs GmbH                                   : IRC, NEB, NEB-TS, Multilevel, MM, QM/MM, CI optimization
   S Lehtola, MJT Oliveira, MAL Marques          : LibXC Library


 Your calculation uses the libint2 library for the computation of 2-el integrals
 For citations please refer to: http://libint.valeyev.net

 Your ORCA version has been built with support for libXC version: 4.2.3
 For citations please refer to: https://tddft.org/programs/libxc/

 This ORCA versions uses:
   CBLAS   interface :  Fast vector & matrix operations
   LAPACKE interface :  Fast linear algebra routines
   SCALAPACK package :  Parallel linear algebra routines


----- Orbital basis set information -----
Your calculation utilizes the basis: def2-SVP
   F. Weigend and R. Ahlrichs, Phys. Chem. Chem. Phys. 7, 3297 (2005).

----- AuxJ basis set information -----
Your calculation utilizes the auxiliary basis: def2/J
   F. Weigend, Phys. Chem. Chem. Phys. 8, 1057 (2006).

================================================================================
                                        WARNINGS
                       Please study these warnings very carefully!
================================================================================


INFO   : the flag for use of LIBINT has been found!

================================================================================
                                       INPUT FILE
================================================================================
NAME = 41_Nb_atom41.inp
|  1> # input to generate an atomic fitting density for Nb
|  2> # this file is use internally by ORCA
|  3> #
|  4> # atomic ground state (S=4): 1s2 2s2 2p6 3s2 3p6 4s2 3d10 4p6 5s2 4d3 
|  5> #
|  6> ! RHF AllowRHF def2-SVP def2/J  NoMulliken NoLoewdin NoMayer NoPrintMOs 
|  7> 
|  8> %output print[p_atomdensfit] 2 end
|  9> 
| 10> %scf
| 11>   guess hcore
| 12>   maxiter 1000
| 13>   maxdisk 500000
| 14>   SCFMode Conventional
| 15>   lshift 0.500000
| 16>   hftyp rohf
| 17>   rohf_case sahf
| 18>   rohf_numop   2
| 19>   rohf_norb[1] 5
| 20>   rohf_nel[1]  3
| 21> end
| 22> 
| 23> %basis
| 24>   NewECP 41
| 25>     N_core 28
| 26>     lmax f
| 27>     s 4
| 28>       1       8.9000000000    165.1791435000  2
| 29>       2       4.4300000000     21.9929744000  2
| 30>       3       8.4900000000     22.9295500000  2
| 31>       4       4.2500000000      3.6663099000  2
| 32>     p 4
| 33>       1       7.7700000000    111.7944145000  2
| 34>       2       3.9600000000     16.6334833000  2
| 35>       3       8.4900000000     22.9295500000  2
| 36>       4       4.2500000000      3.6663099000  2
| 37>     d 4
| 38>       1       6.0500000000     38.1122488000  2
| 39>       2       2.8400000000      8.0391673000  2
| 40>       3       8.4900000000     22.9295500000  2
| 41>       4       4.2500000000      3.6663099000  2
| 42>     f 2
| 43>       1       8.4900000000    -22.9295500000  2
| 44>       2       4.2500000000     -3.6663099000  2
| 45>   end
| 46>   NewGTO 41
| 47>     s 2 
| 48>      1      13.5000000000     -2.5751240879
| 49>      2      12.2000000000      3.5573814042
| 50>     s 1 
| 51>      1       3.7169274051      1.0000000000
| 52>     s 1 
| 53>      1       0.9065248806      1.0000000000
| 54>     s 1 
| 55>      1       0.4157760605      1.0000000000
| 56>     s 1 
| 57>      1       0.1104251130      1.0000000000
| 58>     s 1 
| 59>      1       0.0628218213      1.0000000000
| 60>     s 1 
| 61>      1       0.0280162900      1.0000000000
| 62>     p 4 
| 63>      1       9.3098091725      0.0734223081
| 64>      2       4.8178682975     -0.3808756037
| 65>      3       1.3632838380      0.5477655934
| 66>      4       0.9064752615      0.6169309757
| 67>     p 1 
| 68>      1       0.5008956307      1.0000000000
| 69>     p 1 
| 70>      1       0.2279327944      1.0000000000
| 71>     p 1 
| 72>      1       0.0600000000      1.0000000000
| 73>     p 1 
| 74>      1       0.0206000000      1.0000000000
| 75>     d 4 
| 76>      1      17.3644044740      0.0035797062
| 77>      2       5.3680385855     -0.0281979346
| 78>      3       1.6586089067      0.3327914775
| 79>      4       0.7812146140      0.7271145846
| 80>     d 1 
| 81>      1       0.3487423480      1.0000000000
| 82>     d 1 
| 83>      1       0.1484454053      1.0000000000
| 84>     d 1 
| 85>      1       0.0593349190      1.0000000000
| 86>   end
| 87>   NewAuxGTO 41
| 88>     S 1
| 89>      1 1310.72 1.0
| 90>     S 1
| 91>      1  655.36 1.0
| 92>     S 1
| 93>      1  327.68 1.0
| 94>     S 1
| 95>      1  163.84 1.0
| 96>     S 1
| 97>      1   81.82 1.0
| 98>     S 1
| 99>      1   40.96 1.0
|100>     S 1
|101>      1   20.48 1.0
|102>     S 1
|103>      1   10.24 1.0
|104>     S 1
|105>      1    5.12 1.0
|106>     S 1
|107>      1    2.56 1.0
|108>     S 1
|109>      1    1.28 1.0
|110>     S 1
|111>      1    0.64 1.0
|112>     S 1
|113>      1    0.32 1.0
|114>     S 1
|115>      1    0.16 1.0
|116>     S 1
|117>      1    0.08 1.0
|118>     S 1
|119>      1    0.04 1.0
|120>     S 1
|121>      1    0.02 1.0
|122>     S 1
|123>      1    0.01 1.0
|124>   end
|125> end
|126> 
|127> * xyz 0 4
|128> 41  0.0 0.0 0.0
|129> *
|130> 
|131> 
|132>                          ****END OF INPUT****
================================================================================

                       ****************************
                       * Single Point Calculation *
                       ****************************

---------------------------------
CARTESIAN COORDINATES (ANGSTROEM)
---------------------------------
  Nb     0.000000    0.000000    0.000000

----------------------------
CARTESIAN COORDINATES (A.U.)
----------------------------
  NO LB      ZA    FRAG     MASS         X           Y           Z
   0 Nb   13.0000*   0    92.910    0.000000    0.000000    0.000000
* core charge reduced due to ECP

--------------------------------
INTERNAL COORDINATES (ANGSTROEM)
--------------------------------
 Nb     0   0   0     0.000000000000     0.00000000     0.00000000

---------------------------
INTERNAL COORDINATES (A.U.)
---------------------------
 Nb     0   0   0     0.000000000000     0.00000000     0.00000000

---------------------
BASIS SET INFORMATION
---------------------
There are 1 groups of distinct atoms

 Group   1 Type Nb  : 8s8p7d contracted to 7s5p4d pattern {2111111/41111/4111}

Atom   0Nb   basis set group =>   1
---------------------------------
AUXILIARY/J BASIS SET INFORMATION
---------------------------------
There are 1 groups of distinct atoms

 Group   1 Type Nb  : 18s contracted to 18s pattern {111111111111111111}

Atom   0Nb   basis set group =>   1
-------------------------
ECP PARAMETER INFORMATION
-------------------------

 Group 1, Type Nb ECP (replacing 28 core electrons, lmax=3)

Atom   0Nb   ECP group =>   1

------------------------------------------------------------------------------
                           ORCA GTO INTEGRAL CALCULATION
------------------------------------------------------------------------------

                         BASIS SET STATISTICS AND STARTUP INFO

 # of primitive gaussian shells          ...   23
 # of primitive gaussian functions       ...   67
 # of contracted shells                  ...   16
 # of contracted basis functions         ...   42
 Highest angular momentum                ...    2
 Maximum contraction depth               ...    4
 Integral package used                   ... LIBINT
 Integral threshhold            Thresh   ...  1.000e-10
 Primitive cut-off              TCut     ...  1.000e-11
 Storage cut-off                TCutStore... -1.000e+00
 Buffer length                           ... 1048576 integrals/buffer
 Generate file with integrals 4 distinct ...false


------------------------------ INTEGRAL EVALUATION ----------------------------


 * One electron integrals 

   ECP integrals                         ... done
 Pre-screening matrix                    ... done
 Shell pair data                         ... done (   0.000 sec)
 Statistics run                          ... done
 Maximum amount of storage needed        ...     4 MB
 Maximum amount of storage dedicated     ... 500000 MB
 Beginning two electron integral evaluation:
 Starting repulsion integrals
  <ss|ss>  ...          406 b.         0 skpd (  0.0%)     0.000 s. (  0.000 ms/b)
  <ss|sp>  ...          980 b.         0 skpd (  0.0%)     0.000 s. (  0.000 ms/b)
  <ss|sd>  ...          784 b.         0 skpd (  0.0%)     0.001 s. (  0.001 ms/b)
  <ss|pp>  ...          420 b.         0 skpd (  0.0%)     0.000 s. (  0.001 ms/b)
  <ss|pd>  ...          560 b.         0 skpd (  0.0%)     0.001 s. (  0.002 ms/b)
  <ss|dd>  ...          280 b.         0 skpd (  0.0%)     0.001 s. (  0.003 ms/b)
  <sp|sp>  ...          630 b.         0 skpd (  0.0%)     0.001 s. (  0.001 ms/b)
  <sp|sd>  ...          980 b.         0 skpd (  0.0%)     0.002 s. (  0.002 ms/b)
  <sp|pp>  ...          525 b.         0 skpd (  0.0%)     0.002 s. (  0.003 ms/b)
  <sp|pd>  ...          700 b.         0 skpd (  0.0%)     0.003 s. (  0.005 ms/b)
  <sp|dd>  ...          350 b.         0 skpd (  0.0%)     0.003 s. (  0.010 ms/b)
  <sd|sd>  ...          406 b.         0 skpd (  0.0%)     0.001 s. (  0.002 ms/b)
  <sd|pp>  ...          420 b.         0 skpd (  0.0%)     0.002 s. (  0.004 ms/b)
  <sd|pd>  ...          560 b.         0 skpd (  0.0%)     0.004 s. (  0.007 ms/b)
  <sd|dd>  ...          280 b.         0 skpd (  0.0%)     0.004 s. (  0.014 ms/b)
  <pp|pp>  ...          120 b.         0 skpd (  0.0%)     0.001 s. (  0.004 ms/b)
  <pp|pd>  ...          300 b.         0 skpd (  0.0%)     0.002 s. (  0.007 ms/b)
  <pp|dd>  ...          150 b.         0 skpd (  0.0%)     0.002 s. (  0.015 ms/b)
  <pd|pd>  ...          210 b.         0 skpd (  0.0%)     0.003 s. (  0.016 ms/b)
  <pd|dd>  ...          200 b.         0 skpd (  0.0%)     0.005 s. (  0.027 ms/b)
  <dd|dd>  ...           55 b.         0 skpd (  0.0%)     0.004 s. (  0.070 ms/b)


                                      INTEGRAL STATISTICS

Integral type statistics:
 Number of integrals retained            ...     408156 
 One   Center Integrals retained         ...     408156 (100.0%)
 Two   Center Integrals retained         ...          0 (  0.0%)
 Three Center Integrals retained         ...          0 (  0.0%)
 Four  Center Integrals retained         ...          0 (  0.0%)

Storage statistics:
 Number of char integrals                ...          0 (  0.0%)
 Number of short int integrals           ...          0 (  0.0%)
 Number of double/float integrals        ...     408156 (100.0%)
 Amount of memory used                   ...          5 MB
 Amount of memory estimated              ...          4 MB ( 95.0%)

Prescreening statistics:
 Total number of shell quadruples        ...       9316 
 Number of skipped shell quadruples      ...          0 (  0.0%)
 # of negligible batches done            ...          0 (  0.0%)

Timings:
 Total evaluation time               ...     0.224 sec (   0.004 min)
 One electron matrix time            ...     0.027 sec (   0.000 min) = 12.2%
 Schwartz matrix evaluation time     ...     0.073 sec (   0.001 min) = 32.5%
 Statistics run                      ...     0.003 sec (   0.000 min) =  1.4%
 Repulsion integral time             ...     0.043 sec (   0.001 min) = 19.1%

-------------------------------------------------------------------------------
                                 ORCA SCF
-------------------------------------------------------------------------------

------------
SCF SETTINGS
------------
Hamiltonian:
 Ab initio Hamiltonian  Method          .... Hartree-Fock(GTOs)


General Settings:
 Integral files         IntName         .... 41_Nb_atom41
 Hartree-Fock type      HFTyp           .... ROHF
 Total Charge           Charge          ....    0
 Multiplicity           Mult            ....    4
 Number of Electrons    NEL             ....   13
 Basis Dimension        Dim             ....   42
 Nuclear Repulsion      ENuc            ....      0.0000000000 Eh

Convergence Acceleration:
 DIIS                   CNVDIIS         .... on
   Start iteration      DIISMaxIt       ....    12
   Startup error        DIISStart       ....  0.200000
   # of expansion vecs  DIISMaxEq       ....     5
   Bias factor          DIISBfac        ....   1.050
   Max. coefficient     DIISMaxC        ....  10.000
 Newton-Raphson         CNVNR           .... off
 SOSCF                  CNVSOSCF        .... off
 Level Shifting         CNVShift        .... on
   Level shift para.    LevelShift      ....    0.5000
   Turn off err/grad.   ShiftErr        ....    0.0010
 Zerner damping         CNVZerner       .... off
 Static damping         CNVDamp         .... on
   Fraction old density DampFac         ....    0.7000
   Max. Damping (<1)    DampMax         ....    0.9800
   Min. Damping (>=0)   DampMin         ....    0.0000
   Turn off err/grad.   DampErr         ....    0.1000
 Fernandez-Rico         CNVRico         .... off

SCF Procedure:
 Maximum # iterations   MaxIter         ....  1000
 SCF integral mode      SCFMode         .... Conventional
 Integral Threshold     Thresh          ....  1.000e-10 Eh
 Primitive CutOff       TCut            ....  1.000e-11 Eh
 Integral Buffer length BufferLength    .... 1048576
 Integral index format  IndFormat       ....     0
 Integral value format  ValFormat       ....     0
 Integral Storage       Thresh          ....  1.000e-10 Eh

Convergence Tolerance:
 Convergence Check Mode ConvCheckMode   .... Total+1el-Energy
 Convergence forced     ConvForced      .... 0
 Energy Change          TolE            ....  1.000e-06 Eh
 1-El. energy change                    ....  1.000e-03 Eh
 DIIS Error             TolErr          ....  1.000e-06


Diagonalization of the overlap matrix:
Smallest eigenvalue                        ... 4.242e-03
Time for diagonalization                   ...    0.001 sec
Threshold for overlap eigenvalues          ... 1.000e-08
Number of eigenvalues below threshold      ... 0
Time for construction of square roots      ...    0.002 sec
Total time needed                          ...    0.003 sec

--------------------
INITIAL GUESS: HCORE
--------------------
AVERAGE-CONFIGURATION (SAHF) CASE FOUND

-------------------
FINAL ROHF SETTINGS
-------------------
Number of operators             ... 2
  operator   0:   5 orbitals  10 electrons n(mue)= 2.000
  operator   1:   5 orbitals   3 electrons n(mue)= 0.600
Vector coupling coefficients a and b (Zerner convention):
   1.000    1.000           1.000    1.000 
   1.000    0.833           1.000    1.667 

                      -----------------
                      INTIAL GUESS DONE 
                      -----------------

 InCore treatment chosen:
   Memory dedicated               ...    1024 MB
   Memory needed                  ...      5 MB
   Number of tiny    integrals    ...       0
   Number of small   integrals    ...       0
   Number of regular integrals    ...  408156

--------------
SCF ITERATIONS
--------------
ITER       Energy         Delta-E        Max-DP      RMS-DP      [F,P]     Damp
  0    -50.8052377732   0.000000000000 2.36561262  0.08633305  0.9105568 0.7000
  1    -54.6889160259  -3.883678252622 1.65652223  0.05819177  0.2154798 0.7000
                            ****Activating DIIS****
  2    -54.9143376697  -0.225421643831 3.86714962  0.12446332  0.0609312 0.0000
  3    -55.2519466846  -0.337609014924 0.02110847  0.00052331  0.1978342 0.7000
  4    -55.2727964152  -0.020849730612 0.02263421  0.00055500  0.1834300 0.7000
  5    -55.2805365342  -0.007740118926 0.03732865  0.00092205  0.1799351 0.7000
  6    -55.2639572680   0.016579266187 0.03701984  0.00091387  0.1867737 0.7000
  7    -55.2464850600   0.017472207969 0.48962126  0.01312071  0.1990053 0.7000
  8    -55.5463620726  -0.299877012560 2.11991993  0.05660141  0.0733826 0.0000
  9    -55.7660983800  -0.219736307452 0.80084185  0.02285668  0.0577685 0.0000
 10    -55.8403157545  -0.074217374528 0.78347936  0.02370684  0.0460401 0.0000
 11    -55.8976209636  -0.057305209079 0.65067877  0.01994609  0.0381202 0.0000
 12    -55.9440796209  -0.046458657234 0.66037834  0.01898943  0.0317805 0.0000
 13    -55.9882336498  -0.044154028927 0.26891707  0.00744131  0.0218423 0.0000
 14    -56.0059347464  -0.017701096579 0.27167992  0.00860788  0.0161945 0.0000
 15    -56.0231387617  -0.017204015374 0.08340741  0.00379272  0.0093446 0.0000
 16    -56.0290724799  -0.005933718161 0.05766660  0.00266843  0.0072165 0.0000
 17    -56.0324901060  -0.003417626141 0.05353097  0.00242826  0.0055825 0.0000
 18    -56.0346699245  -0.002179818488 0.03547771  0.00141925  0.0039818 0.0000
 19    -56.0355399750  -0.000870050508 0.02312719  0.00085622  0.0039423 0.0000
 20    -56.0359508621  -0.000410887054 0.01560917  0.00058018  0.0039838 0.0000
 21    -56.0361814816  -0.000230619488 0.01087997  0.00041832  0.0040125 0.0000
 22    -56.0363193886  -0.000137907005 0.00866080  0.00034291  0.0040338 0.0000
 23    -56.0364129383  -0.000093549758 0.00809882  0.00032114  0.0040520 0.0000
 24    -56.0364848527  -0.000071914406 0.00761382  0.00029759  0.0040700 0.0000
 25    -56.0365397360  -0.000054883300 0.00614963  0.00023731  0.0040872 0.0000
 26    -56.0365760997  -0.000036363634 0.00439876  0.00016730  0.0041010 0.0000
 27    -56.0365981822  -0.000022082536 0.00310296  0.00011622  0.0041105 0.0000
 28    -56.0366119779  -0.000013795663 0.00233904  0.00008649  0.0041167 0.0000
 29    -56.0366214570  -0.000009479111 0.00197874  0.00007256  0.0041208 0.0000
 30    -56.0366288500  -0.000007392986 0.00177417  0.00006469  0.0041239 0.0000
 31    -56.0366349864  -0.000006136371 0.00162196  0.00005887  0.0041262 0.0000
 32    -56.0366401924  -0.000005206024 0.00149752  0.00005415  0.0041279 0.0000
 33    -56.0366446613  -0.000004468930 0.00139180  0.00005017  0.0041291 0.0000
 34    -56.0366485294  -0.000003868090 0.00130022  0.00004674  0.0041298 0.0000
 35    -56.0366519002  -0.000003370795 0.00121911  0.00004373  0.0041301 0.0000
 36    -56.0366548534  -0.000002953164 0.00114604  0.00004103  0.0041299 0.0000
 37    -56.0366574523  -0.000002598936 0.00107952  0.00003860  0.0041294 0.0000
 38    -56.0366597492  -0.000002296913 0.00101854  0.00003638  0.0041285 0.0000
 39    -56.0366617881  -0.000002038885 0.00096241  0.00003436  0.0041272 0.0000
 40    -56.0366636067  -0.000001818585 0.00091065  0.00003251  0.0041256 0.0000
 41    -56.0366652379  -0.000001631194 0.00086298  0.00003083  0.0041236 0.0000
 42    -56.0366667109  -0.000001473001 0.00081931  0.00002932  0.0041211 0.0000
 43    -56.0366680521  -0.000001341195 0.00077972  0.00002798  0.0041183 0.0000
 44    -56.0366692858  -0.000001233764 0.00074451  0.00002682  0.0041150 0.0000
 45    -56.0366704353  -0.000001149507 0.00071428  0.00002588  0.0041111 0.0000
 46    -56.0366715235  -0.000001088154 0.00069007  0.00002522  0.0041068 0.0000
 47    -56.0366725742  -0.000001050672 0.00067372  0.00002490  0.0041017 0.0000
 48    -56.0366736141  -0.000001039895 0.00066838  0.00002509  0.0040959 0.0000
 49    -56.0366746758  -0.000001061794 0.00067985  0.00002606  0.0040890 0.0000
 50    -56.0366758040  -0.000001128156 0.00071939  0.00002834  0.0040806 0.0000
 51    -56.0366770666  -0.000001262623 0.00081123  0.00003305  0.0040702 0.0000
 52    -56.0366785822  -0.000001515591 0.00101419  0.00004296  0.0040563 0.0000
 53    -56.0366805875  -0.000002005259 0.00149808  0.00006608  0.0040360 0.0000
 54    -56.0366836315  -0.000003044061 0.00288078  0.00013190  0.0040016 0.0000
 55    -56.0366891556  -0.000005524086 0.00811372  0.00038346  0.0039267 0.0000
 56    -56.0366992854  -0.000010129775 0.02860612  0.00138448  0.0036856 0.0000
 57    -56.0366512100   0.000048075426 0.01773426  0.00094594  0.0026260 0.0000
 58    -56.0365490731   0.000102136854 0.00431361  0.00035535  0.0017010 0.0000
 59    -56.0365228783   0.000026194774 0.00553163  0.00022960  0.0017822 0.0000
 60    -56.0365767769  -0.000053898551 0.01018767  0.00037087  0.0016352 0.0000
 61    -56.0366620061  -0.000085229247 0.01762282  0.00064951  0.0013632 0.0000
 62    -56.0367725639  -0.000110557736 0.02196363  0.00078520  0.0008857 0.0000
 63    -56.0368435819  -0.000071017987 0.00920709  0.00032849  0.0004038 0.0000
 64    -56.0368516612  -0.000008079378 0.00326590  0.00011635  0.0002838 0.0000
 65    -56.0368522795  -0.000000618233 0.00062968  0.00003501  0.0002064 0.0000
                 **** Energy Check signals convergence ****

               *****************************************************
               *                     SUCCESS                       *
               *           SCF CONVERGED AFTER  66 CYCLES          *
               *****************************************************


----------------
TOTAL SCF ENERGY
----------------

Total Energy       :          -56.03685325 Eh           -1524.84030 eV

Components:
Nuclear Repulsion  :            0.00000000 Eh               0.00000 eV
Electronic Energy  :          -56.03685325 Eh           -1524.84030 eV
One Electron Energy:          -93.53882128 Eh           -2545.32073 eV
Two Electron Energy:           37.50196803 Eh            1020.48043 eV

Virial components:
Potential Energy   :          -74.70461591 Eh           -2032.81595 eV
Kinetic Energy     :           18.66776267 Eh             507.97565 eV
Virial Ratio       :            4.00179803


---------------
SCF CONVERGENCE
---------------

  Last Energy change         ...   -9.6824e-07  Tolerance :   1.0000e-06
  Last MAX-Density change    ...    1.1521e-03  Tolerance :   1.0000e-05
  Last RMS-Density change    ...    4.4757e-05  Tolerance :   1.0000e-06
  Last DIIS Error            ...    1.7650e-04  Tolerance :   1.0000e-06

             **** THE GBW FILE WAS UPDATED (41_Nb_atom41.gbw) ****
             **** DENSITY FILE WAS UPDATED (41_Nb_atom41.scfp) ****
             **** ENERGY FILE WAS UPDATED (41_Nb_atom41.en.tmp) ****
             **** THE GBW FILE WAS UPDATED (41_Nb_atom41.gbw) ****
             **** DENSITY FILE WAS UPDATED (41_Nb_atom41.scfp) ****
----------------
ORBITAL ENERGIES
----------------

  NO   OCC          E(Eh)            E(eV) 
   0   2.0000      -2.940679       -80.0199 
   1   2.0000      -1.838999       -50.0417 
   2   2.0000      -1.838899       -50.0390 
   3   2.0000      -1.827056       -49.7167 
   4   2.0000      -0.423913       -11.5353 
   5   0.6000      -0.414608       -11.2821 
   6   0.6000      -0.353695        -9.6245 
   7   0.6000      -0.191413        -5.2086 
   8   0.6000      -0.191283        -5.2051 
   9   0.6000      -0.176374        -4.7994 
  10   0.0000      -0.190809        -5.1922 
  11   0.0000      -0.163206        -4.4411 
  12   0.0000      -0.163014        -4.4358 
  13   0.0000      -0.000739        -0.0201 
  14   0.0000       0.016033         0.4363 
  15   0.0000       0.016080         0.4376 
  16   0.0000       0.020895         0.5686 
  17   0.0000       0.062990         1.7140 
  18   0.0000       0.061430         1.6716 
  19   0.0000       0.070119         1.9080 
  20   0.0000       0.075788         2.0623 
  21   0.0000       0.075834         2.0635 
  22   0.0000       0.280564         7.6345 
  23   0.0000       0.466072        12.6825 
  24   0.0000       0.466262        12.6876 
  25   0.0000       0.481225        13.0948 
  26   0.0000       0.493133        13.4188 
  27   0.0000       0.491063        13.3625 
  28   0.0000       0.496973        13.5233 
  29   0.0000       0.510317        13.8864 
  30   0.0000       0.510428        13.8895 
  31   0.0000       1.789126        48.6846 
  32   0.0000       1.874339        51.0033 
  33   0.0000       1.888854        51.3983 
  34   0.0000       1.909509        51.9604 
  35   0.0000       1.911633        52.0182 
  36   0.0000       1.911795        52.0226 
  37   0.0000       5.958266       162.1327 
  38   0.0000       5.958566       162.1408 
  39   0.0000       6.002040       163.3238 
  40   0.0000      23.034365       626.7969 
  41   0.0000      80.317135      2185.5404 
CleanUpVectors: The p-vectors have cracked symmetry
CleanUpVectors: The p-vectors have cracked symmetry
CleanUpVectors: The p-vectors have cracked symmetry
CleanUpVectors: The d-vectors have cracked symmetry at i=4
CleanUpVectors: The d-vectors have cracked symmetry at i=5
CleanUpVectors: The p-vectors have cracked symmetry
CleanUpVectors: The p-vectors have cracked symmetry
CleanUpVectors: The p-vectors have cracked symmetry
CleanUpVectors: The d-vectors have cracked symmetry at i=10
CleanUpVectors: The d-vectors have cracked symmetry at i=11
CleanUpVectors: The d-vectors have cracked symmetry at i=12
CleanUpVectors: The p-vectors have cracked symmetry
CleanUpVectors: The p-vectors have cracked symmetry
CleanUpVectors: The p-vectors have cracked symmetry
CleanUpVectors: The d-vectors have cracked symmetry at i=17
CleanUpVectors: The d-vectors have cracked symmetry at i=18
CleanUpVectors: The d-vectors have cracked symmetry at i=19
CleanUpVectors: The d-vectors have cracked symmetry at i=20
CleanUpVectors: The d-vectors have cracked symmetry at i=21
CleanUpVectors: The p-vectors have cracked symmetry
CleanUpVectors: The p-vectors have cracked symmetry
CleanUpVectors: The d-vectors have cracked symmetry at i=25
CleanUpVectors: The d-vectors have cracked symmetry at i=26
CleanUpVectors: The p-vectors have cracked symmetry
CleanUpVectors: The d-vectors have cracked symmetry at i=28
CleanUpVectors: The d-vectors have cracked symmetry at i=29
CleanUpVectors: The d-vectors have cracked symmetry at i=30
CleanUpVectors: The d-vectors have cracked symmetry at i=32
CleanUpVectors: The d-vectors have cracked symmetry at i=33
CleanUpVectors: The d-vectors have cracked symmetry at i=34
CleanUpVectors: The d-vectors have cracked symmetry at i=35
CleanUpVectors: The d-vectors have cracked symmetry at i=36
CleanUpVectors: The p-vectors have cracked symmetry
CleanUpVectors: The p-vectors have cracked symmetry
CleanUpVectors: The p-vectors have cracked symmetry
--------------------------
ATOM BASIS FOR ELEMENT Nb
--------------------------
 NewGTO Nb
 S 8
    1         13.500000000000        -0.327274604946
    2         12.200000000000         0.452110482432
    3          3.716927405100        -0.614229557690
    4          0.906524880600         0.820557493298
    5          0.415776060500         0.474448481782
    6          0.110425113000         0.008735530889
    7          0.062821821300         0.001626385494
    8          0.028016290000        -0.000723555721
 P 23
    1          9.309809172500         0.016045611007
    2          4.817868297500        -0.083236034623
    3          1.363283838000         0.119707945205
    4          0.906475261500         0.134823253457
    5          9.309809172500        -0.025495439948
    6          4.817868297500         0.132256685102
    7          1.363283838000        -0.190208196305
    8          0.906475261500        -0.214225445238
    9          9.309809172500         0.025252695574
   10          4.817868297500        -0.130997457320
   11          1.363283838000         0.188397206976
   12          0.906475261500         0.212185785525
   13          0.500895630700         0.176544498091
   14          0.500895630700        -0.280517809341
   15          0.500895630700         0.277846974072
   16          0.227932794400         0.036072564764
   17          0.227932794400        -0.057316976481
   18          0.227932794400         0.056771256398
   19          0.060000000000         0.001277205244
   20          0.060000000000        -0.002029396673
   21          0.060000000000         0.002010074605
   22          0.020600000000        -0.000243816480
   23          0.020600000000         0.000387408645
 D 23
    1         13.500000000000         0.000238744970
    2         12.200000000000        -0.000364955941
    3          3.716927405100         0.001767998581
    4          0.906524880600        -0.014579125855
    5          0.415776060500        -0.012919281766
    6          0.110425113000         0.155420302600
    7          0.062821821300         0.041133509463
    8          0.028016290000         0.072221143855
    9         17.364404474000        -0.000559244549
   10          5.368038585500         0.004405261308
   11          1.658608906700        -0.051990808555
   12          0.781214614000        -0.113594480992
   13         17.364404474000         0.000433686651
   14          5.368038585500        -0.003416221090
   15          1.658608906700         0.040318175074
   16          0.781214614000         0.088090997225
   17         17.364404474000         0.001512535370
   18          5.368038585500        -0.011914489920
   19          1.658608906700         0.140614579055
   20          0.781214614000         0.307228153818
   21         17.364404474000         0.000620626939
   22          5.368038585500        -0.004888780490
   23          1.658608906700         0.057697292570
 S 8
    1         13.500000000000        -0.533104964466
    2         12.200000000000         0.736452932885
    3          3.716927405100        -1.079290897310
    4          0.906524880600         4.542269535213
    5          0.415776060500        -5.651545919465
    6          0.110425113000         5.681232948806
    7          0.062821821300        -4.646316473417
    8          0.028016290000         1.122948920808
 S 8
    1         13.500000000000        -3.854252797865
    2         12.200000000000         5.324421954901
    3          3.716927405100        -3.070014777884
    4          0.906524880600         2.650239230658
    5          0.415776060500        -2.051726913850
    6          0.110425113000         1.505988762590
    7          0.062821821300        -1.210963519876
    8          0.028016290000         0.297168963504
 S 8
    1         13.500000000000        -4.670516026019
    2         12.200000000000         6.452041257758
    3          3.716927405100        -1.347519668133
    4          0.906524880600         0.862964965675
    5          0.415776060500        -0.643334353159
    6          0.110425113000         0.468963295587
    7          0.062821821300        -0.377900713739
    8          0.028016290000         0.093026380496
 P 23
    1          9.309809172500         0.004317451502
    2          4.817868297500        -0.022396625627
    3          1.363283838000         0.032210256597
    4          0.906475261500         0.036277388118
    5          9.309809172500        -0.006860151716
    6          4.817868297500         0.035586792268
    7          1.363283838000        -0.051180018343
    8          0.906475261500        -0.057642427771
    9          9.309809172500         0.006794835578
   10          4.817868297500        -0.035247967132
   11          1.363283838000         0.050692728662
   12          0.906475261500         0.057093608893
   13          0.500895630700         0.108736785150
   14          0.500895630700        -0.172775731912
   15          0.500895630700         0.171130718212
   16          0.227932794400        -0.093474296448
   17          0.227932794400         0.148524622661
   18          0.227932794400        -0.147110506013
   19          0.060000000000        -0.331825705729
   20          0.060000000000         0.527249624820
   21          0.060000000000        -0.522229632450
   22          0.020600000000        -0.062983458004
   23          0.020600000000         0.100076648767
 D 23
    1          4.817868297500        -0.000000002809
    2         17.364404474000        -0.000568854554
    3          5.368038585500         0.004480960900
    4          1.658608906700        -0.052884213674
    5          0.781214614000        -0.115546477772
    6         17.364404474000         0.000075581214
    7          5.368038585500        -0.000595365655
    8          1.658608906700         0.007026493922
    9          0.781214614000         0.015352154592
   10         17.364404474000        -0.000758758850
   11          5.368038585500         0.005976868274
   12          1.658608906700        -0.070538883503
   13          0.781214614000        -0.154120085532
   14         17.364404474000         0.001089760733
   15          5.368038585500        -0.008584224559
   16          1.658608906700         0.101310851831
   17          0.781214614000         0.221353619083
   18         17.364404474000        -0.000318017781
   19          5.368038585500         0.002505078377
   20          1.658608906700        -0.029564886446
   21          0.781214614000        -0.064596185842
   22          0.348742348000        -0.141537014838
   23          0.348742348000         0.018805403455
 P 23
    1          9.309809172500        -0.004510518423
    2          4.817868297500         0.023398153395
    3          1.363283838000        -0.033650628327
    4          0.906475261500        -0.037899633012
    5          9.309809172500         0.001141491714
    6          4.817868297500        -0.005921447538
    7          1.363283838000         0.008516075046
    8          0.906475261500         0.009591384619
    9          9.309809172500         0.004018456454
   10          4.817868297500        -0.020845599482
   11          1.363283838000         0.029979610296
   12          0.906475261500         0.033765082097
   13          0.500895630700        -0.044005874643
   14          0.500895630700         0.011136711247
   15          0.500895630700         0.039205180947
   16          0.227932794400        -0.060026876933
   17          0.227932794400         0.015191198922
   18          0.227932794400         0.053478418301
   19          0.060000000000         0.891068839746
   20          0.060000000000        -0.225505718261
   21          0.060000000000        -0.793860260292
   22          0.020600000000        -1.061478502709
   23          0.020600000000         0.268631851429
 D 23
    1         17.364404474000        -0.000338786817
    2          5.368038585500         0.002668679488
    3          1.658608906700        -0.031495703578
    4          0.781214614000        -0.068814819405
    5         17.364404474000         0.000045013121
    6          5.368038585500        -0.000354575759
    7          1.658608906700         0.004184696233
    8          0.781214614000         0.009143123755
    9         17.364404474000        -0.000451886152
   10          5.368038585500         0.003559581554
   11          1.658608906700        -0.042010112492
   12          0.781214614000        -0.091787703589
   13         17.364404474000         0.000649017516
   14          5.368038585500        -0.005112417740
   15          1.658608906700         0.060336655058
   16          0.781214614000         0.131829283034
   17         17.364404474000        -0.000189398557
   18          5.368038585500         0.001491923592
   19          1.658608906700        -0.017607653308
   20          0.781214614000        -0.038470881576
   21          0.348742348000        -0.027586152922
   22          0.348742348000         0.003665251355
   23          0.348742348000        -0.036795411940
 D 23
    1         13.500000000000        -0.000002083104
    2         12.200000000000         0.000003184324
    3          3.716927405100        -0.000015521068
    4          0.906524880600         0.000178041653
    5          0.415776060500        -0.000181693624
    6          0.110425113000        -0.000520475016
    7          0.062821821300        -0.000156897154
    8          0.028016290000         0.000725709041
    9         17.364404474000         0.000117894374
   10          5.368038585500        -0.000928673381
   11          1.658608906700         0.010960185243
   12          0.781214614000         0.023946858855
   13         17.364404474000         0.000685162971
   14          5.368038585500        -0.005397141434
   15          1.658608906700         0.063696958577
   16          0.781214614000         0.139171194899
   17         17.364404474000        -0.000054478676
   18          5.368038585500         0.000429137492
   19          1.658608906700        -0.005064672361
   20          0.781214614000        -0.011065779591
   21         17.364404474000         0.000191243096
   22          5.368038585500        -0.001506453327
   23          1.658608906700         0.017779132960
 D 23
    1         17.364404474000         0.000775596307
    2          5.368038585500        -0.006109499699
    3          1.658608906700         0.072104197010
    4          0.781214614000         0.157540131889
    5         17.364404474000         0.000495136611
    6          5.368038585500        -0.003900272538
    7          1.658608906700         0.046030940878
    8          0.781214614000         0.100572793229
    9         17.364404474000        -0.000069158012
   10          5.368038585500         0.000544769034
   11          1.658608906700        -0.006429353582
   12          0.781214614000        -0.014047465381
   13         17.364404474000         0.000139820550
   14          5.368038585500        -0.001101389474
   15          1.658608906700         0.012998577220
   16          0.781214614000         0.028400532209
   17         17.364404474000        -0.000625541333
   18          5.368038585500         0.004927491985
   19          1.658608906700        -0.058154164884
   20          0.781214614000        -0.127060770185
   21          0.348742348000         0.632204097930
   22          0.348742348000         0.403595777515
   23          0.348742348000        -0.056372081658
 D 23
    1         17.364404474000         0.003528487637
    2          5.368038585500        -0.027794477553
    3          1.658608906700         0.328029885253
    4          0.781214614000         0.716711003371
    5         17.364404474000         0.002252567986
    6          5.368038585500        -0.017743848574
    7          1.658608906700         0.209412556889
    8          0.781214614000         0.457544542476
    9         17.364404474000        -0.000314626549
   10          5.368038585500         0.002478365079
   11          1.658608906700        -0.029249616613
   12          0.781214614000        -0.063907354218
   13         17.364404474000         0.000636097771
   14          5.368038585500        -0.005010646780
   15          1.658608906700         0.059135556164
   16          0.781214614000         0.129205007526
   17         17.364404474000        -0.002845829513
   18          5.368038585500         0.022417067214
   19          1.658608906700        -0.264565792677
   20          0.781214614000        -0.578048596337
   21          0.348742348000        -1.505914003667
   22          0.348742348000        -0.961367595272
   23          0.348742348000         0.134278641183
 end
  // -----------------------------------------------
  // The basis set
  // -----------------------------------------------
  BAS[ATNO] = new BFNGauss[NSH];
  // Basis function   1 L = s
  InitBFNGauss(BAS[ATNO][  0]);
  BAS[ATNO][  0].l  = 0;
  BAS[ATNO][  0].ng = 8;
  BAS[ATNO][  0].a[  0] =        13.500000000000;     BAS[ATNO][  0].d[  0] =        -0.327274604946;
  BAS[ATNO][  0].a[  1] =        12.200000000000;     BAS[ATNO][  0].d[  1] =         0.452110482432;
  BAS[ATNO][  0].a[  2] =         3.716927405100;     BAS[ATNO][  0].d[  2] =        -0.614229557690;
  BAS[ATNO][  0].a[  3] =         0.906524880600;     BAS[ATNO][  0].d[  3] =         0.820557493298;
  BAS[ATNO][  0].a[  4] =         0.415776060500;     BAS[ATNO][  0].d[  4] =         0.474448481782;
  BAS[ATNO][  0].a[  5] =         0.110425113000;     BAS[ATNO][  0].d[  5] =         0.008735530889;
  BAS[ATNO][  0].a[  6] =         0.062821821300;     BAS[ATNO][  0].d[  6] =         0.001626385494;
  BAS[ATNO][  0].a[  7] =         0.028016290000;     BAS[ATNO][  0].d[  7] =        -0.000723555721;

  // Basis function   2 L = p
  InitBFNGauss(BAS[ATNO][  1]);
  BAS[ATNO][  1].l  = 1;
  BAS[ATNO][  1].ng = 23;
  BAS[ATNO][  1].a[  0] =         9.309809172500;     BAS[ATNO][  1].d[  0] =        -0.016045611007;
  BAS[ATNO][  1].a[  1] =         4.817868297500;     BAS[ATNO][  1].d[  1] =         0.083236034623;
  BAS[ATNO][  1].a[  2] =         1.363283838000;     BAS[ATNO][  1].d[  2] =        -0.119707945205;
  BAS[ATNO][  1].a[  3] =         0.906475261500;     BAS[ATNO][  1].d[  3] =        -0.134823253457;
  BAS[ATNO][  1].a[  4] =         9.309809172500;     BAS[ATNO][  1].d[  4] =         0.025495439948;
  BAS[ATNO][  1].a[  5] =         4.817868297500;     BAS[ATNO][  1].d[  5] =        -0.132256685102;
  BAS[ATNO][  1].a[  6] =         1.363283838000;     BAS[ATNO][  1].d[  6] =         0.190208196305;
  BAS[ATNO][  1].a[  7] =         0.906475261500;     BAS[ATNO][  1].d[  7] =         0.214225445238;
  BAS[ATNO][  1].a[  8] =         9.309809172500;     BAS[ATNO][  1].d[  8] =        -0.025252695574;
  BAS[ATNO][  1].a[  9] =         4.817868297500;     BAS[ATNO][  1].d[  9] =         0.130997457320;
  BAS[ATNO][  1].a[ 10] =         1.363283838000;     BAS[ATNO][  1].d[ 10] =        -0.188397206976;
  BAS[ATNO][  1].a[ 11] =         0.906475261500;     BAS[ATNO][  1].d[ 11] =        -0.212185785525;
  BAS[ATNO][  1].a[ 12] =         0.500895630700;     BAS[ATNO][  1].d[ 12] =        -0.176544498091;
  BAS[ATNO][  1].a[ 13] =         0.500895630700;     BAS[ATNO][  1].d[ 13] =         0.280517809341;
  BAS[ATNO][  1].a[ 14] =         0.500895630700;     BAS[ATNO][  1].d[ 14] =        -0.277846974072;
  BAS[ATNO][  1].a[ 15] =         0.227932794400;     BAS[ATNO][  1].d[ 15] =        -0.036072564764;
  BAS[ATNO][  1].a[ 16] =         0.227932794400;     BAS[ATNO][  1].d[ 16] =         0.057316976481;
  BAS[ATNO][  1].a[ 17] =         0.227932794400;     BAS[ATNO][  1].d[ 17] =        -0.056771256398;
  BAS[ATNO][  1].a[ 18] =         0.060000000000;     BAS[ATNO][  1].d[ 18] =        -0.001277205244;
  BAS[ATNO][  1].a[ 19] =         0.060000000000;     BAS[ATNO][  1].d[ 19] =         0.002029396673;
  BAS[ATNO][  1].a[ 20] =         0.060000000000;     BAS[ATNO][  1].d[ 20] =        -0.002010074605;
  BAS[ATNO][  1].a[ 21] =         0.020600000000;     BAS[ATNO][  1].d[ 21] =         0.000243816480;
  BAS[ATNO][  1].a[ 22] =         0.020600000000;     BAS[ATNO][  1].d[ 22] =        -0.000387408645;

  // Basis function   3 L = d
  InitBFNGauss(BAS[ATNO][  2]);
  BAS[ATNO][  2].l  = 2;
  BAS[ATNO][  2].ng = 23;
  BAS[ATNO][  2].a[  0] =        13.500000000000;     BAS[ATNO][  2].d[  0] =         0.000238744970;
  BAS[ATNO][  2].a[  1] =        12.200000000000;     BAS[ATNO][  2].d[  1] =        -0.000364955941;
  BAS[ATNO][  2].a[  2] =         3.716927405100;     BAS[ATNO][  2].d[  2] =         0.001767998581;
  BAS[ATNO][  2].a[  3] =         0.906524880600;     BAS[ATNO][  2].d[  3] =        -0.014579125855;
  BAS[ATNO][  2].a[  4] =         0.415776060500;     BAS[ATNO][  2].d[  4] =        -0.012919281766;
  BAS[ATNO][  2].a[  5] =         0.110425113000;     BAS[ATNO][  2].d[  5] =         0.155420302600;
  BAS[ATNO][  2].a[  6] =         0.062821821300;     BAS[ATNO][  2].d[  6] =         0.041133509463;
  BAS[ATNO][  2].a[  7] =         0.028016290000;     BAS[ATNO][  2].d[  7] =         0.072221143855;
  BAS[ATNO][  2].a[  8] =        17.364404474000;     BAS[ATNO][  2].d[  8] =        -0.000559244549;
  BAS[ATNO][  2].a[  9] =         5.368038585500;     BAS[ATNO][  2].d[  9] =         0.004405261308;
  BAS[ATNO][  2].a[ 10] =         1.658608906700;     BAS[ATNO][  2].d[ 10] =        -0.051990808555;
  BAS[ATNO][  2].a[ 11] =         0.781214614000;     BAS[ATNO][  2].d[ 11] =        -0.113594480992;
  BAS[ATNO][  2].a[ 12] =        17.364404474000;     BAS[ATNO][  2].d[ 12] =         0.000433686651;
  BAS[ATNO][  2].a[ 13] =         5.368038585500;     BAS[ATNO][  2].d[ 13] =        -0.003416221090;
  BAS[ATNO][  2].a[ 14] =         1.658608906700;     BAS[ATNO][  2].d[ 14] =         0.040318175074;
  BAS[ATNO][  2].a[ 15] =         0.781214614000;     BAS[ATNO][  2].d[ 15] =         0.088090997225;
  BAS[ATNO][  2].a[ 16] =        17.364404474000;     BAS[ATNO][  2].d[ 16] =         0.001512535370;
  BAS[ATNO][  2].a[ 17] =         5.368038585500;     BAS[ATNO][  2].d[ 17] =        -0.011914489920;
  BAS[ATNO][  2].a[ 18] =         1.658608906700;     BAS[ATNO][  2].d[ 18] =         0.140614579055;
  BAS[ATNO][  2].a[ 19] =         0.781214614000;     BAS[ATNO][  2].d[ 19] =         0.307228153818;
  BAS[ATNO][  2].a[ 20] =        17.364404474000;     BAS[ATNO][  2].d[ 20] =         0.000620626939;
  BAS[ATNO][  2].a[ 21] =         5.368038585500;     BAS[ATNO][  2].d[ 21] =        -0.004888780490;
  BAS[ATNO][  2].a[ 22] =         1.658608906700;     BAS[ATNO][  2].d[ 22] =         0.057697292570;

  // Basis function   4 L = s
  InitBFNGauss(BAS[ATNO][  3]);
  BAS[ATNO][  3].l  = 0;
  BAS[ATNO][  3].ng = 8;
  BAS[ATNO][  3].a[  0] =        13.500000000000;     BAS[ATNO][  3].d[  0] =        -0.533104964466;
  BAS[ATNO][  3].a[  1] =        12.200000000000;     BAS[ATNO][  3].d[  1] =         0.736452932885;
  BAS[ATNO][  3].a[  2] =         3.716927405100;     BAS[ATNO][  3].d[  2] =        -1.079290897310;
  BAS[ATNO][  3].a[  3] =         0.906524880600;     BAS[ATNO][  3].d[  3] =         4.542269535213;
  BAS[ATNO][  3].a[  4] =         0.415776060500;     BAS[ATNO][  3].d[  4] =        -5.651545919465;
  BAS[ATNO][  3].a[  5] =         0.110425113000;     BAS[ATNO][  3].d[  5] =         5.681232948806;
  BAS[ATNO][  3].a[  6] =         0.062821821300;     BAS[ATNO][  3].d[  6] =        -4.646316473417;
  BAS[ATNO][  3].a[  7] =         0.028016290000;     BAS[ATNO][  3].d[  7] =         1.122948920808;

  // Basis function   5 L = s
  InitBFNGauss(BAS[ATNO][  4]);
  BAS[ATNO][  4].l  = 0;
  BAS[ATNO][  4].ng = 8;
  BAS[ATNO][  4].a[  0] =        13.500000000000;     BAS[ATNO][  4].d[  0] =        -3.854252797865;
  BAS[ATNO][  4].a[  1] =        12.200000000000;     BAS[ATNO][  4].d[  1] =         5.324421954901;
  BAS[ATNO][  4].a[  2] =         3.716927405100;     BAS[ATNO][  4].d[  2] =        -3.070014777884;
  BAS[ATNO][  4].a[  3] =         0.906524880600;     BAS[ATNO][  4].d[  3] =         2.650239230658;
  BAS[ATNO][  4].a[  4] =         0.415776060500;     BAS[ATNO][  4].d[  4] =        -2.051726913850;
  BAS[ATNO][  4].a[  5] =         0.110425113000;     BAS[ATNO][  4].d[  5] =         1.505988762590;
  BAS[ATNO][  4].a[  6] =         0.062821821300;     BAS[ATNO][  4].d[  6] =        -1.210963519876;
  BAS[ATNO][  4].a[  7] =         0.028016290000;     BAS[ATNO][  4].d[  7] =         0.297168963504;

  // Basis function   6 L = s
  InitBFNGauss(BAS[ATNO][  5]);
  BAS[ATNO][  5].l  = 0;
  BAS[ATNO][  5].ng = 8;
  BAS[ATNO][  5].a[  0] =        13.500000000000;     BAS[ATNO][  5].d[  0] =        -4.670516026019;
  BAS[ATNO][  5].a[  1] =        12.200000000000;     BAS[ATNO][  5].d[  1] =         6.452041257758;
  BAS[ATNO][  5].a[  2] =         3.716927405100;     BAS[ATNO][  5].d[  2] =        -1.347519668133;
  BAS[ATNO][  5].a[  3] =         0.906524880600;     BAS[ATNO][  5].d[  3] =         0.862964965675;
  BAS[ATNO][  5].a[  4] =         0.415776060500;     BAS[ATNO][  5].d[  4] =        -0.643334353159;
  BAS[ATNO][  5].a[  5] =         0.110425113000;     BAS[ATNO][  5].d[  5] =         0.468963295587;
  BAS[ATNO][  5].a[  6] =         0.062821821300;     BAS[ATNO][  5].d[  6] =        -0.377900713739;
  BAS[ATNO][  5].a[  7] =         0.028016290000;     BAS[ATNO][  5].d[  7] =         0.093026380496;

  // Basis function   7 L = p
  InitBFNGauss(BAS[ATNO][  6]);
  BAS[ATNO][  6].l  = 1;
  BAS[ATNO][  6].ng = 23;
  BAS[ATNO][  6].a[  0] =         9.309809172500;     BAS[ATNO][  6].d[  0] =         0.004317451502;
  BAS[ATNO][  6].a[  1] =         4.817868297500;     BAS[ATNO][  6].d[  1] =        -0.022396625627;
  BAS[ATNO][  6].a[  2] =         1.363283838000;     BAS[ATNO][  6].d[  2] =         0.032210256597;
  BAS[ATNO][  6].a[  3] =         0.906475261500;     BAS[ATNO][  6].d[  3] =         0.036277388118;
  BAS[ATNO][  6].a[  4] =         9.309809172500;     BAS[ATNO][  6].d[  4] =        -0.006860151716;
  BAS[ATNO][  6].a[  5] =         4.817868297500;     BAS[ATNO][  6].d[  5] =         0.035586792268;
  BAS[ATNO][  6].a[  6] =         1.363283838000;     BAS[ATNO][  6].d[  6] =        -0.051180018343;
  BAS[ATNO][  6].a[  7] =         0.906475261500;     BAS[ATNO][  6].d[  7] =        -0.057642427771;
  BAS[ATNO][  6].a[  8] =         9.309809172500;     BAS[ATNO][  6].d[  8] =         0.006794835578;
  BAS[ATNO][  6].a[  9] =         4.817868297500;     BAS[ATNO][  6].d[  9] =        -0.035247967132;
  BAS[ATNO][  6].a[ 10] =         1.363283838000;     BAS[ATNO][  6].d[ 10] =         0.050692728662;
  BAS[ATNO][  6].a[ 11] =         0.906475261500;     BAS[ATNO][  6].d[ 11] =         0.057093608893;
  BAS[ATNO][  6].a[ 12] =         0.500895630700;     BAS[ATNO][  6].d[ 12] =         0.108736785150;
  BAS[ATNO][  6].a[ 13] =         0.500895630700;     BAS[ATNO][  6].d[ 13] =        -0.172775731912;
  BAS[ATNO][  6].a[ 14] =         0.500895630700;     BAS[ATNO][  6].d[ 14] =         0.171130718212;
  BAS[ATNO][  6].a[ 15] =         0.227932794400;     BAS[ATNO][  6].d[ 15] =        -0.093474296448;
  BAS[ATNO][  6].a[ 16] =         0.227932794400;     BAS[ATNO][  6].d[ 16] =         0.148524622661;
  BAS[ATNO][  6].a[ 17] =         0.227932794400;     BAS[ATNO][  6].d[ 17] =        -0.147110506013;
  BAS[ATNO][  6].a[ 18] =         0.060000000000;     BAS[ATNO][  6].d[ 18] =        -0.331825705729;
  BAS[ATNO][  6].a[ 19] =         0.060000000000;     BAS[ATNO][  6].d[ 19] =         0.527249624820;
  BAS[ATNO][  6].a[ 20] =         0.060000000000;     BAS[ATNO][  6].d[ 20] =        -0.522229632450;
  BAS[ATNO][  6].a[ 21] =         0.020600000000;     BAS[ATNO][  6].d[ 21] =        -0.062983458004;
  BAS[ATNO][  6].a[ 22] =         0.020600000000;     BAS[ATNO][  6].d[ 22] =         0.100076648767;

  // Basis function   8 L = d
  InitBFNGauss(BAS[ATNO][  7]);
  BAS[ATNO][  7].l  = 2;
  BAS[ATNO][  7].ng = 23;
  BAS[ATNO][  7].a[  0] =         4.817868297500;     BAS[ATNO][  7].d[  0] =        -0.000000002809;
  BAS[ATNO][  7].a[  1] =        17.364404474000;     BAS[ATNO][  7].d[  1] =        -0.000568854554;
  BAS[ATNO][  7].a[  2] =         5.368038585500;     BAS[ATNO][  7].d[  2] =         0.004480960900;
  BAS[ATNO][  7].a[  3] =         1.658608906700;     BAS[ATNO][  7].d[  3] =        -0.052884213674;
  BAS[ATNO][  7].a[  4] =         0.781214614000;     BAS[ATNO][  7].d[  4] =        -0.115546477772;
  BAS[ATNO][  7].a[  5] =        17.364404474000;     BAS[ATNO][  7].d[  5] =         0.000075581214;
  BAS[ATNO][  7].a[  6] =         5.368038585500;     BAS[ATNO][  7].d[  6] =        -0.000595365655;
  BAS[ATNO][  7].a[  7] =         1.658608906700;     BAS[ATNO][  7].d[  7] =         0.007026493922;
  BAS[ATNO][  7].a[  8] =         0.781214614000;     BAS[ATNO][  7].d[  8] =         0.015352154592;
  BAS[ATNO][  7].a[  9] =        17.364404474000;     BAS[ATNO][  7].d[  9] =        -0.000758758850;
  BAS[ATNO][  7].a[ 10] =         5.368038585500;     BAS[ATNO][  7].d[ 10] =         0.005976868274;
  BAS[ATNO][  7].a[ 11] =         1.658608906700;     BAS[ATNO][  7].d[ 11] =        -0.070538883503;
  BAS[ATNO][  7].a[ 12] =         0.781214614000;     BAS[ATNO][  7].d[ 12] =        -0.154120085532;
  BAS[ATNO][  7].a[ 13] =        17.364404474000;     BAS[ATNO][  7].d[ 13] =         0.001089760733;
  BAS[ATNO][  7].a[ 14] =         5.368038585500;     BAS[ATNO][  7].d[ 14] =        -0.008584224559;
  BAS[ATNO][  7].a[ 15] =         1.658608906700;     BAS[ATNO][  7].d[ 15] =         0.101310851831;
  BAS[ATNO][  7].a[ 16] =         0.781214614000;     BAS[ATNO][  7].d[ 16] =         0.221353619083;
  BAS[ATNO][  7].a[ 17] =        17.364404474000;     BAS[ATNO][  7].d[ 17] =        -0.000318017781;
  BAS[ATNO][  7].a[ 18] =         5.368038585500;     BAS[ATNO][  7].d[ 18] =         0.002505078377;
  BAS[ATNO][  7].a[ 19] =         1.658608906700;     BAS[ATNO][  7].d[ 19] =        -0.029564886446;
  BAS[ATNO][  7].a[ 20] =         0.781214614000;     BAS[ATNO][  7].d[ 20] =        -0.064596185842;
  BAS[ATNO][  7].a[ 21] =         0.348742348000;     BAS[ATNO][  7].d[ 21] =        -0.141537014838;
  BAS[ATNO][  7].a[ 22] =         0.348742348000;     BAS[ATNO][  7].d[ 22] =         0.018805403455;

  // Basis function   9 L = p
  InitBFNGauss(BAS[ATNO][  8]);
  BAS[ATNO][  8].l  = 1;
  BAS[ATNO][  8].ng = 23;
  BAS[ATNO][  8].a[  0] =         9.309809172500;     BAS[ATNO][  8].d[  0] =         0.004510518423;
  BAS[ATNO][  8].a[  1] =         4.817868297500;     BAS[ATNO][  8].d[  1] =        -0.023398153395;
  BAS[ATNO][  8].a[  2] =         1.363283838000;     BAS[ATNO][  8].d[  2] =         0.033650628327;
  BAS[ATNO][  8].a[  3] =         0.906475261500;     BAS[ATNO][  8].d[  3] =         0.037899633012;
  BAS[ATNO][  8].a[  4] =         9.309809172500;     BAS[ATNO][  8].d[  4] =        -0.001141491714;
  BAS[ATNO][  8].a[  5] =         4.817868297500;     BAS[ATNO][  8].d[  5] =         0.005921447538;
  BAS[ATNO][  8].a[  6] =         1.363283838000;     BAS[ATNO][  8].d[  6] =        -0.008516075046;
  BAS[ATNO][  8].a[  7] =         0.906475261500;     BAS[ATNO][  8].d[  7] =        -0.009591384619;
  BAS[ATNO][  8].a[  8] =         9.309809172500;     BAS[ATNO][  8].d[  8] =        -0.004018456454;
  BAS[ATNO][  8].a[  9] =         4.817868297500;     BAS[ATNO][  8].d[  9] =         0.020845599482;
  BAS[ATNO][  8].a[ 10] =         1.363283838000;     BAS[ATNO][  8].d[ 10] =        -0.029979610296;
  BAS[ATNO][  8].a[ 11] =         0.906475261500;     BAS[ATNO][  8].d[ 11] =        -0.033765082097;
  BAS[ATNO][  8].a[ 12] =         0.500895630700;     BAS[ATNO][  8].d[ 12] =         0.044005874643;
  BAS[ATNO][  8].a[ 13] =         0.500895630700;     BAS[ATNO][  8].d[ 13] =        -0.011136711247;
  BAS[ATNO][  8].a[ 14] =         0.500895630700;     BAS[ATNO][  8].d[ 14] =        -0.039205180947;
  BAS[ATNO][  8].a[ 15] =         0.227932794400;     BAS[ATNO][  8].d[ 15] =         0.060026876933;
  BAS[ATNO][  8].a[ 16] =         0.227932794400;     BAS[ATNO][  8].d[ 16] =        -0.015191198922;
  BAS[ATNO][  8].a[ 17] =         0.227932794400;     BAS[ATNO][  8].d[ 17] =        -0.053478418301;
  BAS[ATNO][  8].a[ 18] =         0.060000000000;     BAS[ATNO][  8].d[ 18] =        -0.891068839746;
  BAS[ATNO][  8].a[ 19] =         0.060000000000;     BAS[ATNO][  8].d[ 19] =         0.225505718261;
  BAS[ATNO][  8].a[ 20] =         0.060000000000;     BAS[ATNO][  8].d[ 20] =         0.793860260292;
  BAS[ATNO][  8].a[ 21] =         0.020600000000;     BAS[ATNO][  8].d[ 21] =         1.061478502709;
  BAS[ATNO][  8].a[ 22] =         0.020600000000;     BAS[ATNO][  8].d[ 22] =        -0.268631851429;

  // Basis function  10 L = d
  InitBFNGauss(BAS[ATNO][  9]);
  BAS[ATNO][  9].l  = 2;
  BAS[ATNO][  9].ng = 23;
  BAS[ATNO][  9].a[  0] =        17.364404474000;     BAS[ATNO][  9].d[  0] =        -0.000338786817;
  BAS[ATNO][  9].a[  1] =         5.368038585500;     BAS[ATNO][  9].d[  1] =         0.002668679488;
  BAS[ATNO][  9].a[  2] =         1.658608906700;     BAS[ATNO][  9].d[  2] =        -0.031495703578;
  BAS[ATNO][  9].a[  3] =         0.781214614000;     BAS[ATNO][  9].d[  3] =        -0.068814819405;
  BAS[ATNO][  9].a[  4] =        17.364404474000;     BAS[ATNO][  9].d[  4] =         0.000045013121;
  BAS[ATNO][  9].a[  5] =         5.368038585500;     BAS[ATNO][  9].d[  5] =        -0.000354575759;
  BAS[ATNO][  9].a[  6] =         1.658608906700;     BAS[ATNO][  9].d[  6] =         0.004184696233;
  BAS[ATNO][  9].a[  7] =         0.781214614000;     BAS[ATNO][  9].d[  7] =         0.009143123755;
  BAS[ATNO][  9].a[  8] =        17.364404474000;     BAS[ATNO][  9].d[  8] =        -0.000451886152;
  BAS[ATNO][  9].a[  9] =         5.368038585500;     BAS[ATNO][  9].d[  9] =         0.003559581554;
  BAS[ATNO][  9].a[ 10] =         1.658608906700;     BAS[ATNO][  9].d[ 10] =        -0.042010112492;
  BAS[ATNO][  9].a[ 11] =         0.781214614000;     BAS[ATNO][  9].d[ 11] =        -0.091787703589;
  BAS[ATNO][  9].a[ 12] =        17.364404474000;     BAS[ATNO][  9].d[ 12] =         0.000649017516;
  BAS[ATNO][  9].a[ 13] =         5.368038585500;     BAS[ATNO][  9].d[ 13] =        -0.005112417740;
  BAS[ATNO][  9].a[ 14] =         1.658608906700;     BAS[ATNO][  9].d[ 14] =         0.060336655058;
  BAS[ATNO][  9].a[ 15] =         0.781214614000;     BAS[ATNO][  9].d[ 15] =         0.131829283034;
  BAS[ATNO][  9].a[ 16] =        17.364404474000;     BAS[ATNO][  9].d[ 16] =        -0.000189398557;
  BAS[ATNO][  9].a[ 17] =         5.368038585500;     BAS[ATNO][  9].d[ 17] =         0.001491923592;
  BAS[ATNO][  9].a[ 18] =         1.658608906700;     BAS[ATNO][  9].d[ 18] =        -0.017607653308;
  BAS[ATNO][  9].a[ 19] =         0.781214614000;     BAS[ATNO][  9].d[ 19] =        -0.038470881576;
  BAS[ATNO][  9].a[ 20] =         0.348742348000;     BAS[ATNO][  9].d[ 20] =        -0.027586152922;
  BAS[ATNO][  9].a[ 21] =         0.348742348000;     BAS[ATNO][  9].d[ 21] =         0.003665251355;
  BAS[ATNO][  9].a[ 22] =         0.348742348000;     BAS[ATNO][  9].d[ 22] =        -0.036795411940;

  // Basis function  11 L = d
  InitBFNGauss(BAS[ATNO][ 10]);
  BAS[ATNO][ 10].l  = 2;
  BAS[ATNO][ 10].ng = 23;
  BAS[ATNO][ 10].a[  0] =        13.500000000000;     BAS[ATNO][ 10].d[  0] =        -0.000002083104;
  BAS[ATNO][ 10].a[  1] =        12.200000000000;     BAS[ATNO][ 10].d[  1] =         0.000003184324;
  BAS[ATNO][ 10].a[  2] =         3.716927405100;     BAS[ATNO][ 10].d[  2] =        -0.000015521068;
  BAS[ATNO][ 10].a[  3] =         0.906524880600;     BAS[ATNO][ 10].d[  3] =         0.000178041653;
  BAS[ATNO][ 10].a[  4] =         0.415776060500;     BAS[ATNO][ 10].d[  4] =        -0.000181693624;
  BAS[ATNO][ 10].a[  5] =         0.110425113000;     BAS[ATNO][ 10].d[  5] =        -0.000520475016;
  BAS[ATNO][ 10].a[  6] =         0.062821821300;     BAS[ATNO][ 10].d[  6] =        -0.000156897154;
  BAS[ATNO][ 10].a[  7] =         0.028016290000;     BAS[ATNO][ 10].d[  7] =         0.000725709041;
  BAS[ATNO][ 10].a[  8] =        17.364404474000;     BAS[ATNO][ 10].d[  8] =         0.000117894374;
  BAS[ATNO][ 10].a[  9] =         5.368038585500;     BAS[ATNO][ 10].d[  9] =        -0.000928673381;
  BAS[ATNO][ 10].a[ 10] =         1.658608906700;     BAS[ATNO][ 10].d[ 10] =         0.010960185243;
  BAS[ATNO][ 10].a[ 11] =         0.781214614000;     BAS[ATNO][ 10].d[ 11] =         0.023946858855;
  BAS[ATNO][ 10].a[ 12] =        17.364404474000;     BAS[ATNO][ 10].d[ 12] =         0.000685162971;
  BAS[ATNO][ 10].a[ 13] =         5.368038585500;     BAS[ATNO][ 10].d[ 13] =        -0.005397141434;
  BAS[ATNO][ 10].a[ 14] =         1.658608906700;     BAS[ATNO][ 10].d[ 14] =         0.063696958577;
  BAS[ATNO][ 10].a[ 15] =         0.781214614000;     BAS[ATNO][ 10].d[ 15] =         0.139171194899;
  BAS[ATNO][ 10].a[ 16] =        17.364404474000;     BAS[ATNO][ 10].d[ 16] =        -0.000054478676;
  BAS[ATNO][ 10].a[ 17] =         5.368038585500;     BAS[ATNO][ 10].d[ 17] =         0.000429137492;
  BAS[ATNO][ 10].a[ 18] =         1.658608906700;     BAS[ATNO][ 10].d[ 18] =        -0.005064672361;
  BAS[ATNO][ 10].a[ 19] =         0.781214614000;     BAS[ATNO][ 10].d[ 19] =        -0.011065779591;
  BAS[ATNO][ 10].a[ 20] =        17.364404474000;     BAS[ATNO][ 10].d[ 20] =         0.000191243096;
  BAS[ATNO][ 10].a[ 21] =         5.368038585500;     BAS[ATNO][ 10].d[ 21] =        -0.001506453327;
  BAS[ATNO][ 10].a[ 22] =         1.658608906700;     BAS[ATNO][ 10].d[ 22] =         0.017779132960;

  // Basis function  12 L = d
  InitBFNGauss(BAS[ATNO][ 11]);
  BAS[ATNO][ 11].l  = 2;
  BAS[ATNO][ 11].ng = 23;
  BAS[ATNO][ 11].a[  0] =        17.364404474000;     BAS[ATNO][ 11].d[  0] =         0.000775596307;
  BAS[ATNO][ 11].a[  1] =         5.368038585500;     BAS[ATNO][ 11].d[  1] =        -0.006109499699;
  BAS[ATNO][ 11].a[  2] =         1.658608906700;     BAS[ATNO][ 11].d[  2] =         0.072104197010;
  BAS[ATNO][ 11].a[  3] =         0.781214614000;     BAS[ATNO][ 11].d[  3] =         0.157540131889;
  BAS[ATNO][ 11].a[  4] =        17.364404474000;     BAS[ATNO][ 11].d[  4] =         0.000495136611;
  BAS[ATNO][ 11].a[  5] =         5.368038585500;     BAS[ATNO][ 11].d[  5] =        -0.003900272538;
  BAS[ATNO][ 11].a[  6] =         1.658608906700;     BAS[ATNO][ 11].d[  6] =         0.046030940878;
  BAS[ATNO][ 11].a[  7] =         0.781214614000;     BAS[ATNO][ 11].d[  7] =         0.100572793229;
  BAS[ATNO][ 11].a[  8] =        17.364404474000;     BAS[ATNO][ 11].d[  8] =        -0.000069158012;
  BAS[ATNO][ 11].a[  9] =         5.368038585500;     BAS[ATNO][ 11].d[  9] =         0.000544769034;
  BAS[ATNO][ 11].a[ 10] =         1.658608906700;     BAS[ATNO][ 11].d[ 10] =        -0.006429353582;
  BAS[ATNO][ 11].a[ 11] =         0.781214614000;     BAS[ATNO][ 11].d[ 11] =        -0.014047465381;
  BAS[ATNO][ 11].a[ 12] =        17.364404474000;     BAS[ATNO][ 11].d[ 12] =         0.000139820550;
  BAS[ATNO][ 11].a[ 13] =         5.368038585500;     BAS[ATNO][ 11].d[ 13] =        -0.001101389474;
  BAS[ATNO][ 11].a[ 14] =         1.658608906700;     BAS[ATNO][ 11].d[ 14] =         0.012998577220;
  BAS[ATNO][ 11].a[ 15] =         0.781214614000;     BAS[ATNO][ 11].d[ 15] =         0.028400532209;
  BAS[ATNO][ 11].a[ 16] =        17.364404474000;     BAS[ATNO][ 11].d[ 16] =        -0.000625541333;
  BAS[ATNO][ 11].a[ 17] =         5.368038585500;     BAS[ATNO][ 11].d[ 17] =         0.004927491985;
  BAS[ATNO][ 11].a[ 18] =         1.658608906700;     BAS[ATNO][ 11].d[ 18] =        -0.058154164884;
  BAS[ATNO][ 11].a[ 19] =         0.781214614000;     BAS[ATNO][ 11].d[ 19] =        -0.127060770185;
  BAS[ATNO][ 11].a[ 20] =         0.348742348000;     BAS[ATNO][ 11].d[ 20] =         0.632204097930;
  BAS[ATNO][ 11].a[ 21] =         0.348742348000;     BAS[ATNO][ 11].d[ 21] =         0.403595777515;
  BAS[ATNO][ 11].a[ 22] =         0.348742348000;     BAS[ATNO][ 11].d[ 22] =        -0.056372081658;

  // Basis function  13 L = d
  InitBFNGauss(BAS[ATNO][ 12]);
  BAS[ATNO][ 12].l  = 2;
  BAS[ATNO][ 12].ng = 23;
  BAS[ATNO][ 12].a[  0] =        17.364404474000;     BAS[ATNO][ 12].d[  0] =        -0.003528487637;
  BAS[ATNO][ 12].a[  1] =         5.368038585500;     BAS[ATNO][ 12].d[  1] =         0.027794477553;
  BAS[ATNO][ 12].a[  2] =         1.658608906700;     BAS[ATNO][ 12].d[  2] =        -0.328029885253;
  BAS[ATNO][ 12].a[  3] =         0.781214614000;     BAS[ATNO][ 12].d[  3] =        -0.716711003371;
  BAS[ATNO][ 12].a[  4] =        17.364404474000;     BAS[ATNO][ 12].d[  4] =        -0.002252567986;
  BAS[ATNO][ 12].a[  5] =         5.368038585500;     BAS[ATNO][ 12].d[  5] =         0.017743848574;
  BAS[ATNO][ 12].a[  6] =         1.658608906700;     BAS[ATNO][ 12].d[  6] =        -0.209412556889;
  BAS[ATNO][ 12].a[  7] =         0.781214614000;     BAS[ATNO][ 12].d[  7] =        -0.457544542476;
  BAS[ATNO][ 12].a[  8] =        17.364404474000;     BAS[ATNO][ 12].d[  8] =         0.000314626549;
  BAS[ATNO][ 12].a[  9] =         5.368038585500;     BAS[ATNO][ 12].d[  9] =        -0.002478365079;
  BAS[ATNO][ 12].a[ 10] =         1.658608906700;     BAS[ATNO][ 12].d[ 10] =         0.029249616613;
  BAS[ATNO][ 12].a[ 11] =         0.781214614000;     BAS[ATNO][ 12].d[ 11] =         0.063907354218;
  BAS[ATNO][ 12].a[ 12] =        17.364404474000;     BAS[ATNO][ 12].d[ 12] =        -0.000636097771;
  BAS[ATNO][ 12].a[ 13] =         5.368038585500;     BAS[ATNO][ 12].d[ 13] =         0.005010646780;
  BAS[ATNO][ 12].a[ 14] =         1.658608906700;     BAS[ATNO][ 12].d[ 14] =        -0.059135556164;
  BAS[ATNO][ 12].a[ 15] =         0.781214614000;     BAS[ATNO][ 12].d[ 15] =        -0.129205007526;
  BAS[ATNO][ 12].a[ 16] =        17.364404474000;     BAS[ATNO][ 12].d[ 16] =         0.002845829513;
  BAS[ATNO][ 12].a[ 17] =         5.368038585500;     BAS[ATNO][ 12].d[ 17] =        -0.022417067214;
  BAS[ATNO][ 12].a[ 18] =         1.658608906700;     BAS[ATNO][ 12].d[ 18] =         0.264565792677;
  BAS[ATNO][ 12].a[ 19] =         0.781214614000;     BAS[ATNO][ 12].d[ 19] =         0.578048596337;
  BAS[ATNO][ 12].a[ 20] =         0.348742348000;     BAS[ATNO][ 12].d[ 20] =         1.505914003667;
  BAS[ATNO][ 12].a[ 21] =         0.348742348000;     BAS[ATNO][ 12].d[ 21] =         0.961367595272;
  BAS[ATNO][ 12].a[ 22] =         0.348742348000;     BAS[ATNO][ 12].d[ 22] =        -0.134278641183;

-------------------------------------------
RADIAL EXPECTATION VALUES <R**-3> TO <R**3>
-------------------------------------------
   0 :     0.000000     0.969482     0.936148     1.179011     1.532649     2.193826
   1 :     0.878660     0.815567     0.853223     1.309567     1.913000     3.112206
   2 :     0.878610     0.815530     0.853199     1.309622     1.913195     3.112799
   3 :     0.875111     0.812903     0.851546     1.313276     1.925975     3.149952
   4 :     0.417689     0.464574     0.622364     1.922403     4.408550    59.197287
   5 :     0.395377     0.444571     0.606925     1.985367     4.736761    67.455236
   6 :     0.000000     0.154399     0.336731     3.504812    14.007591    62.624153
   7 :     0.000000     0.038678     0.158233     7.410211    59.112669   494.824529
   8 :     0.000000     0.134268     0.288513     4.886214    30.505751   227.325907
   9 :     0.000000     0.597029     0.644124     2.339655     8.821311    50.377585
  10 :     0.000000     4.449016     1.882167     0.700432     0.962889     3.695455
  11 :     0.000000    45.840714     5.401808     0.261039     0.142002     0.374205
  12 :     0.060776     0.098894     0.268896     4.432278    22.307547   125.616964
  13 :     0.060694     0.098784     0.268723     4.435879    22.348638   126.011221
  14 :     0.055484     0.092491     0.259922     4.591895    24.034441   141.528631
  15 :     0.314463     0.369272     0.541428     2.355348     7.080389   133.182018
  16 :     0.294483     0.349637     0.523087     2.479052     7.937902   159.251452
  17 :     0.294326     0.349481     0.522939     2.480089     7.945224   159.477782
  18 :     0.013562     0.029822     0.139893     8.587249    80.797582   805.612667
  19 :     0.013615     0.029897     0.140017     8.584384    80.764096   805.289836
  20 :     0.014987     0.031991     0.143736     8.494558    79.724881   795.545565
  21 :     0.037114     0.061805     0.204142     5.674810    34.453406  1096.263514
  22 :     0.041370     0.065882     0.207638     5.664358    34.455268  1099.217908
  23 :     0.082361     0.106624     0.246066     5.410260    32.767117  1051.082783
  24 :     0.093643     0.118284     0.257533     5.330037    32.233364  1036.157034
  25 :     0.093736     0.118381     0.257629     5.329342    32.228646  1036.021847
  26 :     0.213819     0.228851     0.385134     3.753120    19.548604   135.635088
  27 :     0.213897     0.228920     0.385203     3.752353    19.540995   135.564626
  28 :     0.158080     0.195481     0.360254     3.793496    17.925508   499.621425
  29 :     0.147716     0.185893     0.351988     3.839918    18.242863   509.842316
  30 :     0.221153     0.235148     0.391345     3.685865    18.906893   129.954530
  31 :     0.185085     0.220549     0.381273     3.692994    17.337007   483.553289
  32 :     0.189834     0.225448     0.385927     3.659235    17.073947   474.205419
  33 :     0.189871     0.225486     0.385963     3.658961    17.071778   474.127365
  34 :     0.703603     0.604369     0.660993     2.219617     7.127018   155.697506
  35 :     0.716565     0.613889     0.667073     2.204074     7.059064   154.174463
  36 :     0.685057     0.596654     0.655906     2.233464     7.191036   155.722741
  37 :     0.720515     0.616965     0.669293     2.194352     6.998363   152.378647
  38 :     0.720542     0.616985     0.669308     2.194284     6.997929   152.365559
  39 :     2.324956     0.960683     0.744129     2.118860     7.068312    37.697110
  40 :     2.324956     0.960687     0.744132     2.118837     7.068120    37.695553
  41 :     2.325036     0.961285     0.744725     2.115481     7.042855    37.495356
Making the total density                ... o.k.
o.k.
Initializing the integrals              ... done
Making exponents                        ... done
Making rho(0)                           ... done (         0.000146806)
Integral calculation                    ... Two index integrals                     ... done
Solving the equation system             ... done
atomic density will be written to file 41_Nb_atom41.adf

-------
TIMINGS
-------

Total SCF time: 0 days 0 hours 0 min 1 sec 

Total time                  ....       1.808 sec
Sum of individual times     ....       1.326 sec  ( 73.4%)

Fock matrix formation       ....       1.101 sec  ( 60.9%)
Diagonalization             ....       0.095 sec  (  5.3%)
Density matrix formation    ....       0.002 sec  (  0.1%)
Population analysis         ....       0.000 sec  (  0.0%)
Initial guess               ....       0.001 sec  (  0.0%)
Orbital Transformation      ....       0.000 sec  (  0.0%)
Orbital Orthonormalization  ....       0.000 sec  (  0.0%)
DIIS solution               ....       0.128 sec  (  7.1%)

-------------------------   --------------------
FINAL SINGLE POINT ENERGY       -56.036853247717
-------------------------   --------------------


                            ***************************************
                            *     ORCA property calculations      *
                            ***************************************

                                    ---------------------
                                    Active property flags
                                    ---------------------
   (+) Dipole Moment


------------------------------------------------------------------------------
                       ORCA ELECTRIC PROPERTIES CALCULATION
------------------------------------------------------------------------------

Dipole Moment Calculation                       ... on
Quadrupole Moment Calculation                   ... off
Polarizability Calculation                      ... off
GBWName                                         ... 41_Nb_atom41.gbw
Electron density file                           ... 41_Nb_atom41.scfp
The origin for moment calculation is the CENTER OF MASS  = ( 0.000000,  0.000000  0.000000)

-------------
DIPOLE MOMENT
-------------
                                X             Y             Z
Electronic contribution:     -0.00000       0.00000       0.00000
Nuclear contribution   :      0.00000       0.00000       0.00000
                        -----------------------------------------
Total Dipole Moment    :     -0.00000       0.00000       0.00000
                        -----------------------------------------
Magnitude (a.u.)       :      0.00000
Magnitude (Debye)      :      0.00000



--------------------
Rotational spectrum 
--------------------
 
Rotational constants in cm-1:     0.000000     0.000000     0.000000 
Rotational constants in MHz :     0.000000     0.000000     0.000000 

 Dipole components along the rotational axes: 
x,y,z [a.u.] :    -0.000000     0.000000     0.000000 
x,y,z [Debye]:    -0.000001     0.000000     0.000000 

 

Timings for individual modules:

Sum of individual times         ...        2.133 sec (=   0.036 min)
GTO integral calculation        ...        0.293 sec (=   0.005 min)  13.7 %
SCF iterations                  ...        1.840 sec (=   0.031 min)  86.3 %
                             ****ORCA TERMINATED NORMALLY****
TOTAL RUN TIME: 0 days 0 hours 0 minutes 2 seconds 332 msec
