
                                 *****************
                                 * O   R   C   A *
                                 *****************

           --- An Ab Initio, DFT and Semiempirical electronic structure package ---

                  #######################################################
                  #                        -***-                        #
                  #          Department of theory and spectroscopy      #
                  #               Directorship: Frank Neese             #
                  #        Max Planck Institute fuer Kohlenforschung    #
                  #                Kaiser Wilhelm Platz 1               #
                  #                 D-45470 Muelheim/Ruhr               #
                  #                      Germany                        #
                  #                                                     #
                  #                  All rights reserved                #
                  #                        -***-                        #
                  #######################################################


                         Program Version 4.2.0 -  RELEASE  -


 With contributions from (in alphabetic order):
   Daniel Aravena         : Magnetic Suceptibility
   Michael Atanasov       : Ab Initio Ligand Field Theory (pilot matlab implementation)
   Alexander A. Auer      : GIAO ZORA, VPT2
   Ute Becker             : Parallelization
   Giovanni Bistoni       : ED, misc. LED, open-shell LED, HFLED
   Martin Brehm           : Molecular dynamics
   Dmytro Bykov           : SCF Hessian
   Vijay G. Chilkuri      : MRCI spin determinant printing, contributions to CSF-ICE
   Dipayan Datta          : RHF DLPNO-CCSD density
   Achintya Kumar Dutta   : EOM-CC, STEOM-CC
   Dmitry Ganyushin       : Spin-Orbit,Spin-Spin,Magnetic field MRCI
   Miquel Garcia          : C-PCM Hessian, Gaussian charge scheme
   Yang Guo               : DLPNO-NEVPT2, CIM, IAO-localization
   Andreas Hansen         : Spin unrestricted coupled pair/coupled cluster methods
   Benjamin Helmich-Paris : CASSCF linear response (MC-RPA)
   Lee Huntington         : MR-EOM, pCC
   Robert Izsak           : Overlap fitted RIJCOSX, COSX-SCS-MP3, EOM
   Christian Kollmar      : KDIIS, OOCD, Brueckner-CCSD(T), CCSD density
   Simone Kossmann        : Meta GGA functionals, TD-DFT gradient, OOMP2, MP2 Hessian
   Martin Krupicka        : AUTO-CI
   Lucas Lang             : DCDCAS
   Dagmar Lenk            : GEPOL surface, SMD
   Dimitrios Liakos       : Extrapolation schemes; Compound Job, initial MDCI parallelization
   Dimitrios Manganas     : Further ROCIS development; embedding schemes
   Dimitrios Pantazis     : SARC Basis sets
   Taras Petrenko         : DFT Hessian,TD-DFT gradient, ASA, ECA, R-Raman, ABS, FL, XAS/XES, NRVS
   Peter Pinski           : DLPNO-MP2, DLPNO-MP2 Gradient
   Christoph Reimann      : Effective Core Potentials
   Marius Retegan         : Local ZFS, SOC
   Christoph Riplinger    : Optimizer, TS searches, QM/MM, DLPNO-CCSD(T), (RO)-DLPNO pert. Triples
   Tobias Risthaus        : Range-separated hybrids, TD-DFT gradient, RPA, STAB
   Michael Roemelt        : Original ROCIS implementation
   Masaaki Saitow         : Open-shell DLPNO-CCSD energy and density
   Barbara Sandhoefer     : DKH picture change effects
   Avijit Sen             : IP-ROCIS
   Kantharuban Sivalingam : CASSCF convergence, NEVPT2, FIC-MRCI
   Bernardo de Souza      : ESD, SOC TD-DFT
   Georgi Stoychev        : AutoAux, RI-MP2 NMR
   Willem Van den Heuvel  : Paramagnetic NMR
   Boris Wezisla          : Elementary symmetry handling
   Frank Wennmohs         : Technical directorship


 We gratefully acknowledge several colleagues who have allowed us to
 interface, adapt or use parts of their codes:
   Stefan Grimme, W. Hujo, H. Kruse,             : VdW corrections, initial TS optimization,
                  C. Bannwarth                     DFT functionals, gCP, sTDA/sTD-DF
   Ed Valeev, F. Pavosevic, A. Kumar             : LibInt (2-el integral package), F12 methods
   Garnet Chan, S. Sharma, J. Yang, R. Olivares  : DMRG
   Ulf Ekstrom                                   : XCFun DFT Library
   Mihaly Kallay                                 : mrcc  (arbitrary order and MRCC methods)
   Andreas Klamt, Michael Diedenhofen            : otool_cosmo (COSMO solvation model)
   Jiri Pittner, Ondrej Demel                    : Mk-CCSD
   Frank Weinhold                                : gennbo (NPA and NBO analysis)
   Christopher J. Cramer and Donald G. Truhlar   : smd solvation model
   Lars Goerigk                                  : TD-DFT with DH, B97 family of functionals
   V. Asgeirsson, H. Jonsson                     : NEB implementation
   FAccTs GmbH                                   : IRC, NEB, NEB-TS, Multilevel, MM, QM/MM, CI optimization
   S Lehtola, MJT Oliveira, MAL Marques          : LibXC Library


 Your calculation uses the libint2 library for the computation of 2-el integrals
 For citations please refer to: http://libint.valeyev.net

 Your ORCA version has been built with support for libXC version: 4.2.3
 For citations please refer to: https://tddft.org/programs/libxc/

 This ORCA versions uses:
   CBLAS   interface :  Fast vector & matrix operations
   LAPACKE interface :  Fast linear algebra routines
   SCALAPACK package :  Parallel linear algebra routines


----- Orbital basis set information -----
Your calculation utilizes the basis: def2-QZVPPD
   F. Weigend and R. Ahlrichs, Phys. Chem. Chem. Phys. 7, 3297 (2005).
   D. Rappoport and F. Furche, J. Chem. Phys. 133 134105 (2010).

cite the ECPs for Cd [Def2-ECP] as follows:
Ce-Yb(ecp-28): M. Dolg, H. Stoll, H.Preuss, J. Chem. Phys., 1989, 90, 1730-1734.
Y-Cd(ecp-28), Hf-Hg(ecp-46): D. Andrae,U. Haeussermann, M. Dolg, H. Stoll, H. Preuss, Theor. Chim. Acta, 1990, 77, 123-141.
In-Sb(ecp-28), Tl-Bi(ecp-46): B. Metz, H. Stoll, M. Dolg, J. Chem. Phys., 2000, 113, 2563-2569.
Te-Xe(ecp-28), Po-Rn(ecp-46): K. A. Peterson, D. Figgen, E. Goll, H. Stoll, M. Dolg, J. Chem. Phys., 2003, 119, 11113-11123.
Rb(ecp-28), Cs(ecp-46): T. Leininger, A. Nicklass, W. Kuechle, H. Stoll, M. Dolg, A. Bergner, Chem. Phys. Lett., 1996, 255, 274-280.
Sr(ecp-28), Ba(ecp-46): M. Kaupp, P. V. Schleyer, H. Stoll and H. Preuss, J. Chem. Phys., 1991, 94, 1360-1366.
La(ecp-46): M. Dolg, H. Stoll, A. Savin, H. Preuss, Theor. Chim. Acta, 1989, 75, 173-194.
Lu(ecp-28): X. Cao, M. Dolg, J. Chem. Phys., 2001, 115, 7348-7355.

ECP parameters for Cd [Def2-ECP] have been obtained from:
TURBOMOLE (7.0.2)

================================================================================
                                        WARNINGS
                       Please study these warnings very carefully!
================================================================================


WARNING: MDCI localization with Augmented Hessian Foster-Boys
  ===> : Switching off randomization!

WARNING: Post HF methods need fully converged wavefunctions
  ===> : Setting SCFConvForced true
         You can overwrite this default with %scf ConvForced false 


INFO   : the flag for use of LIBINT has been found!

================================================================================
                                       INPUT FILE
================================================================================
NAME = 48_Cd.in
|  1> #
|  2> # 48_Cd CCSD(T)/Def2-QZVPPD
|  3> #
|  4> ! CCSD(T) Def2-QZVPPD tightscf
|  5> 
|  6> *xyz 0 1
|  7>  Cd 0.0 0.0 0.0
|  8> *
|  9> 
| 10> %maxcore 5000 
| 11> 
| 12> %pal
| 13> nprocs 24
| 14> end
| 15> 
| 16> 
| 17>                          ****END OF INPUT****
================================================================================

                       ****************************
                       * Single Point Calculation *
                       ****************************

---------------------------------
CARTESIAN COORDINATES (ANGSTROEM)
---------------------------------
  Cd     0.000000    0.000000    0.000000

----------------------------
CARTESIAN COORDINATES (A.U.)
----------------------------
  NO LB      ZA    FRAG     MASS         X           Y           Z
   0 Cd   20.0000*   0   112.410    0.000000    0.000000    0.000000
* core charge reduced due to ECP

--------------------------------
INTERNAL COORDINATES (ANGSTROEM)
--------------------------------
 Cd     0   0   0     0.000000000000     0.00000000     0.00000000

---------------------------
INTERNAL COORDINATES (A.U.)
---------------------------
 Cd     0   0   0     0.000000000000     0.00000000     0.00000000

---------------------
BASIS SET INFORMATION
---------------------
There are 1 groups of distinct atoms

 Group   1 Type Cd  : 10s8p7d4f2g contracted to 7s5p4d4f2g pattern {4111111/41111/4111/1111/11}

Atom   0Cd   basis set group =>   1
-------------------------
ECP PARAMETER INFORMATION
-------------------------

 Group 1, Type Cd ECP Def2-ECP (replacing 28 core electrons, lmax=3)

Atom   0Cd   ECP group =>   1



           ************************************************************
           *        Program running with 24 parallel MPI-processes    *
           *              working on a common directory               *
           ************************************************************
------------------------------------------------------------------------------
                           ORCA GTO INTEGRAL CALCULATION
------------------------------------------------------------------------------

                         BASIS SET STATISTICS AND STARTUP INFO

 # of primitive gaussian shells          ...   31
 # of primitive gaussian functions       ...  115
 # of contracted shells                  ...   22
 # of contracted basis functions         ...   88
 Highest angular momentum                ...    4
 Maximum contraction depth               ...    4
 Integral package used                   ... LIBINT
 Integral threshhold            Thresh   ...  2.500e-11
 Primitive cut-off              TCut     ...  2.500e-12


------------------------------ INTEGRAL EVALUATION ----------------------------


 * One electron integrals 

   ECP integrals                         ... done
 Pre-screening matrix                    ... done
 Shell pair data                         ... done (   0.000 sec)



           ************************************************************
           *        Program running with 24 parallel MPI-processes    *
           *              working on a common directory               *
           ************************************************************
-------------------------------------------------------------------------------
                                 ORCA SCF
-------------------------------------------------------------------------------

------------
SCF SETTINGS
------------
Hamiltonian:
 Ab initio Hamiltonian  Method          .... Hartree-Fock(GTOs)


General Settings:
 Integral files         IntName         .... 48_Cd
 Hartree-Fock type      HFTyp           .... RHF
 Total Charge           Charge          ....    0
 Multiplicity           Mult            ....    1
 Number of Electrons    NEL             ....   20
 Basis Dimension        Dim             ....   88
 Nuclear Repulsion      ENuc            ....      0.0000000000 Eh

Convergence Acceleration:
 DIIS                   CNVDIIS         .... on
   Start iteration      DIISMaxIt       ....    12
   Startup error        DIISStart       ....  0.200000
   # of expansion vecs  DIISMaxEq       ....     5
   Bias factor          DIISBfac        ....   1.050
   Max. coefficient     DIISMaxC        ....  10.000
 Newton-Raphson         CNVNR           .... off
 SOSCF                  CNVSOSCF        .... off
 Level Shifting         CNVShift        .... on
   Level shift para.    LevelShift      ....    0.2500
   Turn off err/grad.   ShiftErr        ....    0.0010
 Zerner damping         CNVZerner       .... off
 Static damping         CNVDamp         .... on
   Fraction old density DampFac         ....    0.7000
   Max. Damping (<1)    DampMax         ....    0.9800
   Min. Damping (>=0)   DampMin         ....    0.0000
   Turn off err/grad.   DampErr         ....    0.1000
 Fernandez-Rico         CNVRico         .... off

SCF Procedure:
 Maximum # iterations   MaxIter         ....   125
 SCF integral mode      SCFMode         .... Direct
   Integral package                     .... LIBINT
 Reset frequency        DirectResetFreq ....    20
 Integral Threshold     Thresh          ....  2.500e-11 Eh
 Primitive CutOff       TCut            ....  2.500e-12 Eh

Convergence Tolerance:
 Convergence Check Mode ConvCheckMode   .... Total+1el-Energy
 Convergence forced     ConvForced      .... 1
 Energy Change          TolE            ....  1.000e-08 Eh
 1-El. energy change                    ....  1.000e-05 Eh
 DIIS Error             TolErr          ....  5.000e-07


Diagonalization of the overlap matrix:
Smallest eigenvalue                        ... 8.862e-03
Time for diagonalization                   ...    0.003 sec
Threshold for overlap eigenvalues          ... 1.000e-08
Number of eigenvalues below threshold      ... 0
Time for construction of square roots      ...    0.012 sec
Total time needed                          ...    0.015 sec

-------------------
DFT GRID GENERATION
-------------------

General Integration Accuracy     IntAcc      ...  4.340
Radial Grid Type                 RadialGrid  ... Gauss-Chebyshev
Angular Grid (max. acc.)         AngularGrid ... Lebedev-110
Angular grid pruning method      GridPruning ... 3 (G Style)
Weight generation scheme         WeightScheme... Becke
Basis function cutoff            BFCut       ...    1.0000e-11
Integration weight cutoff        WCut        ...    1.0000e-14
Grids for H and He will be reduced by one unit

# of grid points (after initial pruning)     ...   3258 (   0.0 sec)
# of grid points (after weights+screening)   ...   3258 (   0.0 sec)
Grid point division into batches done        ...    0.0 sec
Reduced shell lists constructed in    0.0 sec

Total number of grid points                  ...     3258
Total number of batches                      ...       51
Average number of points per batch           ...       63
Average number of grid points per atom       ...     3258
Average number of shells per batch           ...     5.25 (23.86%)
Average number of basis functions per batch  ...    15.75 (17.90%)
Average number of large shells per batch     ...     4.50 (85.71%)
Average number of large basis fcns per batch ...    15.00 (95.24%)
Maximum spatial batch extension              ...  24.86, 37.49, 37.49 au
Average spatial batch extension              ...   1.44,  1.96,  2.21 au

Time for grid setup =    0.061 sec

------------------------------
INITIAL GUESS: MODEL POTENTIAL
------------------------------
Loading Hartree-Fock densities                     ... done
  calling /sw/apps/orca/orca_4_2_0_linux_x86-64_openmpi314/orca 48_Cd_atom48.inp > 48_Cd_atom48.out in order to generate an atomic fitting density for atom 0 (Cd with ECP) on-the-fly... 
    atom 0 (Cd), assumed electronic state with S=1: 1s2 2s2 2p6 3s2 3p6 4s2 3d10 4p6 5s2 4d10           ... done
Calculating cut-offs                               ... done
Setting up the integral package                    ... done
Initializing the effective Hamiltonian             ... done
Starting the Coulomb interaction                   ... done (   0.0 sec)
Reading the grid                                   ... done
Mapping shells                                     ... done
Starting the XC term evaluation                    ... done (   0.0 sec)
Transforming the Hamiltonian                       ... done (   0.0 sec)
Diagonalizing the Hamiltonian                      ... done (   0.0 sec)
Back transforming the eigenvectors                 ... done (   0.0 sec)
Now organizing SCF variables                       ... done
                      ------------------
                      INITIAL GUESS DONE (   1.6 sec)
                      ------------------
--------------
SCF ITERATIONS
--------------
ITER       Energy         Delta-E        Max-DP      RMS-DP      [F,P]     Damp
               ***  Starting incremental Fock matrix formation  ***
  0   -166.8384554395   0.000000000000 0.11694658  0.00206090  0.4866961 0.7000
  1   -166.8520222078  -0.013566768274 0.08549837  0.00160662  0.3400347 0.7000
  2   -166.8611513695  -0.009129161673 0.05963855  0.00116491  0.2375703 0.7000
                               ***Turning on DIIS***
  3   -166.8676537733  -0.006502403820 0.04249248  0.00085885  0.1669381 0.7000
  4   -166.9426855394  -0.075031766072 0.03270213  0.00071245  0.1178847 0.7000
  5   -166.9279202910   0.014765248351 0.09293018  0.00198348  0.0834918 0.0000
  6   -166.8862224565   0.041697834565 0.01216453  0.00028446  0.0042198 0.0000
  7   -166.8878844399  -0.001661983408 0.00650817  0.00017263  0.0024268 0.0000
  8   -166.8915780303  -0.003693590456 0.00653848  0.00013560  0.0013469 0.0000
  9   -166.8876664866   0.003911543679 0.00997743  0.00015433  0.0006179 0.0000
 10   -166.8854329384   0.002233548255 0.00260400  0.00003797  0.0000801 0.0000
 11   -166.8849838156   0.000449122819 0.00043463  0.00000621  0.0000082 0.0000
 12   -166.8849256374   0.000058178165 0.00010067  0.00000144  0.0000017 0.0000
                            ***DIIS convergence achieved***

               *****************************************************
               *                     SUCCESS                       *
               *           SCF CONVERGED AFTER  13 CYCLES          *
               *****************************************************


----------------
TOTAL SCF ENERGY
----------------

Total Energy       :         -166.88491490 Eh           -4541.16940 eV

Components:
Nuclear Repulsion  :            0.00000000 Eh               0.00000 eV
Electronic Energy  :         -166.88491490 Eh           -4541.16940 eV
One Electron Energy:         -297.37324685 Eh           -8091.93743 eV
Two Electron Energy:          130.48833195 Eh            3550.76803 eV

Virial components:
Potential Energy   :         -231.45137264 Eh           -6298.11204 eV
Kinetic Energy     :           64.56645774 Eh            1756.94264 eV
Virial Ratio       :            3.58469987


---------------
SCF CONVERGENCE
---------------

  Last Energy change         ...    1.0736e-05  Tolerance :   1.0000e-08
  Last MAX-Density change    ...    1.0679e-05  Tolerance :   1.0000e-07
  Last RMS-Density change    ...    1.5229e-07  Tolerance :   5.0000e-09
  Last DIIS Error            ...    1.4850e-07  Tolerance :   5.0000e-07

             **** THE GBW FILE WAS UPDATED (48_Cd.gbw) ****
             **** DENSITY FILE WAS UPDATED (48_Cd.scfp) ****
             **** ENERGY FILE WAS UPDATED (48_Cd.en.tmp) ****
             **** THE GBW FILE WAS UPDATED (48_Cd.gbw) ****
             **** DENSITY FILE WAS UPDATED (48_Cd.scfp) ****
----------------
ORBITAL ENERGIES
----------------

  NO   OCC          E(Eh)            E(eV) 
   0   2.0000      -4.804686      -130.7422 
   1   2.0000      -3.170102       -86.2629 
   2   2.0000      -3.170102       -86.2629 
   3   2.0000      -3.170102       -86.2629 
   4   2.0000      -0.720393       -19.6029 
   5   2.0000      -0.720393       -19.6029 
   6   2.0000      -0.720393       -19.6029 
   7   2.0000      -0.720393       -19.6029 
   8   2.0000      -0.720393       -19.6029 
   9   2.0000      -0.281332        -7.6554 
  10   0.0000       0.041066         1.1175 
  11   0.0000       0.041066         1.1175 
  12   0.0000       0.041066         1.1175 
  13   0.0000       0.101797         2.7700 
  14   0.0000       0.203058         5.5255 
  15   0.0000       0.203058         5.5255 
  16   0.0000       0.203058         5.5255 
  17   0.0000       0.443241        12.0612 
  18   0.0000       0.443241        12.0612 
  19   0.0000       0.443241        12.0612 
  20   0.0000       0.443241        12.0612 
  21   0.0000       0.443241        12.0612 
  22   0.0000       0.547350        14.8942 
  23   0.0000       0.674490        18.3538 
  24   0.0000       0.674490        18.3538 
  25   0.0000       0.674490        18.3538 
  26   0.0000       0.674490        18.3538 
  27   0.0000       0.674490        18.3538 
  28   0.0000       0.674490        18.3538 
  29   0.0000       0.674490        18.3538 
  30   0.0000       0.944958        25.7136 
  31   0.0000       0.944958        25.7136 
  32   0.0000       0.944958        25.7136 
  33   0.0000       1.657201        45.0947 
  34   0.0000       1.657201        45.0947 
  35   0.0000       1.657201        45.0947 
  36   0.0000       1.657201        45.0947 
  37   0.0000       1.657201        45.0947 
  38   0.0000       1.748682        47.5841 
  39   0.0000       1.748682        47.5841 
  40   0.0000       1.748682        47.5841 
  41   0.0000       1.748682        47.5841 
  42   0.0000       1.748682        47.5841 
  43   0.0000       1.748682        47.5841 
  44   0.0000       1.748682        47.5841 
  45   0.0000       3.139381        85.4269 
  46   0.0000       3.940606       107.2293 
  47   0.0000       3.940606       107.2293 
  48   0.0000       3.940606       107.2293 
  49   0.0000       3.940606       107.2293 
  50   0.0000       3.940606       107.2293 
  51   0.0000       3.940606       107.2293 
  52   0.0000       3.940606       107.2293 
  53   0.0000       4.305991       117.1720 
  54   0.0000       4.305991       117.1720 
  55   0.0000       4.305991       117.1720 
  56   0.0000       4.305991       117.1720 
  57   0.0000       4.305991       117.1720 
  58   0.0000       4.305991       117.1720 
  59   0.0000       4.305991       117.1720 
  60   0.0000       4.305991       117.1720 
  61   0.0000       4.305991       117.1720 
  62   0.0000       5.107096       138.9712 
  63   0.0000       5.107096       138.9712 
  64   0.0000       5.107096       138.9712 
  65   0.0000       5.107096       138.9712 
  66   0.0000       5.107096       138.9712 
  67   0.0000       5.170125       140.6862 
  68   0.0000       5.170125       140.6862 
  69   0.0000       5.170125       140.6862 
  70   0.0000      10.657557       290.0069 
  71   0.0000      10.657557       290.0069 
  72   0.0000      10.657557       290.0069 
  73   0.0000      10.657557       290.0069 
  74   0.0000      10.657557       290.0069 
  75   0.0000      10.657557       290.0069 
  76   0.0000      10.657557       290.0069 
  77   0.0000      11.598738       315.6177 
  78   0.0000      11.598738       315.6177 
  79   0.0000      11.598738       315.6177 
  80   0.0000      11.598738       315.6177 
  81   0.0000      11.598738       315.6177 
  82   0.0000      11.598738       315.6177 
  83   0.0000      11.598738       315.6177 
  84   0.0000      11.598738       315.6177 
  85   0.0000      11.598738       315.6177 
  86   0.0000      37.473565      1019.7076 
  87   0.0000     116.104191      3159.3557 

                    ********************************
                    * MULLIKEN POPULATION ANALYSIS *
                    ********************************

-----------------------
MULLIKEN ATOMIC CHARGES
-----------------------
   0 Cd:   -0.000000
Sum of atomic charges:   -0.0000000

--------------------------------
MULLIKEN REDUCED ORBITAL CHARGES
--------------------------------
  0 Cds       :     4.000000  s :     4.000000
      pz      :     2.000000  p :     6.000000
      px      :     2.000000
      py      :     2.000000
      dz2     :     2.000000  d :    10.000000
      dxz     :     2.000000
      dyz     :     2.000000
      dx2y2   :     2.000000
      dxy     :     2.000000
      f0      :     0.000000  f :     0.000000
      f+1     :     0.000000
      f-1     :     0.000000
      f+2     :     0.000000
      f-2     :     0.000000
      f+3     :     0.000000
      f-3     :     0.000000
      g0      :     0.000000  g :     0.000000
      g+1     :     0.000000
      g-1     :     0.000000
      g+2     :     0.000000
      g-2     :     0.000000
      g+3     :     0.000000
      g-3     :     0.000000
      g+4     :     0.000000
      g-4     :     0.000000


                     *******************************
                     * LOEWDIN POPULATION ANALYSIS *
                     *******************************

----------------------
LOEWDIN ATOMIC CHARGES
----------------------
   0 Cd:   -0.000000

-------------------------------
LOEWDIN REDUCED ORBITAL CHARGES
-------------------------------
  0 Cds       :     4.000000  s :     4.000000
      pz      :     2.000000  p :     6.000000
      px      :     2.000000
      py      :     2.000000
      dz2     :     2.000000  d :    10.000000
      dxz     :     2.000000
      dyz     :     2.000000
      dx2y2   :     2.000000
      dxy     :     2.000000
      f0      :     0.000000  f :     0.000000
      f+1     :     0.000000
      f-1     :     0.000000
      f+2     :     0.000000
      f-2     :     0.000000
      f+3     :     0.000000
      f-3     :     0.000000
      g0      :     0.000000  g :     0.000000
      g+1     :     0.000000
      g-1     :     0.000000
      g+2     :     0.000000
      g-2     :     0.000000
      g+3     :     0.000000
      g-3     :     0.000000
      g+4     :     0.000000
      g-4     :     0.000000


                      *****************************
                      * MAYER POPULATION ANALYSIS *
                      *****************************

  NA   - Mulliken gross atomic population
  ZA   - Total nuclear charge
  QA   - Mulliken gross atomic charge
  VA   - Mayer's total valence
  BVA  - Mayer's bonded valence
  FA   - Mayer's free valence

  ATOM       NA         ZA         QA         VA         BVA        FA
  0 Cd    20.0000    20.0000    -0.0000    -0.0000     0.0000    -0.0000

  Mayer bond orders larger than 0.100000


--------------------------
ATOM BASIS FOR ELEMENT Cd
--------------------------
 NewGTO Cd
 S 10
    1        269.300162890000         0.000796884137
    2         18.554269093000        -0.552408167572
    3         16.729943183000         0.839520789138
    4         11.768546646000        -0.149915793023
    5          6.181660442700        -0.664480733557
    6          1.577574398900         0.862742734963
    7          0.718579811900         0.461616726429
    8          0.164331384100         0.018334897224
    9          0.076794158800        -0.007680069778
   10          0.034377199800         0.001957995536
 S 10
    1        269.300162890000         0.000225195116
    2         18.554269093000        -0.156107539030
    3         16.729943183000         0.237244001900
    4         11.768546646000        -0.042365386474
    5          6.181660442700        -0.204142933627
    6          1.577574398900         0.350290338010
    7          0.718579811900         0.270606250381
    8          0.164331384100        -0.362392322460
    9          0.076794158800        -0.567847515839
   10          0.034377199800        -0.247318536469
 S 10
    1        269.300162890000         0.000120617874
    2         18.554269093000        -0.083613533899
    3         16.729943183000         0.127071437539
    4         11.768546646000        -0.022691534952
    5          6.181660442700        -0.107549501693
    6          1.577574398900         0.229900772228
    7          0.718579811900        -0.008071792588
    8          0.164331384100         0.719031125399
    9          0.076794158800        -3.051305683196
   10          0.034377199800         2.615081176170
 S 10
    1        269.300162890000         0.000208591808
    2         18.554269093000        -0.144597957129
    3         16.729943183000         0.219752346549
    4         11.768546646000        -0.039241848121
    5          6.181660442700        -0.200004188760
    6          1.577574398900         0.160220122632
    7          0.718579811900         1.055711794853
    8          0.164331384100        -4.573264856956
    9          0.076794158800         5.484370203557
   10          0.034377199800        -2.026818358073
 S 10
    1        269.300162890000         0.001263813611
    2         18.554269093000        -0.876088415692
    3         16.729943183000         1.331432953515
    4         11.768546646000        -0.237758051577
    5          6.181660442700        -1.142483871617
    6          1.577574398900         4.285905583889
    7          0.718579811900        -4.743272622852
    8          0.164331384100         3.382366342095
    9          0.076794158800        -2.685622830595
   10          0.034377199800         0.844246904820
 S 10
    1        269.300162890000         0.008472502705
    2         18.554269093000        -5.873224821925
    3         16.729943183000         8.925817224896
    4         11.768546646000        -1.593910460543
    5          6.181660442700        -3.092651009698
    6          1.577574398900         2.562933317820
    7          0.718579811900        -1.732318853470
    8          0.164331384100         0.868508738546
    9          0.076794158800        -0.681557445242
   10          0.034377199800         0.217966658286
 S 10
    1        269.300162890000         0.009579140554
    2         18.554269093000        -6.640357404907
    3         16.729943183000        10.091664852149
    4         11.768546646000        -1.802099434355
    5          6.181660442700        -1.203122058475
    6          1.577574398900         0.779666844467
    7          0.718579811900        -0.504760790120
    8          0.164331384100         0.250619811507
    9          0.076794158800        -0.197138731948
   10          0.034377199800         0.063196721383
 P 8
    1         14.107678180000        -0.067208157526
    2          8.275004071400         0.253078123933
    3          2.250733832300        -0.454012858721
    4          1.191497023800        -0.442849333497
    5          0.660412577000        -0.215270157663
    6          0.338044037700        -0.049511924135
    7          0.096004037900        -0.002077959724
    8          0.033681030000         0.000158881737
 P 8
    1         14.107678180000        -0.007870691332
    2          8.275004071400         0.029637768235
    3          2.250733832300        -0.053169067612
    4          1.191497023800        -0.051861716474
    5          0.660412577000        -0.097012722552
    6          0.338044037700         0.136544956985
    7          0.096004037900         0.060106560417
    8          0.033681030000         0.929582173069
 P 8
    1         14.107678180000        -0.016871487039
    2          8.275004071400         0.063531042139
    3          2.250733832300        -0.113972356089
    4          1.191497023800        -0.111169939268
    5          0.660412577000         0.008839173036
    6          0.338044037700        -0.147120911558
    7          0.096004037900         1.569055454002
    8          0.033681030000        -1.180308788224
 P 8
    1         14.107678180000        -0.022953283363
    2          8.275004071400         0.086432571660
    3          2.250733832300        -0.155056858871
    4          1.191497023800        -0.151244233034
    5          0.660412577000        -1.249759633482
    6          0.338044037700         2.592903070295
    7          0.096004037900        -1.563714309091
    8          0.033681030000         0.586485257078
 P 8
    1         14.107678180000        -0.198700021681
    2          8.275004071400         0.748222099275
    3          2.250733832300        -1.342282963739
    4          1.191497023800        -1.309278150252
    5          0.660412577000         4.589459488965
    6          0.338044037700        -3.106006040472
    7          0.096004037900         0.892964033467
    8          0.033681030000        -0.306434746222
 D 7
    1         35.689192548000         0.002274042273
    2          9.340797161000        -0.020044385152
    3          3.592265914000         0.159780588465
    4          1.798067697600         0.364022101053
    5          0.848300577900         0.386461031694
    6          0.378464927500         0.244288474284
    7          0.154201016300         0.069019767375
 D 7
    1         35.689192548000         0.000894226684
    2          9.340797161000        -0.007882098004
    3          3.592265914000         0.062830874974
    4          1.798067697600         0.143145217693
    5          0.848300577900        -0.036477106715
    6          0.378464927500         0.531302078005
    7          0.154201016300        -1.278510380820
 D 7
    1         35.689192548000         0.001239995445
    2          9.340797161000        -0.010929852349
    3          3.592265914000         0.087125557949
    4          1.798067697600         0.198494879538
    5          0.848300577900         0.970521118733
    6          0.378464927500        -2.066329142766
    7          0.154201016300         0.959788885019
 D 7
    1         35.689192548000         0.007197004439
    2          9.340797161000        -0.063437487782
    3          3.592265914000         0.505681718416
    4          1.798067697600         1.152075626770
    5          0.848300577900        -2.486558449087
    6          0.378464927500         1.637822698393
    7          0.154201016300        -0.512932794019
 F 4
    1          4.768990000000         0.007326070614
    2          1.598130000000         0.060727873286
    3          0.535550000000        -0.074462657394
    4          0.179470000000         1.031010160388
 F 4
    1          4.768990000000         0.121723924452
    2          1.598130000000         0.147575111536
    3          0.535550000000         1.036026258579
    4          0.179470000000        -0.544964066937
 F 4
    1          4.768990000000         0.267761076672
    2          1.598130000000         0.971717134208
    3          0.535550000000        -0.914158726120
    4          0.179470000000         0.319828871016
 F 4
    1          4.768990000000         1.183303080358
    2          1.598130000000        -1.089719006917
    3          0.535550000000         0.492576638304
    4          0.179470000000        -0.156637772147
 G 2
    1          2.941420000000        -0.037513979259
    2          1.037100000000         1.017805627264
 G 2
    1          2.941420000000         1.145740733028
    2          1.037100000000        -0.527447467591
 end
  // -----------------------------------------------
  // The basis set
  // -----------------------------------------------
  BAS[ATNO] = new BFNGauss[NSH];
  // Basis function   1 L = s
  InitBFNGauss(BAS[ATNO][  0]);
  BAS[ATNO][  0].l  = 0;
  BAS[ATNO][  0].ng = 10;
  BAS[ATNO][  0].a[  0] =       269.300162890000;     BAS[ATNO][  0].d[  0] =         0.000796884137;
  BAS[ATNO][  0].a[  1] =        18.554269093000;     BAS[ATNO][  0].d[  1] =        -0.552408167572;
  BAS[ATNO][  0].a[  2] =        16.729943183000;     BAS[ATNO][  0].d[  2] =         0.839520789138;
  BAS[ATNO][  0].a[  3] =        11.768546646000;     BAS[ATNO][  0].d[  3] =        -0.149915793023;
  BAS[ATNO][  0].a[  4] =         6.181660442700;     BAS[ATNO][  0].d[  4] =        -0.664480733557;
  BAS[ATNO][  0].a[  5] =         1.577574398900;     BAS[ATNO][  0].d[  5] =         0.862742734963;
  BAS[ATNO][  0].a[  6] =         0.718579811900;     BAS[ATNO][  0].d[  6] =         0.461616726429;
  BAS[ATNO][  0].a[  7] =         0.164331384100;     BAS[ATNO][  0].d[  7] =         0.018334897224;
  BAS[ATNO][  0].a[  8] =         0.076794158800;     BAS[ATNO][  0].d[  8] =        -0.007680069778;
  BAS[ATNO][  0].a[  9] =         0.034377199800;     BAS[ATNO][  0].d[  9] =         0.001957995536;

  // Basis function   2 L = s
  InitBFNGauss(BAS[ATNO][  1]);
  BAS[ATNO][  1].l  = 0;
  BAS[ATNO][  1].ng = 10;
  BAS[ATNO][  1].a[  0] =       269.300162890000;     BAS[ATNO][  1].d[  0] =        -0.000225195116;
  BAS[ATNO][  1].a[  1] =        18.554269093000;     BAS[ATNO][  1].d[  1] =         0.156107539030;
  BAS[ATNO][  1].a[  2] =        16.729943183000;     BAS[ATNO][  1].d[  2] =        -0.237244001900;
  BAS[ATNO][  1].a[  3] =        11.768546646000;     BAS[ATNO][  1].d[  3] =         0.042365386474;
  BAS[ATNO][  1].a[  4] =         6.181660442700;     BAS[ATNO][  1].d[  4] =         0.204142933627;
  BAS[ATNO][  1].a[  5] =         1.577574398900;     BAS[ATNO][  1].d[  5] =        -0.350290338010;
  BAS[ATNO][  1].a[  6] =         0.718579811900;     BAS[ATNO][  1].d[  6] =        -0.270606250381;
  BAS[ATNO][  1].a[  7] =         0.164331384100;     BAS[ATNO][  1].d[  7] =         0.362392322460;
  BAS[ATNO][  1].a[  8] =         0.076794158800;     BAS[ATNO][  1].d[  8] =         0.567847515839;
  BAS[ATNO][  1].a[  9] =         0.034377199800;     BAS[ATNO][  1].d[  9] =         0.247318536469;

  // Basis function   3 L = s
  InitBFNGauss(BAS[ATNO][  2]);
  BAS[ATNO][  2].l  = 0;
  BAS[ATNO][  2].ng = 10;
  BAS[ATNO][  2].a[  0] =       269.300162890000;     BAS[ATNO][  2].d[  0] =        -0.000120617874;
  BAS[ATNO][  2].a[  1] =        18.554269093000;     BAS[ATNO][  2].d[  1] =         0.083613533899;
  BAS[ATNO][  2].a[  2] =        16.729943183000;     BAS[ATNO][  2].d[  2] =        -0.127071437539;
  BAS[ATNO][  2].a[  3] =        11.768546646000;     BAS[ATNO][  2].d[  3] =         0.022691534952;
  BAS[ATNO][  2].a[  4] =         6.181660442700;     BAS[ATNO][  2].d[  4] =         0.107549501693;
  BAS[ATNO][  2].a[  5] =         1.577574398900;     BAS[ATNO][  2].d[  5] =        -0.229900772228;
  BAS[ATNO][  2].a[  6] =         0.718579811900;     BAS[ATNO][  2].d[  6] =         0.008071792588;
  BAS[ATNO][  2].a[  7] =         0.164331384100;     BAS[ATNO][  2].d[  7] =        -0.719031125399;
  BAS[ATNO][  2].a[  8] =         0.076794158800;     BAS[ATNO][  2].d[  8] =         3.051305683196;
  BAS[ATNO][  2].a[  9] =         0.034377199800;     BAS[ATNO][  2].d[  9] =        -2.615081176170;

  // Basis function   4 L = s
  InitBFNGauss(BAS[ATNO][  3]);
  BAS[ATNO][  3].l  = 0;
  BAS[ATNO][  3].ng = 10;
  BAS[ATNO][  3].a[  0] =       269.300162890000;     BAS[ATNO][  3].d[  0] =         0.000208591808;
  BAS[ATNO][  3].a[  1] =        18.554269093000;     BAS[ATNO][  3].d[  1] =        -0.144597957129;
  BAS[ATNO][  3].a[  2] =        16.729943183000;     BAS[ATNO][  3].d[  2] =         0.219752346549;
  BAS[ATNO][  3].a[  3] =        11.768546646000;     BAS[ATNO][  3].d[  3] =        -0.039241848121;
  BAS[ATNO][  3].a[  4] =         6.181660442700;     BAS[ATNO][  3].d[  4] =        -0.200004188760;
  BAS[ATNO][  3].a[  5] =         1.577574398900;     BAS[ATNO][  3].d[  5] =         0.160220122632;
  BAS[ATNO][  3].a[  6] =         0.718579811900;     BAS[ATNO][  3].d[  6] =         1.055711794853;
  BAS[ATNO][  3].a[  7] =         0.164331384100;     BAS[ATNO][  3].d[  7] =        -4.573264856956;
  BAS[ATNO][  3].a[  8] =         0.076794158800;     BAS[ATNO][  3].d[  8] =         5.484370203557;
  BAS[ATNO][  3].a[  9] =         0.034377199800;     BAS[ATNO][  3].d[  9] =        -2.026818358073;

  // Basis function   5 L = s
  InitBFNGauss(BAS[ATNO][  4]);
  BAS[ATNO][  4].l  = 0;
  BAS[ATNO][  4].ng = 10;
  BAS[ATNO][  4].a[  0] =       269.300162890000;     BAS[ATNO][  4].d[  0] =        -0.001263813611;
  BAS[ATNO][  4].a[  1] =        18.554269093000;     BAS[ATNO][  4].d[  1] =         0.876088415692;
  BAS[ATNO][  4].a[  2] =        16.729943183000;     BAS[ATNO][  4].d[  2] =        -1.331432953515;
  BAS[ATNO][  4].a[  3] =        11.768546646000;     BAS[ATNO][  4].d[  3] =         0.237758051577;
  BAS[ATNO][  4].a[  4] =         6.181660442700;     BAS[ATNO][  4].d[  4] =         1.142483871617;
  BAS[ATNO][  4].a[  5] =         1.577574398900;     BAS[ATNO][  4].d[  5] =        -4.285905583889;
  BAS[ATNO][  4].a[  6] =         0.718579811900;     BAS[ATNO][  4].d[  6] =         4.743272622852;
  BAS[ATNO][  4].a[  7] =         0.164331384100;     BAS[ATNO][  4].d[  7] =        -3.382366342095;
  BAS[ATNO][  4].a[  8] =         0.076794158800;     BAS[ATNO][  4].d[  8] =         2.685622830595;
  BAS[ATNO][  4].a[  9] =         0.034377199800;     BAS[ATNO][  4].d[  9] =        -0.844246904820;

  // Basis function   6 L = s
  InitBFNGauss(BAS[ATNO][  5]);
  BAS[ATNO][  5].l  = 0;
  BAS[ATNO][  5].ng = 10;
  BAS[ATNO][  5].a[  0] =       269.300162890000;     BAS[ATNO][  5].d[  0] =         0.008472502705;
  BAS[ATNO][  5].a[  1] =        18.554269093000;     BAS[ATNO][  5].d[  1] =        -5.873224821925;
  BAS[ATNO][  5].a[  2] =        16.729943183000;     BAS[ATNO][  5].d[  2] =         8.925817224896;
  BAS[ATNO][  5].a[  3] =        11.768546646000;     BAS[ATNO][  5].d[  3] =        -1.593910460543;
  BAS[ATNO][  5].a[  4] =         6.181660442700;     BAS[ATNO][  5].d[  4] =        -3.092651009698;
  BAS[ATNO][  5].a[  5] =         1.577574398900;     BAS[ATNO][  5].d[  5] =         2.562933317820;
  BAS[ATNO][  5].a[  6] =         0.718579811900;     BAS[ATNO][  5].d[  6] =        -1.732318853470;
  BAS[ATNO][  5].a[  7] =         0.164331384100;     BAS[ATNO][  5].d[  7] =         0.868508738546;
  BAS[ATNO][  5].a[  8] =         0.076794158800;     BAS[ATNO][  5].d[  8] =        -0.681557445242;
  BAS[ATNO][  5].a[  9] =         0.034377199800;     BAS[ATNO][  5].d[  9] =         0.217966658286;

  // Basis function   7 L = s
  InitBFNGauss(BAS[ATNO][  6]);
  BAS[ATNO][  6].l  = 0;
  BAS[ATNO][  6].ng = 10;
  BAS[ATNO][  6].a[  0] =       269.300162890000;     BAS[ATNO][  6].d[  0] =         0.009579140554;
  BAS[ATNO][  6].a[  1] =        18.554269093000;     BAS[ATNO][  6].d[  1] =        -6.640357404907;
  BAS[ATNO][  6].a[  2] =        16.729943183000;     BAS[ATNO][  6].d[  2] =        10.091664852149;
  BAS[ATNO][  6].a[  3] =        11.768546646000;     BAS[ATNO][  6].d[  3] =        -1.802099434355;
  BAS[ATNO][  6].a[  4] =         6.181660442700;     BAS[ATNO][  6].d[  4] =        -1.203122058475;
  BAS[ATNO][  6].a[  5] =         1.577574398900;     BAS[ATNO][  6].d[  5] =         0.779666844467;
  BAS[ATNO][  6].a[  6] =         0.718579811900;     BAS[ATNO][  6].d[  6] =        -0.504760790120;
  BAS[ATNO][  6].a[  7] =         0.164331384100;     BAS[ATNO][  6].d[  7] =         0.250619811507;
  BAS[ATNO][  6].a[  8] =         0.076794158800;     BAS[ATNO][  6].d[  8] =        -0.197138731948;
  BAS[ATNO][  6].a[  9] =         0.034377199800;     BAS[ATNO][  6].d[  9] =         0.063196721383;

  // Basis function   8 L = p
  InitBFNGauss(BAS[ATNO][  7]);
  BAS[ATNO][  7].l  = 1;
  BAS[ATNO][  7].ng = 8;
  BAS[ATNO][  7].a[  0] =        14.107678180000;     BAS[ATNO][  7].d[  0] =         0.067208157526;
  BAS[ATNO][  7].a[  1] =         8.275004071400;     BAS[ATNO][  7].d[  1] =        -0.253078123933;
  BAS[ATNO][  7].a[  2] =         2.250733832300;     BAS[ATNO][  7].d[  2] =         0.454012858721;
  BAS[ATNO][  7].a[  3] =         1.191497023800;     BAS[ATNO][  7].d[  3] =         0.442849333497;
  BAS[ATNO][  7].a[  4] =         0.660412577000;     BAS[ATNO][  7].d[  4] =         0.215270157663;
  BAS[ATNO][  7].a[  5] =         0.338044037700;     BAS[ATNO][  7].d[  5] =         0.049511924135;
  BAS[ATNO][  7].a[  6] =         0.096004037900;     BAS[ATNO][  7].d[  6] =         0.002077959724;
  BAS[ATNO][  7].a[  7] =         0.033681030000;     BAS[ATNO][  7].d[  7] =        -0.000158881737;

  // Basis function   9 L = p
  InitBFNGauss(BAS[ATNO][  8]);
  BAS[ATNO][  8].l  = 1;
  BAS[ATNO][  8].ng = 8;
  BAS[ATNO][  8].a[  0] =        14.107678180000;     BAS[ATNO][  8].d[  0] =        -0.007870691332;
  BAS[ATNO][  8].a[  1] =         8.275004071400;     BAS[ATNO][  8].d[  1] =         0.029637768235;
  BAS[ATNO][  8].a[  2] =         2.250733832300;     BAS[ATNO][  8].d[  2] =        -0.053169067612;
  BAS[ATNO][  8].a[  3] =         1.191497023800;     BAS[ATNO][  8].d[  3] =        -0.051861716474;
  BAS[ATNO][  8].a[  4] =         0.660412577000;     BAS[ATNO][  8].d[  4] =        -0.097012722552;
  BAS[ATNO][  8].a[  5] =         0.338044037700;     BAS[ATNO][  8].d[  5] =         0.136544956985;
  BAS[ATNO][  8].a[  6] =         0.096004037900;     BAS[ATNO][  8].d[  6] =         0.060106560417;
  BAS[ATNO][  8].a[  7] =         0.033681030000;     BAS[ATNO][  8].d[  7] =         0.929582173069;

  // Basis function  10 L = p
  InitBFNGauss(BAS[ATNO][  9]);
  BAS[ATNO][  9].l  = 1;
  BAS[ATNO][  9].ng = 8;
  BAS[ATNO][  9].a[  0] =        14.107678180000;     BAS[ATNO][  9].d[  0] =        -0.016871487039;
  BAS[ATNO][  9].a[  1] =         8.275004071400;     BAS[ATNO][  9].d[  1] =         0.063531042139;
  BAS[ATNO][  9].a[  2] =         2.250733832300;     BAS[ATNO][  9].d[  2] =        -0.113972356089;
  BAS[ATNO][  9].a[  3] =         1.191497023800;     BAS[ATNO][  9].d[  3] =        -0.111169939268;
  BAS[ATNO][  9].a[  4] =         0.660412577000;     BAS[ATNO][  9].d[  4] =         0.008839173036;
  BAS[ATNO][  9].a[  5] =         0.338044037700;     BAS[ATNO][  9].d[  5] =        -0.147120911558;
  BAS[ATNO][  9].a[  6] =         0.096004037900;     BAS[ATNO][  9].d[  6] =         1.569055454002;
  BAS[ATNO][  9].a[  7] =         0.033681030000;     BAS[ATNO][  9].d[  7] =        -1.180308788224;

  // Basis function  11 L = p
  InitBFNGauss(BAS[ATNO][ 10]);
  BAS[ATNO][ 10].l  = 1;
  BAS[ATNO][ 10].ng = 8;
  BAS[ATNO][ 10].a[  0] =        14.107678180000;     BAS[ATNO][ 10].d[  0] =        -0.022953283363;
  BAS[ATNO][ 10].a[  1] =         8.275004071400;     BAS[ATNO][ 10].d[  1] =         0.086432571660;
  BAS[ATNO][ 10].a[  2] =         2.250733832300;     BAS[ATNO][ 10].d[  2] =        -0.155056858871;
  BAS[ATNO][ 10].a[  3] =         1.191497023800;     BAS[ATNO][ 10].d[  3] =        -0.151244233034;
  BAS[ATNO][ 10].a[  4] =         0.660412577000;     BAS[ATNO][ 10].d[  4] =        -1.249759633482;
  BAS[ATNO][ 10].a[  5] =         0.338044037700;     BAS[ATNO][ 10].d[  5] =         2.592903070295;
  BAS[ATNO][ 10].a[  6] =         0.096004037900;     BAS[ATNO][ 10].d[  6] =        -1.563714309091;
  BAS[ATNO][ 10].a[  7] =         0.033681030000;     BAS[ATNO][ 10].d[  7] =         0.586485257078;

  // Basis function  12 L = p
  InitBFNGauss(BAS[ATNO][ 11]);
  BAS[ATNO][ 11].l  = 1;
  BAS[ATNO][ 11].ng = 8;
  BAS[ATNO][ 11].a[  0] =        14.107678180000;     BAS[ATNO][ 11].d[  0] =        -0.198700021681;
  BAS[ATNO][ 11].a[  1] =         8.275004071400;     BAS[ATNO][ 11].d[  1] =         0.748222099275;
  BAS[ATNO][ 11].a[  2] =         2.250733832300;     BAS[ATNO][ 11].d[  2] =        -1.342282963739;
  BAS[ATNO][ 11].a[  3] =         1.191497023800;     BAS[ATNO][ 11].d[  3] =        -1.309278150252;
  BAS[ATNO][ 11].a[  4] =         0.660412577000;     BAS[ATNO][ 11].d[  4] =         4.589459488965;
  BAS[ATNO][ 11].a[  5] =         0.338044037700;     BAS[ATNO][ 11].d[  5] =        -3.106006040472;
  BAS[ATNO][ 11].a[  6] =         0.096004037900;     BAS[ATNO][ 11].d[  6] =         0.892964033467;
  BAS[ATNO][ 11].a[  7] =         0.033681030000;     BAS[ATNO][ 11].d[  7] =        -0.306434746222;

  // Basis function  13 L = d
  InitBFNGauss(BAS[ATNO][ 12]);
  BAS[ATNO][ 12].l  = 2;
  BAS[ATNO][ 12].ng = 7;
  BAS[ATNO][ 12].a[  0] =        35.689192548000;     BAS[ATNO][ 12].d[  0] =         0.002274042273;
  BAS[ATNO][ 12].a[  1] =         9.340797161000;     BAS[ATNO][ 12].d[  1] =        -0.020044385152;
  BAS[ATNO][ 12].a[  2] =         3.592265914000;     BAS[ATNO][ 12].d[  2] =         0.159780588465;
  BAS[ATNO][ 12].a[  3] =         1.798067697600;     BAS[ATNO][ 12].d[  3] =         0.364022101053;
  BAS[ATNO][ 12].a[  4] =         0.848300577900;     BAS[ATNO][ 12].d[  4] =         0.386461031694;
  BAS[ATNO][ 12].a[  5] =         0.378464927500;     BAS[ATNO][ 12].d[  5] =         0.244288474284;
  BAS[ATNO][ 12].a[  6] =         0.154201016300;     BAS[ATNO][ 12].d[  6] =         0.069019767375;

  // Basis function  14 L = d
  InitBFNGauss(BAS[ATNO][ 13]);
  BAS[ATNO][ 13].l  = 2;
  BAS[ATNO][ 13].ng = 7;
  BAS[ATNO][ 13].a[  0] =        35.689192548000;     BAS[ATNO][ 13].d[  0] =        -0.000894226684;
  BAS[ATNO][ 13].a[  1] =         9.340797161000;     BAS[ATNO][ 13].d[  1] =         0.007882098004;
  BAS[ATNO][ 13].a[  2] =         3.592265914000;     BAS[ATNO][ 13].d[  2] =        -0.062830874974;
  BAS[ATNO][ 13].a[  3] =         1.798067697600;     BAS[ATNO][ 13].d[  3] =        -0.143145217693;
  BAS[ATNO][ 13].a[  4] =         0.848300577900;     BAS[ATNO][ 13].d[  4] =         0.036477106715;
  BAS[ATNO][ 13].a[  5] =         0.378464927500;     BAS[ATNO][ 13].d[  5] =        -0.531302078005;
  BAS[ATNO][ 13].a[  6] =         0.154201016300;     BAS[ATNO][ 13].d[  6] =         1.278510380820;

  // Basis function  15 L = d
  InitBFNGauss(BAS[ATNO][ 14]);
  BAS[ATNO][ 14].l  = 2;
  BAS[ATNO][ 14].ng = 7;
  BAS[ATNO][ 14].a[  0] =        35.689192548000;     BAS[ATNO][ 14].d[  0] =        -0.001239995445;
  BAS[ATNO][ 14].a[  1] =         9.340797161000;     BAS[ATNO][ 14].d[  1] =         0.010929852349;
  BAS[ATNO][ 14].a[  2] =         3.592265914000;     BAS[ATNO][ 14].d[  2] =        -0.087125557949;
  BAS[ATNO][ 14].a[  3] =         1.798067697600;     BAS[ATNO][ 14].d[  3] =        -0.198494879538;
  BAS[ATNO][ 14].a[  4] =         0.848300577900;     BAS[ATNO][ 14].d[  4] =        -0.970521118733;
  BAS[ATNO][ 14].a[  5] =         0.378464927500;     BAS[ATNO][ 14].d[  5] =         2.066329142766;
  BAS[ATNO][ 14].a[  6] =         0.154201016300;     BAS[ATNO][ 14].d[  6] =        -0.959788885019;

  // Basis function  16 L = d
  InitBFNGauss(BAS[ATNO][ 15]);
  BAS[ATNO][ 15].l  = 2;
  BAS[ATNO][ 15].ng = 7;
  BAS[ATNO][ 15].a[  0] =        35.689192548000;     BAS[ATNO][ 15].d[  0] =        -0.007197004439;
  BAS[ATNO][ 15].a[  1] =         9.340797161000;     BAS[ATNO][ 15].d[  1] =         0.063437487782;
  BAS[ATNO][ 15].a[  2] =         3.592265914000;     BAS[ATNO][ 15].d[  2] =        -0.505681718416;
  BAS[ATNO][ 15].a[  3] =         1.798067697600;     BAS[ATNO][ 15].d[  3] =        -1.152075626770;
  BAS[ATNO][ 15].a[  4] =         0.848300577900;     BAS[ATNO][ 15].d[  4] =         2.486558449087;
  BAS[ATNO][ 15].a[  5] =         0.378464927500;     BAS[ATNO][ 15].d[  5] =        -1.637822698393;
  BAS[ATNO][ 15].a[  6] =         0.154201016300;     BAS[ATNO][ 15].d[  6] =         0.512932794019;

  // Basis function  17 L = f
  InitBFNGauss(BAS[ATNO][ 16]);
  BAS[ATNO][ 16].l  = 3;
  BAS[ATNO][ 16].ng = 4;
  BAS[ATNO][ 16].a[  0] =         4.768990000000;     BAS[ATNO][ 16].d[  0] =         0.007326070614;
  BAS[ATNO][ 16].a[  1] =         1.598130000000;     BAS[ATNO][ 16].d[  1] =         0.060727873286;
  BAS[ATNO][ 16].a[  2] =         0.535550000000;     BAS[ATNO][ 16].d[  2] =        -0.074462657394;
  BAS[ATNO][ 16].a[  3] =         0.179470000000;     BAS[ATNO][ 16].d[  3] =         1.031010160388;

  // Basis function  18 L = f
  InitBFNGauss(BAS[ATNO][ 17]);
  BAS[ATNO][ 17].l  = 3;
  BAS[ATNO][ 17].ng = 4;
  BAS[ATNO][ 17].a[  0] =         4.768990000000;     BAS[ATNO][ 17].d[  0] =         0.121723924452;
  BAS[ATNO][ 17].a[  1] =         1.598130000000;     BAS[ATNO][ 17].d[  1] =         0.147575111536;
  BAS[ATNO][ 17].a[  2] =         0.535550000000;     BAS[ATNO][ 17].d[  2] =         1.036026258579;
  BAS[ATNO][ 17].a[  3] =         0.179470000000;     BAS[ATNO][ 17].d[  3] =        -0.544964066937;

  // Basis function  19 L = f
  InitBFNGauss(BAS[ATNO][ 18]);
  BAS[ATNO][ 18].l  = 3;
  BAS[ATNO][ 18].ng = 4;
  BAS[ATNO][ 18].a[  0] =         4.768990000000;     BAS[ATNO][ 18].d[  0] =         0.267761076672;
  BAS[ATNO][ 18].a[  1] =         1.598130000000;     BAS[ATNO][ 18].d[  1] =         0.971717134208;
  BAS[ATNO][ 18].a[  2] =         0.535550000000;     BAS[ATNO][ 18].d[  2] =        -0.914158726120;
  BAS[ATNO][ 18].a[  3] =         0.179470000000;     BAS[ATNO][ 18].d[  3] =         0.319828871016;

  // Basis function  20 L = f
  InitBFNGauss(BAS[ATNO][ 19]);
  BAS[ATNO][ 19].l  = 3;
  BAS[ATNO][ 19].ng = 4;
  BAS[ATNO][ 19].a[  0] =         4.768990000000;     BAS[ATNO][ 19].d[  0] =         1.183303080358;
  BAS[ATNO][ 19].a[  1] =         1.598130000000;     BAS[ATNO][ 19].d[  1] =        -1.089719006917;
  BAS[ATNO][ 19].a[  2] =         0.535550000000;     BAS[ATNO][ 19].d[  2] =         0.492576638304;
  BAS[ATNO][ 19].a[  3] =         0.179470000000;     BAS[ATNO][ 19].d[  3] =        -0.156637772147;

  // Basis function  21 L = g
  InitBFNGauss(BAS[ATNO][ 20]);
  BAS[ATNO][ 20].l  = 4;
  BAS[ATNO][ 20].ng = 2;
  BAS[ATNO][ 20].a[  0] =         2.941420000000;     BAS[ATNO][ 20].d[  0] =        -0.037513979259;
  BAS[ATNO][ 20].a[  1] =         1.037100000000;     BAS[ATNO][ 20].d[  1] =         1.017805627264;

  // Basis function  22 L = g
  InitBFNGauss(BAS[ATNO][ 21]);
  BAS[ATNO][ 21].l  = 4;
  BAS[ATNO][ 21].ng = 2;
  BAS[ATNO][ 21].a[  0] =         2.941420000000;     BAS[ATNO][ 21].d[  0] =         1.145740733028;
  BAS[ATNO][ 21].a[  1] =         1.037100000000;     BAS[ATNO][ 21].d[  1] =        -0.527447467591;

-------------------------------------------
RADIAL EXPECTATION VALUES <R**-3> TO <R**3>
-------------------------------------------
   0 :     0.000000     1.639302     1.218994     0.902308     0.894796     0.974821
   1 :     0.000000     0.210368     0.392253     3.089751    11.091427    45.633935
   2 :     0.000000     0.058069     0.188692     6.435700    45.231991   335.643081
   3 :     0.000000     0.212573     0.362338     4.003529    21.146571   136.523085
   4 :     0.000000     1.012049     0.846206     1.800780     5.332560    25.461958
   5 :     0.000000     7.878798     2.404334     0.547397     0.579042     1.805078
   6 :     0.000000    76.454509     6.902959     0.203414     0.080990     0.159300
   7 :     2.031211     1.432100     1.133027     0.982974     1.075979     1.311915
   8 :     2.031211     1.432100     1.133027     0.982974     1.075979     1.311915
   9 :     2.031211     1.432100     1.133027     0.982974     1.075979     1.311915
  10 :     0.031430     0.061656     0.214902     5.497102    34.077941   232.330956
  11 :     0.031430     0.061656     0.214902     5.497102    34.077941   232.330956
  12 :     0.031430     0.061656     0.214902     5.497102    34.077941   232.330956
  13 :     0.079001     0.113110     0.275967     4.956738    31.291954   231.187207
  14 :     0.079001     0.113110     0.275967     4.956738    31.291954   231.187207
  15 :     0.079001     0.113110     0.275967     4.956738    31.291954   231.187207
  16 :     0.332241     0.312093     0.460254     3.017557    12.479688    68.787461
  17 :     0.332241     0.312093     0.460254     3.017557    12.479688    68.787461
  18 :     0.332241     0.312093     0.460254     3.017557    12.479688    68.787461
  19 :     1.702168     0.896424     0.782710     1.852459     5.174911    22.212998
  20 :     1.702168     0.896424     0.782710     1.852459     5.174911    22.212998
  21 :     1.702168     0.896424     0.782710     1.852459     5.174911    22.212998
  22 :     1.374431     1.034254     0.932812     1.273242     1.927220    17.322828
  23 :     1.374431     1.034254     0.932812     1.273242     1.927220    17.322828
  24 :     1.374431     1.034254     0.932812     1.273242     1.927220    17.322828
  25 :     1.374431     1.034254     0.932812     1.273242     1.927220    17.322828
  26 :     1.374431     1.034254     0.932812     1.273242     1.927220    17.322828
  27 :     0.145432     0.157872     0.326946     3.560441    13.573102   270.910883
  28 :     0.145432     0.157872     0.326946     3.560441    13.573102   270.910883
  29 :     0.145432     0.157872     0.326946     3.560441    13.573102   270.910883
  30 :     0.145432     0.157872     0.326946     3.560441    13.573102   270.910883
  31 :     0.145432     0.157872     0.326946     3.560441    13.573102   270.910883
  32 :     0.532203     0.449295     0.555417     2.398210     7.075221   122.489945
  33 :     0.532203     0.449295     0.555417     2.398210     7.075221   122.489945
  34 :     0.532203     0.449295     0.555417     2.398210     7.075221   122.489945
  35 :     0.532203     0.449295     0.555417     2.398210     7.075221   122.489945
  36 :     0.532203     0.449295     0.555417     2.398210     7.075221   122.489945
  37 :     2.301819     1.333979     0.986797     1.457242     3.008470    41.582047
  38 :     2.301819     1.333979     0.986797     1.457242     3.008470    41.582047
  39 :     2.301819     1.333979     0.986797     1.457242     3.008470    41.582047
  40 :     2.301819     1.333979     0.986797     1.457242     3.008470    41.582047
  41 :     2.301819     1.333979     0.986797     1.457242     3.008470    41.582047
  42 :     0.039922     0.102249     0.305593     3.492451    12.868945   348.000021
  43 :     0.039922     0.102249     0.305593     3.492451    12.868945   348.000021
  44 :     0.039922     0.102249     0.305593     3.492451    12.868945   348.000021
  45 :     0.039922     0.102249     0.305593     3.492451    12.868945   348.000021
  46 :     0.039922     0.102249     0.305593     3.492451    12.868945   348.000021
  47 :     0.039922     0.102249     0.305593     3.492451    12.868945   348.000021
  48 :     0.039922     0.102249     0.305593     3.492451    12.868945   348.000021
  49 :     0.433252     0.458814     0.612588     1.985861     4.859778   102.400955
  50 :     0.433252     0.458814     0.612588     1.985861     4.859778   102.400955
  51 :     0.433252     0.458814     0.612588     1.985861     4.859778   102.400955
  52 :     0.433252     0.458814     0.612588     1.985861     4.859778   102.400955
  53 :     0.433252     0.458814     0.612588     1.985861     4.859778   102.400955
  54 :     0.433252     0.458814     0.612588     1.985861     4.859778   102.400955
  55 :     0.433252     0.458814     0.612588     1.985861     4.859778   102.400955
  56 :     1.602134     1.148442     0.966756     1.362627     2.559520    45.330965
  57 :     1.602134     1.148442     0.966756     1.362627     2.559520    45.330965
  58 :     1.602134     1.148442     0.966756     1.362627     2.559520    45.330965
  59 :     1.602134     1.148442     0.966756     1.362627     2.559520    45.330965
  60 :     1.602134     1.148442     0.966756     1.362627     2.559520    45.330965
  61 :     1.602134     1.148442     0.966756     1.362627     2.559520    45.330965
  62 :     1.602134     1.148442     0.966756     1.362627     2.559520    45.330965
  63 :     4.499201     2.337432     1.394443     0.923674     1.181503    15.316948
  64 :     4.499201     2.337432     1.394443     0.923674     1.181503    15.316948
  65 :     4.499201     2.337432     1.394443     0.923674     1.181503    15.316948
  66 :     4.499201     2.337432     1.394443     0.923674     1.181503    15.316948
  67 :     4.499201     2.337432     1.394443     0.923674     1.181503    15.316948
  68 :     4.499201     2.337432     1.394443     0.923674     1.181503    15.316948
  69 :     4.499201     2.337432     1.394443     0.923674     1.181503    15.316948
  70 :     0.323071     0.446325     0.651503     1.607449     2.696595    32.947333
  71 :     0.323071     0.446325     0.651503     1.607449     2.696595    32.947333
  72 :     0.323071     0.446325     0.651503     1.607449     2.696595    32.947333
  73 :     0.323071     0.446325     0.651503     1.607449     2.696595    32.947333
  74 :     0.323071     0.446325     0.651503     1.607449     2.696595    32.947333
  75 :     0.323071     0.446325     0.651503     1.607449     2.696595    32.947333
  76 :     0.323071     0.446325     0.651503     1.607449     2.696595    32.947333
  77 :     0.323071     0.446325     0.651503     1.607449     2.696595    32.947333
  78 :     0.323071     0.446325     0.651503     1.607449     2.696595    32.947333
  79 :     1.704806     1.321906     1.103166     1.004462     1.148072    10.655756
  80 :     1.704806     1.321906     1.103166     1.004462     1.148072    10.655756
  81 :     1.704806     1.321906     1.103166     1.004462     1.148072    10.655756
  82 :     1.704806     1.321906     1.103166     1.004462     1.148072    10.655756
  83 :     1.704806     1.321906     1.103166     1.004462     1.148072    10.655756
  84 :     1.704806     1.321906     1.103166     1.004462     1.148072    10.655756
  85 :     1.704806     1.321906     1.103166     1.004462     1.148072    10.655756
  86 :     1.704806     1.321906     1.103166     1.004462     1.148072    10.655756
  87 :     1.704806     1.321906     1.103166     1.004462     1.148072    10.655756
-------
TIMINGS
-------

Total SCF time: 0 days 0 hours 0 min 4 sec 

Total time                  ....       4.828 sec
Sum of individual times     ....       4.225 sec  ( 87.5%)

Fock matrix formation       ....       2.213 sec  ( 45.8%)
Diagonalization             ....       0.080 sec  (  1.7%)
Density matrix formation    ....       0.006 sec  (  0.1%)
Population analysis         ....       0.033 sec  (  0.7%)
Initial guess               ....       1.576 sec  ( 32.6%)
Orbital Transformation      ....       0.000 sec  (  0.0%)
Orbital Orthonormalization  ....       0.000 sec  (  0.0%)
DIIS solution               ....       0.256 sec  (  5.3%)


           ************************************************************
           *        Program running with 24 parallel MPI-processes    *
           *              working on a common directory               *
           ************************************************************


------------------------------------------------------------------------------- 
                              ORCA-MATRIX DRIVEN CI                            
------------------------------------------------------------------------------- 

--------------------------------
AUTOMATIC CHOICE OF INCORE LEVEL
--------------------------------

Memory available                           ...   2500.00 MB
Memory needed for S+T                      ...      7.66 MB
Memory needed for J+K                      ...     15.38 MB
Memory needed for DIIS                     ...    107.22 MB
Memory needed for 3-ext                    ...     36.21 MB
Memory needed for 4-ext                    ...    143.01 MB
Memory needed for triples                  ...     18.10 MB
 -> Final InCoreLevel    ... 5
 -> check shows that triples correction can be computed


Wavefunction type
-----------------
Correlation treatment                      ...      CCSD     
Single excitations                         ... ON
Orbital optimization                       ... OFF
Calculation of Z vector                    ... OFF
Calculation of Brueckner orbitals          ... OFF
Perturbative triple excitations            ... ON
Calculation of F12 correction              ... OFF
Frozen core treatment                      ... chemical core (0 el)
Reference Wavefunction                     ... RHF
  Internal Orbitals:     0 ...    9 ( 10 MO's/ 20 electrons)
  Virtual  Orbitals:    10 ...   87 ( 78 MO's              )
Number of AO's                             ...     88
Number of electrons                        ...     20
Number of correlated electrons             ...     20

Algorithmic settings
--------------------
Integral transformation                    ... AO direct full transformation
K(C) Formation                             ... FULL-MO TRAFO
Maximum number of iterations               ...        50
Convergence tolerance (max. residuum)      ... 1.000e-05
Level shift for amplitude update           ... 2.000e-01
Maximum number of DIIS vectors             ...         7
DIIS turned on at iteration                ...         0
Damping before turning on DIIS             ...     0.500
Damping after turning on DIIS              ...     0.000
Pair specific amplitude update             ... OFF
Natural orbital iterations                 ... OFF
Perturbative natural orbital generation    ... OFF
Printlevel                                 ... 2

Memory handling:
----------------
Maximum memory for working arrays          ...   2500 MB
Data storage in matrix containers          ... UNCOMPRESSED
Data type for integral storage             ... DOUBLE
In-Core Storage of quantities:
   Amplitudes+Sigma Vector      ... YES
   J+K operators                ... YES
   DIIS vectors                 ... YES
   3-external integrals         ... YES
   4-external integrals         ... YES


Initializing the integral package          ... done
Warning: reference  - re-canonicalizations have been set to INT 1 VIRT 1

--------------------------
CLOSED-SHELL FOCK OPERATOR
--------------------------

<ss|ss>:          406 b            0 skpd (  0.0%)    0.000 s ( 0.000 ms/b)
<ss|sp>:          980 b            0 skpd (  0.0%)    0.000 s ( 0.000 ms/b)
<ss|sd>:          784 b            0 skpd (  0.0%)    0.000 s ( 0.000 ms/b)
<ss|sf>:          784 b            0 skpd (  0.0%)    0.000 s ( 0.000 ms/b)
<ss|sg>:          392 b            0 skpd (  0.0%)    0.000 s ( 0.000 ms/b)
<ss|pp>:          420 b            0 skpd (  0.0%)    0.000 s ( 0.000 ms/b)
<ss|pd>:          560 b            0 skpd (  0.0%)    0.000 s ( 0.000 ms/b)
<ss|pf>:          560 b            0 skpd (  0.0%)    0.000 s ( 0.000 ms/b)
<ss|pg>:          280 b            0 skpd (  0.0%)    0.000 s ( 0.000 ms/b)
<ss|dd>:          280 b            0 skpd (  0.0%)    0.000 s ( 0.001 ms/b)
<ss|df>:          448 b            0 skpd (  0.0%)    0.000 s ( 0.001 ms/b)
<ss|dg>:          224 b            0 skpd (  0.0%)    0.000 s ( 0.001 ms/b)
<ss|ff>:          280 b            0 skpd (  0.0%)    0.000 s ( 0.001 ms/b)
<ss|fg>:          224 b            0 skpd (  0.0%)    0.000 s ( 0.001 ms/b)
<ss|gg>:           84 b            0 skpd (  0.0%)    0.000 s ( 0.005 ms/b)
<sp|sp>:          630 b            0 skpd (  0.0%)    0.000 s ( 0.000 ms/b)
<sp|sd>:          980 b            0 skpd (  0.0%)    0.000 s ( 0.000 ms/b)
<sp|sf>:          980 b            0 skpd (  0.0%)    0.000 s ( 0.000 ms/b)
<sp|sg>:          490 b            0 skpd (  0.0%)    0.000 s ( 0.000 ms/b)
<sp|pp>:          525 b            1 skpd (  0.2%)    0.000 s ( 0.001 ms/b)
<sp|pd>:          700 b            8 skpd (  1.1%)    0.000 s ( 0.001 ms/b)
<sp|pf>:          700 b           13 skpd (  1.9%)    0.000 s ( 0.001 ms/b)
<sp|pg>:          350 b            7 skpd (  2.0%)    0.000 s ( 0.001 ms/b)
<sp|dd>:          350 b            0 skpd (  0.0%)    0.001 s ( 0.002 ms/b)
<sp|df>: done
<sp|dg>: done
<sp|ff>: done
<sp|fg>: done
<sp|gg>:          105 b          104 skpd ( 99.0%)    0.000 s ( 0.072 ms/b)
<sd|sd>:          406 b            0 skpd (  0.0%)    0.000 s ( 0.001 ms/b)
<sd|sf>:          784 b            0 skpd (  0.0%)    0.001 s ( 0.001 ms/b)
<sd|sg>:          392 b            0 skpd (  0.0%)    0.000 s ( 0.001 ms/b)
<sd|pp>:          420 b            1 skpd (  0.2%)    0.001 s ( 0.001 ms/b)
<sd|pd>:          560 b            0 skpd (  0.0%)    0.001 s ( 0.002 ms/b)
<sd|pf>: done
<sd|pg>: done
<sd|dd>:          280 b            0 skpd (  0.0%)    0.002 s ( 0.006 ms/b)
<sd|df>:          448 b            0 skpd (  0.0%)    0.002 s ( 0.004 ms/b)
<sd|dg>:          224 b            0 skpd (  0.0%)    0.001 s ( 0.006 ms/b)
<sd|ff>: done
<sd|fg>: done
<sd|gg>: done
<sf|sf>:          406 b            0 skpd (  0.0%)    0.000 s ( 0.001 ms/b)
<sf|sg>:          392 b            0 skpd (  0.0%)    0.000 s ( 0.001 ms/b)
<sf|pp>:          420 b            4 skpd (  1.0%)    0.001 s ( 0.003 ms/b)
<sf|pd>: done
<sf|pf>: done
<sf|pg>: done
<sf|dd>:          280 b            0 skpd (  0.0%)    0.004 s ( 0.015 ms/b)
<sf|df>: done
<sf|dg>: done
<sf|ff>: done
<sf|fg>: done
<sf|gg>: done
<sg|sg>:          105 b            0 skpd (  0.0%)    0.000 s ( 0.003 ms/b)
<sg|pp>:          210 b            1 skpd (  0.5%)    0.001 s ( 0.006 ms/b)
<sg|pd>: done
<sg|pf>: done
<sg|pg>: done
<sg|dd>:          140 b            0 skpd (  0.0%)    0.004 s ( 0.029 ms/b)
<sg|df>: done
<sg|dg>: done
<sg|ff>: done
<sg|fg>: done
<sg|gg>: done
<pp|pp>:          120 b            0 skpd (  0.0%)    0.001 s ( 0.005 ms/b)
<pp|pd>:          300 b            0 skpd (  0.0%)    0.001 s ( 0.004 ms/b)
<pp|pf>:          300 b            0 skpd (  0.0%)    0.001 s ( 0.002 ms/b)
<pp|pg>:          150 b            0 skpd (  0.0%)    0.001 s ( 0.004 ms/b)
<pp|dd>:          150 b            0 skpd (  0.0%)    0.001 s ( 0.009 ms/b)
<pp|df>:          240 b            0 skpd (  0.0%)    0.001 s ( 0.003 ms/b)
<pp|dg>:          120 b            0 skpd (  0.0%)    0.001 s ( 0.009 ms/b)
<pp|ff>:          150 b            0 skpd (  0.0%)    0.001 s ( 0.003 ms/b)
<pp|fg>:          120 b            0 skpd (  0.0%)    0.001 s ( 0.007 ms/b)
<pp|gg>:           45 b            0 skpd (  0.0%)    0.001 s ( 0.025 ms/b)
<pd|pd>:          210 b            0 skpd (  0.0%)    0.002 s ( 0.010 ms/b)
<pd|pf>:          400 b            3 skpd (  0.8%)    0.001 s ( 0.003 ms/b)
<pd|pg>:          200 b            2 skpd (  1.0%)    0.001 s ( 0.007 ms/b)
<pd|dd>:          200 b            0 skpd (  0.0%)    0.003 s ( 0.013 ms/b)
<pd|df>:          320 b            0 skpd (  0.0%)    0.001 s ( 0.005 ms/b)
<pd|dg>:          160 b            0 skpd (  0.0%)    0.002 s ( 0.014 ms/b)
<pd|ff>: done
<pd|fg>: done
<pd|gg>: done
<pf|pf>:          210 b            4 skpd (  1.9%)    0.001 s ( 0.004 ms/b)
<pf|pg>:          200 b            3 skpd (  1.5%)    0.001 s ( 0.008 ms/b)
<pf|dd>:          200 b            0 skpd (  0.0%)    0.002 s ( 0.012 ms/b)
<pf|df>: done
<pf|dg>: done
<pf|ff>: done
<pf|fg>: done
<pf|gg>: done
<pg|pg>:           55 b            2 skpd (  3.6%)    0.001 s ( 0.021 ms/b)
<pg|dd>:          100 b            0 skpd (  0.0%)    0.002 s ( 0.024 ms/b)
<pg|df>: done
<pg|dg>: done
<pg|ff>: done
<pg|fg>: done
<pg|gg>: done
<dd|dd>:           55 b            0 skpd (  0.0%)    0.002 s ( 0.044 ms/b)
<dd|df>:          160 b            0 skpd (  0.0%)    0.001 s ( 0.009 ms/b)
<dd|dg>:           80 b            0 skpd (  0.0%)    0.002 s ( 0.028 ms/b)
<dd|ff>:          100 b            0 skpd (  0.0%)    0.001 s ( 0.009 ms/b)
<dd|fg>:           80 b            0 skpd (  0.0%)    0.001 s ( 0.018 ms/b)
<dd|gg>:           30 b            0 skpd (  0.0%)    0.002 s ( 0.068 ms/b)
<df|df>:          136 b            0 skpd (  0.0%)    0.002 s ( 0.018 ms/b)
<df|dg>:          128 b            0 skpd (  0.0%)    0.004 s ( 0.030 ms/b)
<df|ff>: done
<df|fg>: done
<df|gg>: done
<dg|dg>:           36 b            0 skpd (  0.0%)    0.003 s ( 0.091 ms/b)
<dg|ff>: done
<dg|fg>: done
<dg|gg>: done
<ff|ff>: done
<ff|fg>: done
<ff|gg>: done
<fg|fg>: done
<fg|gg>: done
<gg|gg>: done
Recanonicalizing the internal orbitals
Recanonicalizing the virtual orbitals
Time needed for Fock operator              ...            0.109 sec
Reference energy                           ...   -166.884913420

------------------------------
PARTIAL COULOMB TRANSFORMATION
------------------------------

Transformation type                        ... one-operator
Dimension of the basis                     ...   88
Number of internal MOs                     ...   88 (0-87)
Pair cutoff                                ... 0.000e+00 Eh
Number of AO pairs included in the trafo   ... 3916
Total Number of distinct AO pairs          ... 3916
Memory devoted for trafo                   ... 2500.0 MB 
Max. Number of MO pairs treated together   ... 83677      
Max. Number of MOs treated per batch       ...  950      
Number Format for Storage                  ... Double (8 Byte)
AO-integral source                         ... DIRECT
Integral package used                      ... LIBINT

Starting integral evaluation:
<ss|**>: <sp|**>:         7084 b        0 skpd     0.029 s (  0.004 ms/b)
<sd|**>:         8855 b        0 skpd     0.013 s (  0.001 ms/b)
        7084 b        0 skpd     0.020 s (  0.003 ms/b)
<sf|**>:         7084 b        0 skpd     0.035 s (  0.005 ms/b)
<sg|**>:         3542 b        0 skpd     0.018 s (  0.005 ms/b)
<pp|**>:         3795 b        0 skpd     0.015 s (  0.004 ms/b)
<pd|**>:         5060 b        0 skpd     0.036 s (  0.007 ms/b)
<pf|**>:         5060 b        0 skpd     0.053 s (  0.011 ms/b)
<pg|**>:         2530 b        0 skpd     0.052 s (  0.020 ms/b)
<dd|**>:         2530 b        0 skpd     0.039 s (  0.015 ms/b)
<df|**>:         4048 b        0 skpd     0.072 s (  0.018 ms/b)
<dg|**>:         2024 b        0 skpd     0.077 s (  0.038 ms/b)
<ff|**>:         2530 b        0 skpd     0.062 s (  0.024 ms/b)
<fg|**>:         2024 b        0 skpd     0.082 s (  0.041 ms/b)
<gg|**>:          759 b        0 skpd     0.078 s (  0.103 ms/b)
Closing buffer AOJ ( 0.00 GB; CompressionRatio= 1.00)
Collecting buffer AOJ 
    ... done with AO integral generation
Number of MO pairs included in the trafo   ... 3916
    ... Now sorting integrals
IBATCH = 1 of  1
Closing buffer JAO ( 0.00 GB; CompressionRatio= 1.00)
Collecting buffer JAO 
TOTAL TIME for half transformation         ...     1.383 sec
AO-integral generation                     ...     0.492 sec
Half transformation                        ...     0.199 sec
J-integral sorting                         ...     0.641 sec

-------------------------- SECOND HALF TRANSFORMATION -------------------------
Formation of (pq|rs)                       ... ok (     0.756 sec)
Integral sorting                           ... ok (     0.778 sec)

------------------
CLOSED SHELL GUESS
------------------

Initial guess performed in     0.008 sec
E(0)                                       ...   -166.884913420
E(MP2)                                     ...     -0.793428182
Initial E(tot)                             ...   -167.678341602
<T|T>                                      ...      0.143256143
Number of pairs included                   ... 55
Total number of pairs                      ... 55

------------------------------------------------
                  RHF COUPLED CLUSTER ITERATIONS
------------------------------------------------

Number of amplitudes to be optimized       ... 335400

Iter       E(tot)           E(Corr)          Delta-E          Residual     Time
  0   -167.678341602     -0.793428182      0.000000000      0.024367021    0.12
                           *** Turning on DIIS ***
  1   -167.623216054     -0.738302634      0.055125548      0.006674084    0.17
  2   -167.638868401     -0.753954981     -0.015652347      0.004774596    0.18
  3   -167.640540619     -0.755627199     -0.001672218      0.002449969    0.18
  4   -167.641462977     -0.756549557     -0.000922358      0.000952445    0.18
  5   -167.641777166     -0.756863746     -0.000314189      0.000250811    0.19
  6   -167.641808578     -0.756895158     -0.000031412      0.000078405    0.22
  7   -167.641813156     -0.756899735     -0.000004578      0.000017870    0.21
  8   -167.641812645     -0.756899224      0.000000511      0.000003724    0.19
               --- The Coupled-Cluster iterations have converged ---

----------------------
COUPLED CLUSTER ENERGY
----------------------

E(0)                                       ...   -166.884913420
E(CORR)                                    ...     -0.756899224
E(TOT)                                     ...   -167.641812645
Singles Norm <S|S>**1/2                    ...      0.077034551  
T1 diagnostic                              ...      0.017225449  

------------------
LARGEST AMPLITUDES
------------------
   9-> 13  -1-> -1       0.059908
   9-> 10   9-> 10       0.052659
   9-> 11   9-> 11       0.052659
   9-> 12   9-> 12       0.052659
   9-> 12   9-> 16       0.045696
   9-> 16   9-> 12       0.045696
   9-> 15   9-> 15       0.043948
   9-> 16   9-> 16       0.043948
   9-> 14   9-> 14       0.043948
   9-> 22  -1-> -1       0.037613
   9-> 11   9-> 14       0.034292
   9-> 14   9-> 11       0.034292
   9-> 15   9-> 10       0.034104
   9-> 10   9-> 15       0.034104
   9-> 10   9-> 14       0.030577
   9-> 14   9-> 10       0.030577


        !!!!!!!!!!!!!!!!!!!!!!!!!!!!!!!!!!!!!!!!!!!!!!!!!!!!!!!!!!!!!!!!!!!!!!!!!! 
        !  Warning: Densities are linearized densities !                         !
        !!!!!!!!!!!!!!!!!!!!!!!!!!!!!!!!!!!!!!!!!!!!!!!!!!!!!!!!!!!!!!!!!!!!!!!!!! 

Trace of internal density part =     -0.285839773
Trace of external density part =      0.285839773
----------------------
RHF TRIPLES CORRECTION (Algorithm 1)
----------------------

Multiplier for the singles contribution    ...      1.000000000

10% done
20% done
30% done
40% done
50% done
60% done
70% done
80% done

Triples Correction (T)                     ...     -0.025899700
Scaling of triples based on CCSD energies (Peterson et al. Molecular Physics 113, 1551 (2015))
E(T*) = f*E(T) where f = E(F12-CCSD)/E(CCSD) 
f = CCSD (with F12)/ CCSD (without F12)    ...      1.000000000
Scaled triples correction (T)              ...     -0.025899700

Final correlation energy                   ...     -0.782798924
E(CCSD)                                    ...   -167.641812645
E(CCSD(T))                                 ...   -167.667712344

NORM  =      1.148854208 sqrt=     1.071846168
W(HF) =      0.870432465
------------------------------------------------------------------------------
                           ORCA POPULATION ANALYSIS
------------------------------------------------------------------------------
Input electron density              ... 48_Cd.mdcip
BaseName (.gbw .S,...)              ... 48_Cd

                    ********************************
                    * MULLIKEN POPULATION ANALYSIS *
                    ********************************

-----------------------
MULLIKEN ATOMIC CHARGES
-----------------------
   0 Cd:   -0.000000
Sum of atomic charges:   -0.0000000

--------------------------------
MULLIKEN REDUCED ORBITAL CHARGES
--------------------------------
  0 Cds       :     3.914777  s :     3.914777
      pz      :     2.025232  p :     6.075696
      px      :     2.025232
      py      :     2.025232
      dz2     :     1.979573  d :     9.897865
      dxz     :     1.979573
      dyz     :     1.979573
      dx2y2   :     1.979573
      dxy     :     1.979573
      f0      :     0.014289  f :     0.100020
      f+1     :     0.014289
      f-1     :     0.014289
      f+2     :     0.014289
      f-2     :     0.014289
      f+3     :     0.014289
      f-3     :     0.014289
      g0      :     0.001294  g :     0.011643
      g+1     :     0.001294
      g-1     :     0.001294
      g+2     :     0.001294
      g-2     :     0.001294
      g+3     :     0.001294
      g-3     :     0.001294
      g+4     :     0.001294
      g-4     :     0.001294


                     *******************************
                     * LOEWDIN POPULATION ANALYSIS *
                     *******************************

----------------------
LOEWDIN ATOMIC CHARGES
----------------------
   0 Cd:   -0.000000

-------------------------------
LOEWDIN REDUCED ORBITAL CHARGES
-------------------------------
  0 Cds       :     3.914777  s :     3.914777
      pz      :     2.025232  p :     6.075696
      px      :     2.025232
      py      :     2.025232
      dz2     :     1.979573  d :     9.897865
      dxz     :     1.979573
      dyz     :     1.979573
      dx2y2   :     1.979573
      dxy     :     1.979573
      f0      :     0.014289  f :     0.100020
      f+1     :     0.014289
      f-1     :     0.014289
      f+2     :     0.014289
      f-2     :     0.014289
      f+3     :     0.014289
      f-3     :     0.014289
      g0      :     0.001294  g :     0.011643
      g+1     :     0.001294
      g-1     :     0.001294
      g+2     :     0.001294
      g-2     :     0.001294
      g+3     :     0.001294
      g-3     :     0.001294
      g+4     :     0.001294
      g-4     :     0.001294


                      *****************************
                      * MAYER POPULATION ANALYSIS *
                      *****************************

  NA   - Mulliken gross atomic population
  ZA   - Total nuclear charge
  QA   - Mulliken gross atomic charge
  VA   - Mayer's total valence
  BVA  - Mayer's bonded valence
  FA   - Mayer's free valence

  ATOM       NA         ZA         QA         VA         BVA        FA
  0 Cd    20.0000    20.0000    -0.0000     1.0772     0.0000     1.0772





------------------------------------------------------------------------------- 
                                     TIMINGS                                   
------------------------------------------------------------------------------- 


Total execution time                   ...        5.351 sec

Fock Matrix Formation                  ...        0.109 sec (  2.0%)
Initial Guess                          ...        0.008 sec (  0.1%)
DIIS Solver                            ...        0.185 sec (  3.5%)
State Vector Update                    ...        0.009 sec (  0.2%)
Sigma-vector construction              ...        1.427 sec ( 26.7%)
  <D|H|D>(0-ext)                       ...        0.019 sec (  1.4% of sigma)
  <D|H|D>(2-ext Fock)                  ...        0.001 sec (  0.1% of sigma)
  <D|H|D>(2-ext)                       ...        0.044 sec (  3.1% of sigma)
  <D|H|D>(4-ext)                       ...        0.181 sec ( 12.7% of sigma)
  <D|H|D>(4-ext-corr)                  ...        0.142 sec (  9.9% of sigma)
  <S|H|0>                              ...        0.003 sec (  0.2% of sigma)
  <S|H|S>                              ...        0.003 sec (  0.2% of sigma)
  <S|H|D>(1-ext)                       ...        0.011 sec (  0.7% of sigma)
  <D|H|S>(1-ext)                       ...        0.011 sec (  0.8% of sigma)
  <S|H|D>(3-ext)                       ...        0.146 sec ( 10.3% of sigma)
  Fock-dressing                        ...        0.391 sec ( 27.4% of sigma)
  (ik|jl)-dressing                     ...        0.025 sec (  1.7% of sigma)
  (ij|ab),(ia|jb)-dressing             ...        0.358 sec ( 25.1% of sigma)
  Pair energies                        ...        0.001 sec (  0.1% of sigma)
Total Time for computing (T)           ...        0.291 sec (  5.4% of ALL)
  I/O of integral and amplitudes       ...        0.100 sec ( 34.3% of (T))
  N**6 sorting step                    ...        0.062 sec ( 21.4% of (T))
  External N**7 contributions          ...        0.072 sec ( 24.7% of (T))
  Internal N**7 contributions          ...        0.029 sec (  9.8% of (T))
  N**6 triples energy contributions    ...        0.028 sec (  9.7% of (T))
One-particle density matrix            ...        0.001 sec (  0.0%)


-------------------------   --------------------
FINAL SINGLE POINT ENERGY      -167.667712344221
-------------------------   --------------------


                            ***************************************
                            *     ORCA property calculations      *
                            ***************************************

                                    ---------------------
                                    Active property flags
                                    ---------------------
   (+) Dipole Moment


------------------------------------------------------------------------------
                       ORCA ELECTRIC PROPERTIES CALCULATION
------------------------------------------------------------------------------

Dipole Moment Calculation                       ... on
Quadrupole Moment Calculation                   ... off
Polarizability Calculation                      ... off
GBWName                                         ... 48_Cd.gbw
Electron density file                           ... 48_Cd.scfp
The origin for moment calculation is the CENTER OF MASS  = ( 0.000000,  0.000000  0.000000)

-------------
DIPOLE MOMENT
-------------
                                X             Y             Z
Electronic contribution:      0.00000       0.00000      -0.00000
Nuclear contribution   :      0.00000       0.00000       0.00000
                        -----------------------------------------
Total Dipole Moment    :      0.00000       0.00000      -0.00000
                        -----------------------------------------
Magnitude (a.u.)       :      0.00000
Magnitude (Debye)      :      0.00000



--------------------
Rotational spectrum 
--------------------
 
Rotational constants in cm-1:     0.000000     0.000000     0.000000 
Rotational constants in MHz :     0.000000     0.000000     0.000000 

 Dipole components along the rotational axes: 
x,y,z [a.u.] :     0.000000     0.000000    -0.000000 
x,y,z [Debye]:     0.000000     0.000000    -0.000000 

 

                           *** MDCI DENSITY ***

------------------------------------------------------------------------------
                       ORCA ELECTRIC PROPERTIES CALCULATION
------------------------------------------------------------------------------

Dipole Moment Calculation                       ... on
Quadrupole Moment Calculation                   ... off
Polarizability Calculation                      ... off
GBWName                                         ... 48_Cd.gbw
Electron density file                           ... 48_Cd.mdcip
The origin for moment calculation is the CENTER OF MASS  = ( 0.000000,  0.000000  0.000000)

-------------
DIPOLE MOMENT
-------------
                                X             Y             Z
Electronic contribution:     -0.00000      -0.00000      -0.00000
Nuclear contribution   :      0.00000       0.00000       0.00000
                        -----------------------------------------
Total Dipole Moment    :     -0.00000      -0.00000      -0.00000
                        -----------------------------------------
Magnitude (a.u.)       :      0.00000
Magnitude (Debye)      :      0.00000



--------------------
Rotational spectrum 
--------------------
 
Rotational constants in cm-1:     0.000000     0.000000     0.000000 
Rotational constants in MHz :     0.000000     0.000000     0.000000 

 Dipole components along the rotational axes: 
x,y,z [a.u.] :    -0.000000    -0.000000    -0.000000 
x,y,z [Debye]:    -0.000000    -0.000000    -0.000000 

 

Timings for individual modules:

Sum of individual times         ...       11.876 sec (=   0.198 min)
GTO integral calculation        ...        0.865 sec (=   0.014 min)   7.3 %
SCF iterations                  ...        5.202 sec (=   0.087 min)  43.8 %
MDCI module                     ...        5.809 sec (=   0.097 min)  48.9 %
                             ****ORCA TERMINATED NORMALLY****
TOTAL RUN TIME: 0 days 0 hours 0 minutes 12 seconds 628 msec
