
                                 *****************
                                 * O   R   C   A *
                                 *****************

           --- An Ab Initio, DFT and Semiempirical electronic structure package ---

                  #######################################################
                  #                        -***-                        #
                  #          Department of theory and spectroscopy      #
                  #               Directorship: Frank Neese             #
                  #        Max Planck Institute fuer Kohlenforschung    #
                  #                Kaiser Wilhelm Platz 1               #
                  #                 D-45470 Muelheim/Ruhr               #
                  #                      Germany                        #
                  #                                                     #
                  #                  All rights reserved                #
                  #                        -***-                        #
                  #######################################################


                         Program Version 4.2.0 -  RELEASE  -


 With contributions from (in alphabetic order):
   Daniel Aravena         : Magnetic Suceptibility
   Michael Atanasov       : Ab Initio Ligand Field Theory (pilot matlab implementation)
   Alexander A. Auer      : GIAO ZORA, VPT2
   Ute Becker             : Parallelization
   Giovanni Bistoni       : ED, misc. LED, open-shell LED, HFLED
   Martin Brehm           : Molecular dynamics
   Dmytro Bykov           : SCF Hessian
   Vijay G. Chilkuri      : MRCI spin determinant printing, contributions to CSF-ICE
   Dipayan Datta          : RHF DLPNO-CCSD density
   Achintya Kumar Dutta   : EOM-CC, STEOM-CC
   Dmitry Ganyushin       : Spin-Orbit,Spin-Spin,Magnetic field MRCI
   Miquel Garcia          : C-PCM Hessian, Gaussian charge scheme
   Yang Guo               : DLPNO-NEVPT2, CIM, IAO-localization
   Andreas Hansen         : Spin unrestricted coupled pair/coupled cluster methods
   Benjamin Helmich-Paris : CASSCF linear response (MC-RPA)
   Lee Huntington         : MR-EOM, pCC
   Robert Izsak           : Overlap fitted RIJCOSX, COSX-SCS-MP3, EOM
   Christian Kollmar      : KDIIS, OOCD, Brueckner-CCSD(T), CCSD density
   Simone Kossmann        : Meta GGA functionals, TD-DFT gradient, OOMP2, MP2 Hessian
   Martin Krupicka        : AUTO-CI
   Lucas Lang             : DCDCAS
   Dagmar Lenk            : GEPOL surface, SMD
   Dimitrios Liakos       : Extrapolation schemes; Compound Job, initial MDCI parallelization
   Dimitrios Manganas     : Further ROCIS development; embedding schemes
   Dimitrios Pantazis     : SARC Basis sets
   Taras Petrenko         : DFT Hessian,TD-DFT gradient, ASA, ECA, R-Raman, ABS, FL, XAS/XES, NRVS
   Peter Pinski           : DLPNO-MP2, DLPNO-MP2 Gradient
   Christoph Reimann      : Effective Core Potentials
   Marius Retegan         : Local ZFS, SOC
   Christoph Riplinger    : Optimizer, TS searches, QM/MM, DLPNO-CCSD(T), (RO)-DLPNO pert. Triples
   Tobias Risthaus        : Range-separated hybrids, TD-DFT gradient, RPA, STAB
   Michael Roemelt        : Original ROCIS implementation
   Masaaki Saitow         : Open-shell DLPNO-CCSD energy and density
   Barbara Sandhoefer     : DKH picture change effects
   Avijit Sen             : IP-ROCIS
   Kantharuban Sivalingam : CASSCF convergence, NEVPT2, FIC-MRCI
   Bernardo de Souza      : ESD, SOC TD-DFT
   Georgi Stoychev        : AutoAux, RI-MP2 NMR
   Willem Van den Heuvel  : Paramagnetic NMR
   Boris Wezisla          : Elementary symmetry handling
   Frank Wennmohs         : Technical directorship


 We gratefully acknowledge several colleagues who have allowed us to
 interface, adapt or use parts of their codes:
   Stefan Grimme, W. Hujo, H. Kruse,             : VdW corrections, initial TS optimization,
                  C. Bannwarth                     DFT functionals, gCP, sTDA/sTD-DF
   Ed Valeev, F. Pavosevic, A. Kumar             : LibInt (2-el integral package), F12 methods
   Garnet Chan, S. Sharma, J. Yang, R. Olivares  : DMRG
   Ulf Ekstrom                                   : XCFun DFT Library
   Mihaly Kallay                                 : mrcc  (arbitrary order and MRCC methods)
   Andreas Klamt, Michael Diedenhofen            : otool_cosmo (COSMO solvation model)
   Jiri Pittner, Ondrej Demel                    : Mk-CCSD
   Frank Weinhold                                : gennbo (NPA and NBO analysis)
   Christopher J. Cramer and Donald G. Truhlar   : smd solvation model
   Lars Goerigk                                  : TD-DFT with DH, B97 family of functionals
   V. Asgeirsson, H. Jonsson                     : NEB implementation
   FAccTs GmbH                                   : IRC, NEB, NEB-TS, Multilevel, MM, QM/MM, CI optimization
   S Lehtola, MJT Oliveira, MAL Marques          : LibXC Library


 Your calculation uses the libint2 library for the computation of 2-el integrals
 For citations please refer to: http://libint.valeyev.net

 Your ORCA version has been built with support for libXC version: 4.2.3
 For citations please refer to: https://tddft.org/programs/libxc/

 This ORCA versions uses:
   CBLAS   interface :  Fast vector & matrix operations
   LAPACKE interface :  Fast linear algebra routines
   SCALAPACK package :  Parallel linear algebra routines


----- Orbital basis set information -----
Your calculation utilizes the basis: def2-SVP
   F. Weigend and R. Ahlrichs, Phys. Chem. Chem. Phys. 7, 3297 (2005).

----- AuxJ basis set information -----
Your calculation utilizes the auxiliary basis: def2/J
   F. Weigend, Phys. Chem. Chem. Phys. 8, 1057 (2006).

================================================================================
                                        WARNINGS
                       Please study these warnings very carefully!
================================================================================


INFO   : the flag for use of LIBINT has been found!

================================================================================
                                       INPUT FILE
================================================================================
NAME = 48_Cd_atom48.inp
|  1> # input to generate an atomic fitting density for Cd
|  2> # this file is use internally by ORCA
|  3> #
|  4> # atomic ground state (S=1): 1s2 2s2 2p6 3s2 3p6 4s2 3d10 4p6 5s2 4d10 
|  5> #
|  6> ! RHF AllowRHF def2-SVP def2/J  NoMulliken NoLoewdin NoMayer NoPrintMOs 
|  7> 
|  8> %output print[p_atomdensfit] 2 end
|  9> 
| 10> %scf
| 11>   guess hcore
| 12>   maxiter 1000
| 13>   maxdisk 500000
| 14>   SCFMode Conventional
| 15>   lshift 1.000000
| 16>   hftyp rohf
| 17>   rohf_case sahf
| 18>   rohf_numop   2
| 19>   rohf_norb[1] 5
| 20>   rohf_nel[1]  10
| 21> end
| 22> 
| 23> %basis
| 24>   NewECP 48
| 25>     N_core 28
| 26>     lmax f
| 27>     s 4
| 28>       1      13.8358689000    270.0094832000  2
| 29>       2       6.8572704000     38.7673080000  2
| 30>       3      15.1847957000     35.4766256000  2
| 31>       4       7.5923978000      5.6176768000  2
| 32>     p 4
| 33>       1      12.4049710000    193.8296294000  2
| 34>       2       6.5677995000     31.8965252000  2
| 35>       3      15.1847957000     35.4766256000  2
| 36>       4       7.5923978000      5.6176768000  2
| 37>     d 4
| 38>       1      10.8969253000     79.1936470000  2
| 39>       2       4.6411649000     13.2308267000  2
| 40>       3      15.1847957000     35.4766256000  2
| 41>       4       7.5923978000      5.6176768000  2
| 42>     f 2
| 43>       1      15.1847957000    -35.4766256000  2
| 44>       2       7.5923978000     -5.6176768000  2
| 45>   end
| 46>   NewGTO 48
| 47>     s 4 
| 48>      1     269.3001628900      0.0056022022
| 49>      2      18.5542690930     -3.8835034280
| 50>      3      16.7299431830      5.9019436241
| 51>      4      11.7685466460     -1.0539281102
| 52>     s 1 
| 53>      1       6.1816604427      1.0000000000
| 54>     s 1 
| 55>      1       1.5775743989      1.0000000000
| 56>     s 1 
| 57>      1       0.7185798119      1.0000000000
| 58>     s 1 
| 59>      1       0.1643313841      1.0000000000
| 60>     s 1 
| 61>      1       0.0767941588      1.0000000000
| 62>     s 1 
| 63>      1       0.0343771998      1.0000000000
| 64>     p 4 
| 65>      1      14.1076781800      0.0859782162
| 66>      2       8.2750040714     -0.3237584015
| 67>      3       2.2507338323      0.5808106806
| 68>      4       1.1914970238      0.5665293787
| 69>     p 1 
| 70>      1       0.6604125770      1.0000000000
| 71>     p 1 
| 72>      1       0.3380440377      1.0000000000
| 73>     p 1 
| 74>      1       0.0960040379      1.0000000000
| 75>     p 1 
| 76>      1       0.0336810300      1.0000000000
| 77>     d 4 
| 78>      1      35.6891925480      0.0046039568
| 79>      2       9.3407971610     -0.0405812523
| 80>      3       3.5922659140      0.3234869180
| 81>      4       1.7980676976      0.7369880702
| 82>     d 1 
| 83>      1       0.8483005779      1.0000000000
| 84>     d 1 
| 85>      1       0.3784649275      1.0000000000
| 86>     d 1 
| 87>      1       0.1542010163      1.0000000000
| 88>   end
| 89>   NewAuxGTO 48
| 90>     S 1
| 91>      1 1310.72 1.0
| 92>     S 1
| 93>      1  655.36 1.0
| 94>     S 1
| 95>      1  327.68 1.0
| 96>     S 1
| 97>      1  163.84 1.0
| 98>     S 1
| 99>      1   81.82 1.0
|100>     S 1
|101>      1   40.96 1.0
|102>     S 1
|103>      1   20.48 1.0
|104>     S 1
|105>      1   10.24 1.0
|106>     S 1
|107>      1    5.12 1.0
|108>     S 1
|109>      1    2.56 1.0
|110>     S 1
|111>      1    1.28 1.0
|112>     S 1
|113>      1    0.64 1.0
|114>     S 1
|115>      1    0.32 1.0
|116>     S 1
|117>      1    0.16 1.0
|118>     S 1
|119>      1    0.08 1.0
|120>     S 1
|121>      1    0.04 1.0
|122>     S 1
|123>      1    0.02 1.0
|124>     S 1
|125>      1    0.01 1.0
|126>   end
|127> end
|128> 
|129> * xyz 0 1
|130> 48  0.0 0.0 0.0
|131> *
|132> 
|133> 
|134>                          ****END OF INPUT****
================================================================================

                       ****************************
                       * Single Point Calculation *
                       ****************************

---------------------------------
CARTESIAN COORDINATES (ANGSTROEM)
---------------------------------
  Cd     0.000000    0.000000    0.000000

----------------------------
CARTESIAN COORDINATES (A.U.)
----------------------------
  NO LB      ZA    FRAG     MASS         X           Y           Z
   0 Cd   20.0000*   0   112.410    0.000000    0.000000    0.000000
* core charge reduced due to ECP

--------------------------------
INTERNAL COORDINATES (ANGSTROEM)
--------------------------------
 Cd     0   0   0     0.000000000000     0.00000000     0.00000000

---------------------------
INTERNAL COORDINATES (A.U.)
---------------------------
 Cd     0   0   0     0.000000000000     0.00000000     0.00000000

---------------------
BASIS SET INFORMATION
---------------------
There are 1 groups of distinct atoms

 Group   1 Type Cd  : 10s8p7d contracted to 7s5p4d pattern {4111111/41111/4111}

Atom   0Cd   basis set group =>   1
---------------------------------
AUXILIARY/J BASIS SET INFORMATION
---------------------------------
There are 1 groups of distinct atoms

 Group   1 Type Cd  : 18s contracted to 18s pattern {111111111111111111}

Atom   0Cd   basis set group =>   1
-------------------------
ECP PARAMETER INFORMATION
-------------------------

 Group 1, Type Cd ECP (replacing 28 core electrons, lmax=3)

Atom   0Cd   ECP group =>   1

------------------------------------------------------------------------------
                           ORCA GTO INTEGRAL CALCULATION
------------------------------------------------------------------------------

                         BASIS SET STATISTICS AND STARTUP INFO

 # of primitive gaussian shells          ...   25
 # of primitive gaussian functions       ...   69
 # of contracted shells                  ...   16
 # of contracted basis functions         ...   42
 Highest angular momentum                ...    2
 Maximum contraction depth               ...    4
 Integral package used                   ... LIBINT
 Integral threshhold            Thresh   ...  1.000e-10
 Primitive cut-off              TCut     ...  1.000e-11
 Storage cut-off                TCutStore... -1.000e+00
 Buffer length                           ... 1048576 integrals/buffer
 Generate file with integrals 4 distinct ...false


------------------------------ INTEGRAL EVALUATION ----------------------------


 * One electron integrals 

   ECP integrals                         ... done
 Pre-screening matrix                    ... done
 Shell pair data                         ... done (   0.000 sec)
 Statistics run                          ... done
 Maximum amount of storage needed        ...     4 MB
 Maximum amount of storage dedicated     ... 500000 MB
 Beginning two electron integral evaluation:
 Starting repulsion integrals
  <ss|ss>  ...          406 b.         0 skpd (  0.0%)     0.000 s. (  0.000 ms/b)
  <ss|sp>  ...          980 b.         0 skpd (  0.0%)     0.001 s. (  0.001 ms/b)
  <ss|sd>  ...          784 b.         0 skpd (  0.0%)     0.001 s. (  0.001 ms/b)
  <ss|pp>  ...          420 b.         0 skpd (  0.0%)     0.001 s. (  0.002 ms/b)
  <ss|pd>  ...          560 b.         0 skpd (  0.0%)     0.001 s. (  0.003 ms/b)
  <ss|dd>  ...          280 b.         0 skpd (  0.0%)     0.001 s. (  0.005 ms/b)
  <sp|sp>  ...          630 b.         0 skpd (  0.0%)     0.001 s. (  0.002 ms/b)
  <sp|sd>  ...          980 b.         0 skpd (  0.0%)     0.002 s. (  0.002 ms/b)
  <sp|pp>  ...          525 b.         0 skpd (  0.0%)     0.001 s. (  0.003 ms/b)
  <sp|pd>  ...          700 b.         0 skpd (  0.0%)     0.003 s. (  0.004 ms/b)
  <sp|dd>  ...          350 b.         0 skpd (  0.0%)     0.003 s. (  0.007 ms/b)
  <sd|sd>  ...          406 b.         0 skpd (  0.0%)     0.001 s. (  0.003 ms/b)
  <sd|pp>  ...          420 b.         0 skpd (  0.0%)     0.002 s. (  0.004 ms/b)
  <sd|pd>  ...          560 b.         0 skpd (  0.0%)     0.003 s. (  0.006 ms/b)
  <sd|dd>  ...          280 b.         0 skpd (  0.0%)     0.003 s. (  0.012 ms/b)
  <pp|pp>  ...          120 b.         0 skpd (  0.0%)     0.001 s. (  0.004 ms/b)
  <pp|pd>  ...          300 b.         0 skpd (  0.0%)     0.002 s. (  0.007 ms/b)
  <pp|dd>  ...          150 b.         0 skpd (  0.0%)     0.002 s. (  0.014 ms/b)
  <pd|pd>  ...          210 b.         0 skpd (  0.0%)     0.003 s. (  0.013 ms/b)
  <pd|dd>  ...          200 b.         0 skpd (  0.0%)     0.005 s. (  0.026 ms/b)
  <dd|dd>  ...           55 b.         0 skpd (  0.0%)     0.004 s. (  0.070 ms/b)


                                      INTEGRAL STATISTICS

Integral type statistics:
 Number of integrals retained            ...     408156 
 One   Center Integrals retained         ...     408156 (100.0%)
 Two   Center Integrals retained         ...          0 (  0.0%)
 Three Center Integrals retained         ...          0 (  0.0%)
 Four  Center Integrals retained         ...          0 (  0.0%)

Storage statistics:
 Number of char integrals                ...          0 (  0.0%)
 Number of short int integrals           ...          0 (  0.0%)
 Number of double/float integrals        ...     408156 (100.0%)
 Amount of memory used                   ...          5 MB
 Amount of memory estimated              ...          4 MB ( 95.1%)

Prescreening statistics:
 Total number of shell quadruples        ...       9316 
 Number of skipped shell quadruples      ...          0 (  0.0%)
 # of negligible batches done            ...          0 (  0.0%)

Timings:
 Total evaluation time               ...     0.209 sec (   0.003 min)
 One electron matrix time            ...     0.016 sec (   0.000 min) =  7.7%
 Schwartz matrix evaluation time     ...     0.071 sec (   0.001 min) = 34.0%
 Statistics run                      ...     0.003 sec (   0.000 min) =  1.5%
 Repulsion integral time             ...     0.042 sec (   0.001 min) = 20.0%

-------------------------------------------------------------------------------
                                 ORCA SCF
-------------------------------------------------------------------------------

------------
SCF SETTINGS
------------
Hamiltonian:
 Ab initio Hamiltonian  Method          .... Hartree-Fock(GTOs)


General Settings:
 Integral files         IntName         .... 48_Cd_atom48
 Hartree-Fock type      HFTyp           .... ROHF
 Total Charge           Charge          ....    0
 Multiplicity           Mult            ....    1
 Number of Electrons    NEL             ....   20
 Basis Dimension        Dim             ....   42
 Nuclear Repulsion      ENuc            ....      0.0000000000 Eh

Convergence Acceleration:
 DIIS                   CNVDIIS         .... on
   Start iteration      DIISMaxIt       ....    12
   Startup error        DIISStart       ....  0.200000
   # of expansion vecs  DIISMaxEq       ....     5
   Bias factor          DIISBfac        ....   1.050
   Max. coefficient     DIISMaxC        ....  10.000
 Newton-Raphson         CNVNR           .... off
 SOSCF                  CNVSOSCF        .... off
 Level Shifting         CNVShift        .... on
   Level shift para.    LevelShift      ....    1.0000
   Turn off err/grad.   ShiftErr        ....    0.0010
 Zerner damping         CNVZerner       .... off
 Static damping         CNVDamp         .... on
   Fraction old density DampFac         ....    0.7000
   Max. Damping (<1)    DampMax         ....    0.9800
   Min. Damping (>=0)   DampMin         ....    0.0000
   Turn off err/grad.   DampErr         ....    0.1000
 Fernandez-Rico         CNVRico         .... off

SCF Procedure:
 Maximum # iterations   MaxIter         ....  1000
 SCF integral mode      SCFMode         .... Conventional
 Integral Threshold     Thresh          ....  1.000e-10 Eh
 Primitive CutOff       TCut            ....  1.000e-11 Eh
 Integral Buffer length BufferLength    .... 1048576
 Integral index format  IndFormat       ....     0
 Integral value format  ValFormat       ....     0
 Integral Storage       Thresh          ....  1.000e-10 Eh

Convergence Tolerance:
 Convergence Check Mode ConvCheckMode   .... Total+1el-Energy
 Convergence forced     ConvForced      .... 0
 Energy Change          TolE            ....  1.000e-06 Eh
 1-El. energy change                    ....  1.000e-03 Eh
 DIIS Error             TolErr          ....  1.000e-06


Diagonalization of the overlap matrix:
Smallest eigenvalue                        ... 8.862e-03
Time for diagonalization                   ...    0.001 sec
Threshold for overlap eigenvalues          ... 1.000e-08
Number of eigenvalues below threshold      ... 0
Time for construction of square roots      ...    0.002 sec
Total time needed                          ...    0.003 sec

--------------------
INITIAL GUESS: HCORE
--------------------
AVERAGE-CONFIGURATION (SAHF) CASE FOUND

-------------------
FINAL ROHF SETTINGS
-------------------
Number of operators             ... 2
  operator   0:   5 orbitals  10 electrons n(mue)= 2.000
  operator   1:   5 orbitals  10 electrons n(mue)= 2.000
Vector coupling coefficients a and b (Zerner convention):
   1.000    1.000           1.000    1.000 
   1.000    1.000           1.000    1.000 

                      -----------------
                      INTIAL GUESS DONE 
                      -----------------

 InCore treatment chosen:
   Memory dedicated               ...    1024 MB
   Memory needed                  ...      5 MB
   Number of tiny    integrals    ...       0
   Number of small   integrals    ...       0
   Number of regular integrals    ...  408156

--------------
SCF ITERATIONS
--------------
ITER       Energy         Delta-E        Max-DP      RMS-DP      [F,P]     Damp
  0   -147.1263243805   0.000000000000 2.60665261  0.09294077  1.8860301 0.7000
  1   -159.6666781410 -12.540353760529 1.84705129  0.06028868  0.8974623 0.7000
  2   -156.6103597266   3.056318414374 1.27364400  0.04489593  0.2668663 0.7000
                            ****Activating DIIS****
  3   -163.2490562598  -6.638696533231 3.04651867  0.10543677  0.0934431 0.0000
  4   -166.6407753436  -3.391719083798 0.02091848  0.00054052  0.1962771 0.7000
  5   -166.6631035770  -0.022328233338 0.03017569  0.00067356  0.1735490 0.7000
  6   -166.6771642949  -0.014060717872 0.06677463  0.00154521  0.1690993 0.7000
  7   -166.7047135084  -0.027549213553 0.14118603  0.00302168  0.1370430 0.7000
  8   -166.7498703544  -0.045156845993 0.28087938  0.00604793  0.1064647 0.7000
  9   -166.8108373125  -0.060966958119 0.71441260  0.01522433  0.0290997 0.0000
 10   -166.8612190695  -0.050381757008 0.00659742  0.00015417  0.0348540 0.0000
 11   -166.8616640731  -0.000445003613 0.00033393  0.00000923  0.0331472 0.0000
 12   -166.8617723828  -0.000108309677 0.00052509  0.00001175  0.0329417 0.0000
 13   -166.8617800967  -0.000007713834 0.00896688  0.00020777  0.0328770 0.0000
 14   -166.8620548899  -0.000274793202 0.02430185  0.00097211  0.0311832 0.0000
 15   -166.8703124857  -0.008257595882 0.03310368  0.00092041  0.0312537 0.0000
 16   -166.8742463195  -0.003933833784 0.05578132  0.00186277  0.0281801 0.0000
 17   -166.8807940725  -0.006547753003 0.05416687  0.00181378  0.0196302 0.0000
 18   -166.8839482483  -0.003154175815 0.04975681  0.00099726  0.0095699 0.0000
 19   -166.8844426133  -0.000494364931 0.06615120  0.00128913  0.0062316 0.0000
 20   -166.8847637071  -0.000321093862 0.05208951  0.00104412  0.0034567 0.0000
 21   -166.8848918957  -0.000128188580 0.02090585  0.00043103  0.0014960 0.0000
 22   -166.8849110437  -0.000019147983 0.00929370  0.00019450  0.0004707 0.0000
 23   -166.8849133842  -0.000002340460 0.00155351  0.00003267  0.0000858 0.0000
                 **** Energy Check signals convergence ****

               *****************************************************
               *                     SUCCESS                       *
               *           SCF CONVERGED AFTER  24 CYCLES          *
               *****************************************************


----------------
TOTAL SCF ENERGY
----------------

Total Energy       :         -166.88491339 Eh           -4541.16936 eV

Components:
Nuclear Repulsion  :            0.00000000 Eh               0.00000 eV
Electronic Energy  :         -166.88491339 Eh           -4541.16936 eV
One Electron Energy:         -297.37353482 Eh           -8091.94527 eV
Two Electron Energy:          130.48862143 Eh            3550.77591 eV

Virial components:
Potential Energy   :         -231.45134920 Eh           -6298.11140 eV
Kinetic Energy     :           64.56643581 Eh            1756.94204 eV
Virial Ratio       :            3.58470072


---------------
SCF CONVERGENCE
---------------

  Last Energy change         ...   -6.1425e-09  Tolerance :   1.0000e-06
  Last MAX-Density change    ...    4.7496e-04  Tolerance :   1.0000e-05
  Last RMS-Density change    ...    1.0231e-05  Tolerance :   1.0000e-06
  Last DIIS Error            ...    8.5500e-05  Tolerance :   1.0000e-06

             **** THE GBW FILE WAS UPDATED (48_Cd_atom48.gbw) ****
             **** DENSITY FILE WAS UPDATED (48_Cd_atom48.scfp) ****
             **** ENERGY FILE WAS UPDATED (48_Cd_atom48.en.tmp) ****
             **** THE GBW FILE WAS UPDATED (48_Cd_atom48.gbw) ****
             **** DENSITY FILE WAS UPDATED (48_Cd_atom48.scfp) ****
----------------
ORBITAL ENERGIES
----------------

  NO   OCC          E(Eh)            E(eV) 
   0   2.0000      -4.551371      -123.8491 
   1   2.0000      -3.170076       -86.2622 
   2   2.0000      -3.170076       -86.2622 
   3   2.0000      -3.170076       -86.2622 
   4   2.0000      -0.720368       -19.6022 
   5   2.0000      -0.720446       -19.6043 
   6   2.0000      -0.720368       -19.6022 
   7   2.0000      -0.720368       -19.6022 
   8   2.0000      -0.720367       -19.6022 
   9   2.0000      -0.534544       -14.5457 
  10   0.0000       0.041067         1.1175 
  11   0.0000       0.041067         1.1175 
  12   0.0000       0.041067         1.1175 
  13   0.0000       0.101795         2.7700 
  14   0.0000       0.203063         5.5256 
  15   0.0000       0.203063         5.5256 
  16   0.0000       0.203063         5.5256 
  17   0.0000       0.443245        12.0613 
  18   0.0000       0.443246        12.0613 
  19   0.0000       0.443246        12.0613 
  20   0.0000       0.443246        12.0613 
  21   0.0000       0.443246        12.0613 
  22   0.0000       0.547350        14.8941 
  23   0.0000       0.944965        25.7138 
  24   0.0000       0.944966        25.7138 
  25   0.0000       0.944966        25.7138 
  26   0.0000       1.657214        45.0951 
  27   0.0000       1.657214        45.0951 
  28   0.0000       1.657214        45.0951 
  29   0.0000       1.657215        45.0951 
  30   0.0000       1.657215        45.0951 
  31   0.0000       3.139398        85.4274 
  32   0.0000       5.107118       138.9718 
  33   0.0000       5.107118       138.9718 
  34   0.0000       5.107118       138.9718 
  35   0.0000       5.107119       138.9718 
  36   0.0000       5.107119       138.9718 
  37   0.0000       5.170144       140.6868 
  38   0.0000       5.170144       140.6868 
  39   0.0000       5.170144       140.6868 
  40   0.0000      37.473589      1019.7082 
  41   0.0000     116.104216      3159.3563 
CleanUpVectors: The d-vectors have cracked symmetry at i=4
CleanUpVectors: The d-vectors have cracked symmetry at i=5
CleanUpVectors: The d-vectors have cracked symmetry at i=6
CleanUpVectors: The d-vectors have cracked symmetry at i=7
CleanUpVectors: The d-vectors have cracked symmetry at i=8
--------------------------
ATOM BASIS FOR ELEMENT Cd
--------------------------
 NewGTO Cd
 S 10
    1        269.300162890000         0.000827542336
    2         18.554269093000        -0.573660746721
    3         16.729943183000         0.871819337688
    4         11.768546646000        -0.155683443544
    5          6.181660442700        -0.693917913554
    6          1.577574398900         0.921130384612
    7          0.718579811900         0.512562547946
    8          0.164331384100        -0.068059103500
    9          0.076794158800        -0.141666183669
   10          0.034377199800        -0.056685420609
 D 25
    1        269.300162890000         0.000000000010
    2         18.554269093000        -0.000000099354
    3         16.729943183000         0.000000167458
    4         11.768546646000        -0.000000042510
    5          6.181660442700        -0.000000387482
    6          1.577574398900         0.000002561706
    7          0.718579811900         0.000004248085
    8          0.164331384100        -0.000024770549
    9          0.076794158800        -0.000077981684
   10          0.034377199800        -0.000074498984
   11         35.689192548000         0.000681239501
   12          9.340797161000        -0.006004737502
   13          3.592265914000         0.047865798070
   14          1.798067697600         0.109050846216
   15         35.689192548000         0.002117682105
   16          9.340797161000        -0.018666159464
   17          3.592265914000         0.148794284393
   18          1.798067697600         0.338992417962
   19         35.689192548000        -0.000380215363
   20          9.340797161000         0.003351381488
   21          3.592265914000        -0.026714997867
   22          1.798067697600        -0.060863774169
   23         35.689192548000        -0.000269641847
   24          9.340797161000         0.002376739035
   25          3.592265914000        -0.018945792500
 S 10
    1        269.300162890000         0.000208565856
    2         18.554269093000        -0.144579968634
    3         16.729943183000         0.219725008583
    4         11.768546646000        -0.039236966296
    5          6.181660442700        -0.199981243443
    6          1.577574398900         0.160181160135
    7          0.718579811900         1.055689544689
    8          0.164331384100        -4.573240675674
    9          0.076794158800         5.484430696463
   10          0.034377199800        -2.026809373961
 S 10
    1        269.300162890000         0.001263813347
    2         18.554269093000        -0.876088240229
    3         16.729943183000         1.331432686859
    4         11.768546646000        -0.237758003955
    5          6.181660442700        -1.142483617318
    6          1.577574398900         4.285905093706
    7          0.718579811900        -4.743272273761
    8          0.164331384100         3.382363259288
    9          0.076794158800        -2.685617913761
   10          0.034377199800         0.844244940908
 S 10
    1        269.300162890000         0.008472502652
    2         18.554269093000        -5.873224834968
    3         16.729943183000         8.925817244739
    4         11.768546646000        -1.593910464059
    5          6.181660442700        -3.092651010693
    6          1.577574398900         2.562933284947
    7          0.718579811900        -1.732318777367
    8          0.164331384100         0.868508593783
    9          0.076794158800        -0.681557269635
   10          0.034377199800         0.217966598871
 S 10
    1        269.300162890000         0.009579140454
    2         18.554269093000        -6.640357392144
    3         16.729943183000        10.091664832776
    4         11.768546646000        -1.802099430863
    5          6.181660442700        -1.203122051355
    6          1.577574398900         0.779666834447
    7          0.718579811900        -0.504760778362
    8          0.164331384100         0.250619795828
    9          0.076794158800        -0.197138713836
   10          0.034377199800         0.063196715258
 P 8
    1         14.107678180000        -0.067208183598
    2          8.275004071400         0.253078222031
    3          2.250733832300        -0.454013034725
    4          1.191497023800        -0.442849505141
    5          0.660412577000        -0.215268584953
    6          0.338044037700        -0.049513570502
    7          0.096004037900        -0.002078090772
    8          0.033681030000         0.000158893985
 D 25
    1         35.689192548000         0.000034111415
    2          9.340797161000        -0.000300672656
    3          3.592265914000         0.002396763660
    4          1.798067697600         0.005460456440
    5         35.689192548000         0.000332304762
    6          9.340797161000        -0.002929076877
    7          3.592265914000         0.023348664664
    8          1.798067697600         0.053194383931
    9         35.689192548000         0.001817628027
   10          9.340797161000        -0.016021353969
   11          3.592265914000         0.127711643277
   12          1.798067697600         0.290960630195
   13         35.689192548000         0.000468323943
   14          9.340797161000        -0.004128008343
   15          3.592265914000         0.032905753784
   16          1.798067697600         0.074967940372
   17         35.689192548000         0.001239577966
   18          9.340797161000        -0.010926172500
   19          3.592265914000         0.087096224667
   20          1.798067697600         0.198428050619
   21          0.848300577900         0.005797024838
   22          0.848300577900         0.056473148034
   23          0.848300577900         0.308894690128
   24          0.848300577900         0.079588770121
   25          0.848300577900         0.210658641919
 P 8
    1         14.107678180000        -0.016871733558
    2          8.275004071400         0.063531970407
    3          2.250733832300        -0.113974021371
    4          1.191497023800        -0.111171563596
    5          0.660412577000         0.008840583473
    6          0.338044037700        -0.147124735896
    7          0.096004037900         1.569061748833
    8          0.033681030000        -1.180283040949
 P 8
    1         14.107678180000        -0.022953174491
    2          8.275004071400         0.086432161668
    3          2.250733832300        -0.155056123366
    4          1.191497023800        -0.151243515604
    5          0.660412577000        -1.249763904967
    6          0.338044037700         2.592905513096
    7          0.096004037900        -1.563710756530
    8          0.033681030000         0.586482452932
 P 8
    1         14.107678180000        -0.198700022388
    2          8.275004071400         0.748222101707
    3          2.250733832300        -1.342282968162
    4          1.191497023800        -1.309278154470
    5          0.660412577000         4.589458407805
    6          0.338044037700        -3.106003645547
    7          0.096004037900         0.892962279682
    8          0.033681030000        -0.306434095002
 D 7
    1         35.689192548000         0.000894236343
    2          9.340797161000        -0.007882183137
    3          3.592265914000         0.062831553625
    4          1.798067697600         0.143146763833
    5          0.848300577900        -0.036479372845
    6          0.378464927500         0.531311740325
    7          0.154201016300        -1.278513803937
 D 7
    1         35.689192548000         0.001239996954
    2          9.340797161000        -0.010929865643
    3          3.592265914000         0.087125663964
    4          1.798067697600         0.198495121060
    5          0.848300577900         0.970524118683
    6          0.378464927500        -2.066328127617
    7          0.154201016300         0.959784633443
 D 7
    1         35.689192548000         0.007197004746
    2          9.340797161000        -0.063437490420
    3          3.592265914000         0.505681739687
    4          1.798067697600         1.152075675182
    5          0.848300577900        -2.486557637191
    6          0.378464927500         1.637820559555
    7          0.154201016300        -0.512931568819
 end
  // -----------------------------------------------
  // The basis set
  // -----------------------------------------------
  BAS[ATNO] = new BFNGauss[NSH];
  // Basis function   1 L = s
  InitBFNGauss(BAS[ATNO][  0]);
  BAS[ATNO][  0].l  = 0;
  BAS[ATNO][  0].ng = 10;
  BAS[ATNO][  0].a[  0] =       269.300162890000;     BAS[ATNO][  0].d[  0] =         0.000827542336;
  BAS[ATNO][  0].a[  1] =        18.554269093000;     BAS[ATNO][  0].d[  1] =        -0.573660746721;
  BAS[ATNO][  0].a[  2] =        16.729943183000;     BAS[ATNO][  0].d[  2] =         0.871819337688;
  BAS[ATNO][  0].a[  3] =        11.768546646000;     BAS[ATNO][  0].d[  3] =        -0.155683443544;
  BAS[ATNO][  0].a[  4] =         6.181660442700;     BAS[ATNO][  0].d[  4] =        -0.693917913554;
  BAS[ATNO][  0].a[  5] =         1.577574398900;     BAS[ATNO][  0].d[  5] =         0.921130384612;
  BAS[ATNO][  0].a[  6] =         0.718579811900;     BAS[ATNO][  0].d[  6] =         0.512562547946;
  BAS[ATNO][  0].a[  7] =         0.164331384100;     BAS[ATNO][  0].d[  7] =        -0.068059103500;
  BAS[ATNO][  0].a[  8] =         0.076794158800;     BAS[ATNO][  0].d[  8] =        -0.141666183669;
  BAS[ATNO][  0].a[  9] =         0.034377199800;     BAS[ATNO][  0].d[  9] =        -0.056685420609;

  // Basis function   2 L = d
  InitBFNGauss(BAS[ATNO][  1]);
  BAS[ATNO][  1].l  = 2;
  BAS[ATNO][  1].ng = 25;
  BAS[ATNO][  1].a[  0] =       269.300162890000;     BAS[ATNO][  1].d[  0] =         0.000000000010;
  BAS[ATNO][  1].a[  1] =        18.554269093000;     BAS[ATNO][  1].d[  1] =        -0.000000099354;
  BAS[ATNO][  1].a[  2] =        16.729943183000;     BAS[ATNO][  1].d[  2] =         0.000000167458;
  BAS[ATNO][  1].a[  3] =        11.768546646000;     BAS[ATNO][  1].d[  3] =        -0.000000042510;
  BAS[ATNO][  1].a[  4] =         6.181660442700;     BAS[ATNO][  1].d[  4] =        -0.000000387482;
  BAS[ATNO][  1].a[  5] =         1.577574398900;     BAS[ATNO][  1].d[  5] =         0.000002561706;
  BAS[ATNO][  1].a[  6] =         0.718579811900;     BAS[ATNO][  1].d[  6] =         0.000004248085;
  BAS[ATNO][  1].a[  7] =         0.164331384100;     BAS[ATNO][  1].d[  7] =        -0.000024770549;
  BAS[ATNO][  1].a[  8] =         0.076794158800;     BAS[ATNO][  1].d[  8] =        -0.000077981684;
  BAS[ATNO][  1].a[  9] =         0.034377199800;     BAS[ATNO][  1].d[  9] =        -0.000074498984;
  BAS[ATNO][  1].a[ 10] =        35.689192548000;     BAS[ATNO][  1].d[ 10] =         0.000681239501;
  BAS[ATNO][  1].a[ 11] =         9.340797161000;     BAS[ATNO][  1].d[ 11] =        -0.006004737502;
  BAS[ATNO][  1].a[ 12] =         3.592265914000;     BAS[ATNO][  1].d[ 12] =         0.047865798070;
  BAS[ATNO][  1].a[ 13] =         1.798067697600;     BAS[ATNO][  1].d[ 13] =         0.109050846216;
  BAS[ATNO][  1].a[ 14] =        35.689192548000;     BAS[ATNO][  1].d[ 14] =         0.002117682105;
  BAS[ATNO][  1].a[ 15] =         9.340797161000;     BAS[ATNO][  1].d[ 15] =        -0.018666159464;
  BAS[ATNO][  1].a[ 16] =         3.592265914000;     BAS[ATNO][  1].d[ 16] =         0.148794284393;
  BAS[ATNO][  1].a[ 17] =         1.798067697600;     BAS[ATNO][  1].d[ 17] =         0.338992417962;
  BAS[ATNO][  1].a[ 18] =        35.689192548000;     BAS[ATNO][  1].d[ 18] =        -0.000380215363;
  BAS[ATNO][  1].a[ 19] =         9.340797161000;     BAS[ATNO][  1].d[ 19] =         0.003351381488;
  BAS[ATNO][  1].a[ 20] =         3.592265914000;     BAS[ATNO][  1].d[ 20] =        -0.026714997867;
  BAS[ATNO][  1].a[ 21] =         1.798067697600;     BAS[ATNO][  1].d[ 21] =        -0.060863774169;
  BAS[ATNO][  1].a[ 22] =        35.689192548000;     BAS[ATNO][  1].d[ 22] =        -0.000269641847;
  BAS[ATNO][  1].a[ 23] =         9.340797161000;     BAS[ATNO][  1].d[ 23] =         0.002376739035;
  BAS[ATNO][  1].a[ 24] =         3.592265914000;     BAS[ATNO][  1].d[ 24] =        -0.018945792500;

  // Basis function   3 L = s
  InitBFNGauss(BAS[ATNO][  2]);
  BAS[ATNO][  2].l  = 0;
  BAS[ATNO][  2].ng = 10;
  BAS[ATNO][  2].a[  0] =       269.300162890000;     BAS[ATNO][  2].d[  0] =         0.000208565856;
  BAS[ATNO][  2].a[  1] =        18.554269093000;     BAS[ATNO][  2].d[  1] =        -0.144579968634;
  BAS[ATNO][  2].a[  2] =        16.729943183000;     BAS[ATNO][  2].d[  2] =         0.219725008583;
  BAS[ATNO][  2].a[  3] =        11.768546646000;     BAS[ATNO][  2].d[  3] =        -0.039236966296;
  BAS[ATNO][  2].a[  4] =         6.181660442700;     BAS[ATNO][  2].d[  4] =        -0.199981243443;
  BAS[ATNO][  2].a[  5] =         1.577574398900;     BAS[ATNO][  2].d[  5] =         0.160181160135;
  BAS[ATNO][  2].a[  6] =         0.718579811900;     BAS[ATNO][  2].d[  6] =         1.055689544689;
  BAS[ATNO][  2].a[  7] =         0.164331384100;     BAS[ATNO][  2].d[  7] =        -4.573240675674;
  BAS[ATNO][  2].a[  8] =         0.076794158800;     BAS[ATNO][  2].d[  8] =         5.484430696463;
  BAS[ATNO][  2].a[  9] =         0.034377199800;     BAS[ATNO][  2].d[  9] =        -2.026809373961;

  // Basis function   4 L = s
  InitBFNGauss(BAS[ATNO][  3]);
  BAS[ATNO][  3].l  = 0;
  BAS[ATNO][  3].ng = 10;
  BAS[ATNO][  3].a[  0] =       269.300162890000;     BAS[ATNO][  3].d[  0] =        -0.001263813347;
  BAS[ATNO][  3].a[  1] =        18.554269093000;     BAS[ATNO][  3].d[  1] =         0.876088240229;
  BAS[ATNO][  3].a[  2] =        16.729943183000;     BAS[ATNO][  3].d[  2] =        -1.331432686859;
  BAS[ATNO][  3].a[  3] =        11.768546646000;     BAS[ATNO][  3].d[  3] =         0.237758003955;
  BAS[ATNO][  3].a[  4] =         6.181660442700;     BAS[ATNO][  3].d[  4] =         1.142483617318;
  BAS[ATNO][  3].a[  5] =         1.577574398900;     BAS[ATNO][  3].d[  5] =        -4.285905093706;
  BAS[ATNO][  3].a[  6] =         0.718579811900;     BAS[ATNO][  3].d[  6] =         4.743272273761;
  BAS[ATNO][  3].a[  7] =         0.164331384100;     BAS[ATNO][  3].d[  7] =        -3.382363259288;
  BAS[ATNO][  3].a[  8] =         0.076794158800;     BAS[ATNO][  3].d[  8] =         2.685617913761;
  BAS[ATNO][  3].a[  9] =         0.034377199800;     BAS[ATNO][  3].d[  9] =        -0.844244940908;

  // Basis function   5 L = s
  InitBFNGauss(BAS[ATNO][  4]);
  BAS[ATNO][  4].l  = 0;
  BAS[ATNO][  4].ng = 10;
  BAS[ATNO][  4].a[  0] =       269.300162890000;     BAS[ATNO][  4].d[  0] =         0.008472502652;
  BAS[ATNO][  4].a[  1] =        18.554269093000;     BAS[ATNO][  4].d[  1] =        -5.873224834968;
  BAS[ATNO][  4].a[  2] =        16.729943183000;     BAS[ATNO][  4].d[  2] =         8.925817244739;
  BAS[ATNO][  4].a[  3] =        11.768546646000;     BAS[ATNO][  4].d[  3] =        -1.593910464059;
  BAS[ATNO][  4].a[  4] =         6.181660442700;     BAS[ATNO][  4].d[  4] =        -3.092651010693;
  BAS[ATNO][  4].a[  5] =         1.577574398900;     BAS[ATNO][  4].d[  5] =         2.562933284947;
  BAS[ATNO][  4].a[  6] =         0.718579811900;     BAS[ATNO][  4].d[  6] =        -1.732318777367;
  BAS[ATNO][  4].a[  7] =         0.164331384100;     BAS[ATNO][  4].d[  7] =         0.868508593783;
  BAS[ATNO][  4].a[  8] =         0.076794158800;     BAS[ATNO][  4].d[  8] =        -0.681557269635;
  BAS[ATNO][  4].a[  9] =         0.034377199800;     BAS[ATNO][  4].d[  9] =         0.217966598871;

  // Basis function   6 L = s
  InitBFNGauss(BAS[ATNO][  5]);
  BAS[ATNO][  5].l  = 0;
  BAS[ATNO][  5].ng = 10;
  BAS[ATNO][  5].a[  0] =       269.300162890000;     BAS[ATNO][  5].d[  0] =         0.009579140454;
  BAS[ATNO][  5].a[  1] =        18.554269093000;     BAS[ATNO][  5].d[  1] =        -6.640357392144;
  BAS[ATNO][  5].a[  2] =        16.729943183000;     BAS[ATNO][  5].d[  2] =        10.091664832776;
  BAS[ATNO][  5].a[  3] =        11.768546646000;     BAS[ATNO][  5].d[  3] =        -1.802099430863;
  BAS[ATNO][  5].a[  4] =         6.181660442700;     BAS[ATNO][  5].d[  4] =        -1.203122051355;
  BAS[ATNO][  5].a[  5] =         1.577574398900;     BAS[ATNO][  5].d[  5] =         0.779666834447;
  BAS[ATNO][  5].a[  6] =         0.718579811900;     BAS[ATNO][  5].d[  6] =        -0.504760778362;
  BAS[ATNO][  5].a[  7] =         0.164331384100;     BAS[ATNO][  5].d[  7] =         0.250619795828;
  BAS[ATNO][  5].a[  8] =         0.076794158800;     BAS[ATNO][  5].d[  8] =        -0.197138713836;
  BAS[ATNO][  5].a[  9] =         0.034377199800;     BAS[ATNO][  5].d[  9] =         0.063196715258;

  // Basis function   7 L = p
  InitBFNGauss(BAS[ATNO][  6]);
  BAS[ATNO][  6].l  = 1;
  BAS[ATNO][  6].ng = 8;
  BAS[ATNO][  6].a[  0] =        14.107678180000;     BAS[ATNO][  6].d[  0] =         0.067208183598;
  BAS[ATNO][  6].a[  1] =         8.275004071400;     BAS[ATNO][  6].d[  1] =        -0.253078222031;
  BAS[ATNO][  6].a[  2] =         2.250733832300;     BAS[ATNO][  6].d[  2] =         0.454013034725;
  BAS[ATNO][  6].a[  3] =         1.191497023800;     BAS[ATNO][  6].d[  3] =         0.442849505141;
  BAS[ATNO][  6].a[  4] =         0.660412577000;     BAS[ATNO][  6].d[  4] =         0.215268584953;
  BAS[ATNO][  6].a[  5] =         0.338044037700;     BAS[ATNO][  6].d[  5] =         0.049513570502;
  BAS[ATNO][  6].a[  6] =         0.096004037900;     BAS[ATNO][  6].d[  6] =         0.002078090772;
  BAS[ATNO][  6].a[  7] =         0.033681030000;     BAS[ATNO][  6].d[  7] =        -0.000158893985;

  // Basis function   8 L = d
  InitBFNGauss(BAS[ATNO][  7]);
  BAS[ATNO][  7].l  = 2;
  BAS[ATNO][  7].ng = 25;
  BAS[ATNO][  7].a[  0] =        35.689192548000;     BAS[ATNO][  7].d[  0] =         0.000034111415;
  BAS[ATNO][  7].a[  1] =         9.340797161000;     BAS[ATNO][  7].d[  1] =        -0.000300672656;
  BAS[ATNO][  7].a[  2] =         3.592265914000;     BAS[ATNO][  7].d[  2] =         0.002396763660;
  BAS[ATNO][  7].a[  3] =         1.798067697600;     BAS[ATNO][  7].d[  3] =         0.005460456440;
  BAS[ATNO][  7].a[  4] =        35.689192548000;     BAS[ATNO][  7].d[  4] =         0.000332304762;
  BAS[ATNO][  7].a[  5] =         9.340797161000;     BAS[ATNO][  7].d[  5] =        -0.002929076877;
  BAS[ATNO][  7].a[  6] =         3.592265914000;     BAS[ATNO][  7].d[  6] =         0.023348664664;
  BAS[ATNO][  7].a[  7] =         1.798067697600;     BAS[ATNO][  7].d[  7] =         0.053194383931;
  BAS[ATNO][  7].a[  8] =        35.689192548000;     BAS[ATNO][  7].d[  8] =         0.001817628027;
  BAS[ATNO][  7].a[  9] =         9.340797161000;     BAS[ATNO][  7].d[  9] =        -0.016021353969;
  BAS[ATNO][  7].a[ 10] =         3.592265914000;     BAS[ATNO][  7].d[ 10] =         0.127711643277;
  BAS[ATNO][  7].a[ 11] =         1.798067697600;     BAS[ATNO][  7].d[ 11] =         0.290960630195;
  BAS[ATNO][  7].a[ 12] =        35.689192548000;     BAS[ATNO][  7].d[ 12] =         0.000468323943;
  BAS[ATNO][  7].a[ 13] =         9.340797161000;     BAS[ATNO][  7].d[ 13] =        -0.004128008343;
  BAS[ATNO][  7].a[ 14] =         3.592265914000;     BAS[ATNO][  7].d[ 14] =         0.032905753784;
  BAS[ATNO][  7].a[ 15] =         1.798067697600;     BAS[ATNO][  7].d[ 15] =         0.074967940372;
  BAS[ATNO][  7].a[ 16] =        35.689192548000;     BAS[ATNO][  7].d[ 16] =         0.001239577966;
  BAS[ATNO][  7].a[ 17] =         9.340797161000;     BAS[ATNO][  7].d[ 17] =        -0.010926172500;
  BAS[ATNO][  7].a[ 18] =         3.592265914000;     BAS[ATNO][  7].d[ 18] =         0.087096224667;
  BAS[ATNO][  7].a[ 19] =         1.798067697600;     BAS[ATNO][  7].d[ 19] =         0.198428050619;
  BAS[ATNO][  7].a[ 20] =         0.848300577900;     BAS[ATNO][  7].d[ 20] =         0.005797024838;
  BAS[ATNO][  7].a[ 21] =         0.848300577900;     BAS[ATNO][  7].d[ 21] =         0.056473148034;
  BAS[ATNO][  7].a[ 22] =         0.848300577900;     BAS[ATNO][  7].d[ 22] =         0.308894690128;
  BAS[ATNO][  7].a[ 23] =         0.848300577900;     BAS[ATNO][  7].d[ 23] =         0.079588770121;
  BAS[ATNO][  7].a[ 24] =         0.848300577900;     BAS[ATNO][  7].d[ 24] =         0.210658641919;

  // Basis function   9 L = p
  InitBFNGauss(BAS[ATNO][  8]);
  BAS[ATNO][  8].l  = 1;
  BAS[ATNO][  8].ng = 8;
  BAS[ATNO][  8].a[  0] =        14.107678180000;     BAS[ATNO][  8].d[  0] =        -0.016871733558;
  BAS[ATNO][  8].a[  1] =         8.275004071400;     BAS[ATNO][  8].d[  1] =         0.063531970407;
  BAS[ATNO][  8].a[  2] =         2.250733832300;     BAS[ATNO][  8].d[  2] =        -0.113974021371;
  BAS[ATNO][  8].a[  3] =         1.191497023800;     BAS[ATNO][  8].d[  3] =        -0.111171563596;
  BAS[ATNO][  8].a[  4] =         0.660412577000;     BAS[ATNO][  8].d[  4] =         0.008840583473;
  BAS[ATNO][  8].a[  5] =         0.338044037700;     BAS[ATNO][  8].d[  5] =        -0.147124735896;
  BAS[ATNO][  8].a[  6] =         0.096004037900;     BAS[ATNO][  8].d[  6] =         1.569061748833;
  BAS[ATNO][  8].a[  7] =         0.033681030000;     BAS[ATNO][  8].d[  7] =        -1.180283040949;

  // Basis function  10 L = p
  InitBFNGauss(BAS[ATNO][  9]);
  BAS[ATNO][  9].l  = 1;
  BAS[ATNO][  9].ng = 8;
  BAS[ATNO][  9].a[  0] =        14.107678180000;     BAS[ATNO][  9].d[  0] =        -0.022953174491;
  BAS[ATNO][  9].a[  1] =         8.275004071400;     BAS[ATNO][  9].d[  1] =         0.086432161668;
  BAS[ATNO][  9].a[  2] =         2.250733832300;     BAS[ATNO][  9].d[  2] =        -0.155056123366;
  BAS[ATNO][  9].a[  3] =         1.191497023800;     BAS[ATNO][  9].d[  3] =        -0.151243515604;
  BAS[ATNO][  9].a[  4] =         0.660412577000;     BAS[ATNO][  9].d[  4] =        -1.249763904967;
  BAS[ATNO][  9].a[  5] =         0.338044037700;     BAS[ATNO][  9].d[  5] =         2.592905513096;
  BAS[ATNO][  9].a[  6] =         0.096004037900;     BAS[ATNO][  9].d[  6] =        -1.563710756530;
  BAS[ATNO][  9].a[  7] =         0.033681030000;     BAS[ATNO][  9].d[  7] =         0.586482452932;

  // Basis function  11 L = p
  InitBFNGauss(BAS[ATNO][ 10]);
  BAS[ATNO][ 10].l  = 1;
  BAS[ATNO][ 10].ng = 8;
  BAS[ATNO][ 10].a[  0] =        14.107678180000;     BAS[ATNO][ 10].d[  0] =        -0.198700022388;
  BAS[ATNO][ 10].a[  1] =         8.275004071400;     BAS[ATNO][ 10].d[  1] =         0.748222101707;
  BAS[ATNO][ 10].a[  2] =         2.250733832300;     BAS[ATNO][ 10].d[  2] =        -1.342282968162;
  BAS[ATNO][ 10].a[  3] =         1.191497023800;     BAS[ATNO][ 10].d[  3] =        -1.309278154470;
  BAS[ATNO][ 10].a[  4] =         0.660412577000;     BAS[ATNO][ 10].d[  4] =         4.589458407805;
  BAS[ATNO][ 10].a[  5] =         0.338044037700;     BAS[ATNO][ 10].d[  5] =        -3.106003645547;
  BAS[ATNO][ 10].a[  6] =         0.096004037900;     BAS[ATNO][ 10].d[  6] =         0.892962279682;
  BAS[ATNO][ 10].a[  7] =         0.033681030000;     BAS[ATNO][ 10].d[  7] =        -0.306434095002;

  // Basis function  12 L = d
  InitBFNGauss(BAS[ATNO][ 11]);
  BAS[ATNO][ 11].l  = 2;
  BAS[ATNO][ 11].ng = 7;
  BAS[ATNO][ 11].a[  0] =        35.689192548000;     BAS[ATNO][ 11].d[  0] =        -0.000894236343;
  BAS[ATNO][ 11].a[  1] =         9.340797161000;     BAS[ATNO][ 11].d[  1] =         0.007882183137;
  BAS[ATNO][ 11].a[  2] =         3.592265914000;     BAS[ATNO][ 11].d[  2] =        -0.062831553625;
  BAS[ATNO][ 11].a[  3] =         1.798067697600;     BAS[ATNO][ 11].d[  3] =        -0.143146763833;
  BAS[ATNO][ 11].a[  4] =         0.848300577900;     BAS[ATNO][ 11].d[  4] =         0.036479372845;
  BAS[ATNO][ 11].a[  5] =         0.378464927500;     BAS[ATNO][ 11].d[  5] =        -0.531311740325;
  BAS[ATNO][ 11].a[  6] =         0.154201016300;     BAS[ATNO][ 11].d[  6] =         1.278513803937;

  // Basis function  13 L = d
  InitBFNGauss(BAS[ATNO][ 12]);
  BAS[ATNO][ 12].l  = 2;
  BAS[ATNO][ 12].ng = 7;
  BAS[ATNO][ 12].a[  0] =        35.689192548000;     BAS[ATNO][ 12].d[  0] =        -0.001239996954;
  BAS[ATNO][ 12].a[  1] =         9.340797161000;     BAS[ATNO][ 12].d[  1] =         0.010929865643;
  BAS[ATNO][ 12].a[  2] =         3.592265914000;     BAS[ATNO][ 12].d[  2] =        -0.087125663964;
  BAS[ATNO][ 12].a[  3] =         1.798067697600;     BAS[ATNO][ 12].d[  3] =        -0.198495121060;
  BAS[ATNO][ 12].a[  4] =         0.848300577900;     BAS[ATNO][ 12].d[  4] =        -0.970524118683;
  BAS[ATNO][ 12].a[  5] =         0.378464927500;     BAS[ATNO][ 12].d[  5] =         2.066328127617;
  BAS[ATNO][ 12].a[  6] =         0.154201016300;     BAS[ATNO][ 12].d[  6] =        -0.959784633443;

  // Basis function  14 L = d
  InitBFNGauss(BAS[ATNO][ 13]);
  BAS[ATNO][ 13].l  = 2;
  BAS[ATNO][ 13].ng = 7;
  BAS[ATNO][ 13].a[  0] =        35.689192548000;     BAS[ATNO][ 13].d[  0] =        -0.007197004746;
  BAS[ATNO][ 13].a[  1] =         9.340797161000;     BAS[ATNO][ 13].d[  1] =         0.063437490420;
  BAS[ATNO][ 13].a[  2] =         3.592265914000;     BAS[ATNO][ 13].d[  2] =        -0.505681739687;
  BAS[ATNO][ 13].a[  3] =         1.798067697600;     BAS[ATNO][ 13].d[  3] =        -1.152075675182;
  BAS[ATNO][ 13].a[  4] =         0.848300577900;     BAS[ATNO][ 13].d[  4] =         2.486557637191;
  BAS[ATNO][ 13].a[  5] =         0.378464927500;     BAS[ATNO][ 13].d[  5] =        -1.637820559555;
  BAS[ATNO][ 13].a[  6] =         0.154201016300;     BAS[ATNO][ 13].d[  6] =         0.512931568819;

-------------------------------------------
RADIAL EXPECTATION VALUES <R**-3> TO <R**3>
-------------------------------------------
   0 :     0.000000     1.675066     1.224959     0.963354     1.305880     3.121376
   1 :     1.374427     1.034252     0.932811     1.273243     1.927220    17.322758
   2 :     1.374066     1.034047     0.932682     1.273655     1.929269    17.328817
   3 :     1.374424     1.034250     0.932810     1.273248     1.927242    17.323187
   4 :     0.000000     0.174562     0.386191     3.027895    10.677663    43.478802
   5 :     0.000000     0.058073     0.188696     6.435650    45.231525   335.639432
   6 :     0.000000     0.212545     0.362315     4.003650    21.147197   136.525222
   7 :     0.000000     1.012049     0.846206     1.800779     5.332549    25.461869
   8 :     0.000000     7.878798     2.404334     0.547397     0.579042     1.805077
   9 :     0.000000    76.454509     6.902959     0.203414     0.080990     0.159300
  10 :     2.031211     1.432099     1.133027     0.982974     1.075980     1.311918
  11 :     2.031211     1.432100     1.133027     0.982974     1.075979     1.311916
  12 :     2.031211     1.432100     1.133027     0.982974     1.075979     1.311916
  13 :     1.374424     1.034250     0.932810     1.273248     1.927243    17.323198
  14 :     1.374423     1.034249     0.932809     1.273249     1.927249    17.323309
  15 :     0.031427     0.061653     0.214897     5.497211    34.079130   232.341641
  16 :     0.031428     0.061653     0.214897     5.497204    34.079057   232.340987
  17 :     0.031428     0.061653     0.214897     5.497204    34.079061   232.341023
  18 :     0.079003     0.113113     0.275972     4.956636    31.290830   231.177048
  19 :     0.079003     0.113113     0.275971     4.956643    31.290905   231.177723
  20 :     0.079003     0.113113     0.275971     4.956642    31.290901   231.177686
  21 :     0.332242     0.312094     0.460255     3.017551    12.479633    68.787004
  22 :     0.332242     0.312093     0.460255     3.017551    12.479631    68.786983
  23 :     0.332242     0.312093     0.460255     3.017551    12.479631    68.786984
  24 :     1.702168     0.896424     0.782711     1.852458     5.174900    22.212927
  25 :     1.702168     0.896424     0.782711     1.852458     5.174901    22.212928
  26 :     1.702168     0.896424     0.782711     1.852458     5.174901    22.212928
  27 :     0.145435     0.157874     0.326947     3.560442    13.573118   270.911440
  28 :     0.145435     0.157874     0.326947     3.560442    13.573118   270.911447
  29 :     0.145435     0.157874     0.326947     3.560442    13.573116   270.911394
  30 :     0.145430     0.157871     0.326945     3.560447    13.573138   270.911796
  31 :     0.145435     0.157874     0.326947     3.560442    13.573118   270.911445
  32 :     0.532206     0.449297     0.555418     2.398204     7.075189   122.489148
  33 :     0.532206     0.449298     0.555418     2.398204     7.075189   122.489149
  34 :     0.532206     0.449298     0.555418     2.398204     7.075189   122.489160
  35 :     0.532208     0.449299     0.555419     2.398203     7.075188   122.489155
  36 :     0.532206     0.449298     0.555418     2.398204     7.075189   122.489148
  37 :     2.301820     1.333979     0.986797     1.457241     3.008464    41.581925
  38 :     2.301820     1.333979     0.986797     1.457241     3.008464    41.581925
  39 :     2.301820     1.333979     0.986797     1.457241     3.008464    41.581925
  40 :     2.301820     1.333979     0.986797     1.457241     3.008464    41.581924
  41 :     2.301820     1.333979     0.986797     1.457241     3.008464    41.581925
Making the total density                ... o.k.
o.k.
Initializing the integrals              ... done
Making exponents                        ... done
Making rho(0)                           ... done (         0.006945597)
Integral calculation                    ... Two index integrals                     ... done
Solving the equation system             ... done
atomic density will be written to file 48_Cd_atom48.adf

-------
TIMINGS
-------

Total SCF time: 0 days 0 hours 0 min 0 sec 

Total time                  ....       0.899 sec
Sum of individual times     ....       0.504 sec  ( 56.1%)

Fock matrix formation       ....       0.408 sec  ( 45.3%)
Diagonalization             ....       0.041 sec  (  4.5%)
Density matrix formation    ....       0.001 sec  (  0.1%)
Population analysis         ....       0.000 sec  (  0.0%)
Initial guess               ....       0.001 sec  (  0.1%)
Orbital Transformation      ....       0.000 sec  (  0.0%)
Orbital Orthonormalization  ....       0.000 sec  (  0.0%)
DIIS solution               ....       0.054 sec  (  6.0%)

-------------------------   --------------------
FINAL SINGLE POINT ENERGY      -166.884913390297
-------------------------   --------------------


                            ***************************************
                            *     ORCA property calculations      *
                            ***************************************

                                    ---------------------
                                    Active property flags
                                    ---------------------
   (+) Dipole Moment


------------------------------------------------------------------------------
                       ORCA ELECTRIC PROPERTIES CALCULATION
------------------------------------------------------------------------------

Dipole Moment Calculation                       ... on
Quadrupole Moment Calculation                   ... off
Polarizability Calculation                      ... off
GBWName                                         ... 48_Cd_atom48.gbw
Electron density file                           ... 48_Cd_atom48.scfp
The origin for moment calculation is the CENTER OF MASS  = ( 0.000000,  0.000000  0.000000)

-------------
DIPOLE MOMENT
-------------
                                X             Y             Z
Electronic contribution:     -0.00000      -0.00000      -0.00000
Nuclear contribution   :      0.00000       0.00000       0.00000
                        -----------------------------------------
Total Dipole Moment    :     -0.00000      -0.00000      -0.00000
                        -----------------------------------------
Magnitude (a.u.)       :      0.00000
Magnitude (Debye)      :      0.00000



--------------------
Rotational spectrum 
--------------------
 
Rotational constants in cm-1:     0.000000     0.000000     0.000000 
Rotational constants in MHz :     0.000000     0.000000     0.000000 

 Dipole components along the rotational axes: 
x,y,z [a.u.] :    -0.000000    -0.000000    -0.000000 
x,y,z [Debye]:    -0.000000    -0.000000    -0.000000 

 

Timings for individual modules:

Sum of individual times         ...        1.211 sec (=   0.020 min)
GTO integral calculation        ...        0.280 sec (=   0.005 min)  23.1 %
SCF iterations                  ...        0.931 sec (=   0.016 min)  76.9 %
                             ****ORCA TERMINATED NORMALLY****
TOTAL RUN TIME: 0 days 0 hours 0 minutes 1 seconds 435 msec
