
                                 *****************
                                 * O   R   C   A *
                                 *****************

           --- An Ab Initio, DFT and Semiempirical electronic structure package ---

                  #######################################################
                  #                        -***-                        #
                  #          Department of theory and spectroscopy      #
                  #               Directorship: Frank Neese             #
                  #        Max Planck Institute fuer Kohlenforschung    #
                  #                Kaiser Wilhelm Platz 1               #
                  #                 D-45470 Muelheim/Ruhr               #
                  #                      Germany                        #
                  #                                                     #
                  #                  All rights reserved                #
                  #                        -***-                        #
                  #######################################################


                         Program Version 4.2.0 -  RELEASE  -


 With contributions from (in alphabetic order):
   Daniel Aravena         : Magnetic Suceptibility
   Michael Atanasov       : Ab Initio Ligand Field Theory (pilot matlab implementation)
   Alexander A. Auer      : GIAO ZORA, VPT2
   Ute Becker             : Parallelization
   Giovanni Bistoni       : ED, misc. LED, open-shell LED, HFLED
   Martin Brehm           : Molecular dynamics
   Dmytro Bykov           : SCF Hessian
   Vijay G. Chilkuri      : MRCI spin determinant printing, contributions to CSF-ICE
   Dipayan Datta          : RHF DLPNO-CCSD density
   Achintya Kumar Dutta   : EOM-CC, STEOM-CC
   Dmitry Ganyushin       : Spin-Orbit,Spin-Spin,Magnetic field MRCI
   Miquel Garcia          : C-PCM Hessian, Gaussian charge scheme
   Yang Guo               : DLPNO-NEVPT2, CIM, IAO-localization
   Andreas Hansen         : Spin unrestricted coupled pair/coupled cluster methods
   Benjamin Helmich-Paris : CASSCF linear response (MC-RPA)
   Lee Huntington         : MR-EOM, pCC
   Robert Izsak           : Overlap fitted RIJCOSX, COSX-SCS-MP3, EOM
   Christian Kollmar      : KDIIS, OOCD, Brueckner-CCSD(T), CCSD density
   Simone Kossmann        : Meta GGA functionals, TD-DFT gradient, OOMP2, MP2 Hessian
   Martin Krupicka        : AUTO-CI
   Lucas Lang             : DCDCAS
   Dagmar Lenk            : GEPOL surface, SMD
   Dimitrios Liakos       : Extrapolation schemes; Compound Job, initial MDCI parallelization
   Dimitrios Manganas     : Further ROCIS development; embedding schemes
   Dimitrios Pantazis     : SARC Basis sets
   Taras Petrenko         : DFT Hessian,TD-DFT gradient, ASA, ECA, R-Raman, ABS, FL, XAS/XES, NRVS
   Peter Pinski           : DLPNO-MP2, DLPNO-MP2 Gradient
   Christoph Reimann      : Effective Core Potentials
   Marius Retegan         : Local ZFS, SOC
   Christoph Riplinger    : Optimizer, TS searches, QM/MM, DLPNO-CCSD(T), (RO)-DLPNO pert. Triples
   Tobias Risthaus        : Range-separated hybrids, TD-DFT gradient, RPA, STAB
   Michael Roemelt        : Original ROCIS implementation
   Masaaki Saitow         : Open-shell DLPNO-CCSD energy and density
   Barbara Sandhoefer     : DKH picture change effects
   Avijit Sen             : IP-ROCIS
   Kantharuban Sivalingam : CASSCF convergence, NEVPT2, FIC-MRCI
   Bernardo de Souza      : ESD, SOC TD-DFT
   Georgi Stoychev        : AutoAux, RI-MP2 NMR
   Willem Van den Heuvel  : Paramagnetic NMR
   Boris Wezisla          : Elementary symmetry handling
   Frank Wennmohs         : Technical directorship


 We gratefully acknowledge several colleagues who have allowed us to
 interface, adapt or use parts of their codes:
   Stefan Grimme, W. Hujo, H. Kruse,             : VdW corrections, initial TS optimization,
                  C. Bannwarth                     DFT functionals, gCP, sTDA/sTD-DF
   Ed Valeev, F. Pavosevic, A. Kumar             : LibInt (2-el integral package), F12 methods
   Garnet Chan, S. Sharma, J. Yang, R. Olivares  : DMRG
   Ulf Ekstrom                                   : XCFun DFT Library
   Mihaly Kallay                                 : mrcc  (arbitrary order and MRCC methods)
   Andreas Klamt, Michael Diedenhofen            : otool_cosmo (COSMO solvation model)
   Jiri Pittner, Ondrej Demel                    : Mk-CCSD
   Frank Weinhold                                : gennbo (NPA and NBO analysis)
   Christopher J. Cramer and Donald G. Truhlar   : smd solvation model
   Lars Goerigk                                  : TD-DFT with DH, B97 family of functionals
   V. Asgeirsson, H. Jonsson                     : NEB implementation
   FAccTs GmbH                                   : IRC, NEB, NEB-TS, Multilevel, MM, QM/MM, CI optimization
   S Lehtola, MJT Oliveira, MAL Marques          : LibXC Library


 Your calculation uses the libint2 library for the computation of 2-el integrals
 For citations please refer to: http://libint.valeyev.net

 Your ORCA version has been built with support for libXC version: 4.2.3
 For citations please refer to: https://tddft.org/programs/libxc/

 This ORCA versions uses:
   CBLAS   interface :  Fast vector & matrix operations
   LAPACKE interface :  Fast linear algebra routines
   SCALAPACK package :  Parallel linear algebra routines


----- Orbital basis set information -----
Your calculation utilizes the basis: def2-SVP
   F. Weigend and R. Ahlrichs, Phys. Chem. Chem. Phys. 7, 3297 (2005).

----- AuxJ basis set information -----
Your calculation utilizes the auxiliary basis: def2/J
   F. Weigend, Phys. Chem. Chem. Phys. 8, 1057 (2006).

================================================================================
                                        WARNINGS
                       Please study these warnings very carefully!
================================================================================


INFO   : the flag for use of LIBINT has been found!

================================================================================
                                       INPUT FILE
================================================================================
NAME = 49_In_atom49.inp
|  1> # input to generate an atomic fitting density for In
|  2> # this file is use internally by ORCA
|  3> #
|  4> # atomic ground state (S=2): 1s2 2s2 2p6 3s2 3p6 4s2 3d10 4p6 5s2 4d10 5p1 
|  5> #
|  6> ! RHF AllowRHF def2-SVP def2/J  NoMulliken NoLoewdin NoMayer NoPrintMOs 
|  7> 
|  8> %output print[p_atomdensfit] 2 end
|  9> 
| 10> %scf
| 11>   guess hcore
| 12>   maxiter 1000
| 13>   maxdisk 500000
| 14>   SCFMode Conventional
| 15>   lshift 1.000000
| 16>   hftyp rohf
| 17>   rohf_case sahf
| 18>   rohf_numop   2
| 19>   rohf_norb[1] 3
| 20>   rohf_nel[1]  1
| 21> end
| 22> 
| 23> %basis
| 24>   NewECP 49
| 25>     N_core 28
| 26>     lmax f
| 27>     s 4
| 28>       1      15.3928220000    281.1223500000  2
| 29>       2       8.0558640000     61.9014700000  2
| 30>       3      12.5390560000     13.7280780000  2
| 31>       4      12.5525610000     18.2068660000  2
| 32>     p 6
| 33>       1      13.9286720000     67.4621540000  2
| 34>       2      13.3472340000    134.9492500000  2
| 35>       3       7.6141320000     14.7461400000  2
| 36>       4       7.3183650000     29.6392620000  2
| 37>       5      12.5390560000     13.7280780000  2
| 38>       6      12.5525610000     18.2068660000  2
| 39>     d 6
| 40>       1      14.0347150000     35.4932540000  2
| 41>       2      14.5116160000     53.1787730000  2
| 42>       3       5.5505500000      9.1772810000  2
| 43>       4       5.0594150000     12.3924100000  2
| 44>       5      12.5390560000     13.7280780000  2
| 45>       6      12.5525610000     18.2068660000  2
| 46>     f 2
| 47>       1      12.5390560000    -13.7280780000  2
| 48>       2      12.5525610000    -18.2068660000  2
| 49>   end
| 50>   NewGTO 49
| 51>     s 9 
| 52>      1    8931.8400000000      0.0000507998
| 53>      2    1352.2200000000      0.0003502510
| 54>      3     303.3930000000      0.0012780152
| 55>      4      45.1229000000      0.0313033509
| 56>      5      28.1822000000     -0.2334917695
| 57>      6      17.6048000000      0.6940237380
| 58>      7       6.9405800000     -1.6803252701
| 59>      8       4.3337700000     -0.4243598610
| 60>      9       1.9868400000      1.8031350428
| 61>     s 1 
| 62>      1       1.0438672413      1.0000000000
| 63>     s 3 
| 64>      1      20.2455442080      0.0652669088
| 65>      2      11.0722984160     -0.3245785096
| 66>      3       2.4929238916      1.1717562992
| 67>     s 1 
| 68>      1       0.5324448416      1.0000000000
| 69>     s 1 
| 70>      1       0.2121130741      1.0000000000
| 71>     s 1 
| 72>      1       0.0954751965      1.0000000000
| 73>     s 1 
| 74>      1       0.0423576449      1.0000000000
| 75>     p 7 
| 76>      1     129.2330000000      0.0002845734
| 77>      2      29.6284000000     -0.0062942748
| 78>      3      18.5211000000      0.0478491362
| 79>      4       8.2853600000     -0.2446964355
| 80>      5       2.4993900000      0.4383971073
| 81>      6       1.3221600000      0.4958115829
| 82>      7       0.6887070000      0.2264725158
| 83>     p 3 
| 84>      1      13.2486330340     -0.0188262283
| 85>      2       3.0240161259      0.3255462819
| 86>      3       1.0805448379      0.7438199030
| 87>     p 1 
| 88>      1       0.3335358151      1.0000000000
| 89>     p 1 
| 90>      1       0.1540376045      1.0000000000
| 91>     p 1 
| 92>      1       0.0657704246      1.0000000000
| 93>     p 1 
| 94>      1       0.0276421803      1.0000000000
| 95>     s 1 
| 96>      1       0.0183493889      1.0000000000
| 97>   end
| 98>   NewAuxGTO 49
| 99>     S 1
|100>      1 1310.72 1.0
|101>     S 1
|102>      1  655.36 1.0
|103>     S 1
|104>      1  327.68 1.0
|105>     S 1
|106>      1  163.84 1.0
|107>     S 1
|108>      1   81.82 1.0
|109>     S 1
|110>      1   40.96 1.0
|111>     S 1
|112>      1   20.48 1.0
|113>     S 1
|114>      1   10.24 1.0
|115>     S 1
|116>      1    5.12 1.0
|117>     S 1
|118>      1    2.56 1.0
|119>     S 1
|120>      1    1.28 1.0
|121>     S 1
|122>      1    0.64 1.0
|123>     S 1
|124>      1    0.32 1.0
|125>     S 1
|126>      1    0.16 1.0
|127>     S 1
|128>      1    0.08 1.0
|129>     S 1
|130>      1    0.04 1.0
|131>     S 1
|132>      1    0.02 1.0
|133>     S 1
|134>      1    0.01 1.0
|135>   end
|136> end
|137> 
|138> * xyz 0 2
|139> 49  0.0 0.0 0.0
|140> *
|141> 
|142> 
|143>                          ****END OF INPUT****
================================================================================

                       ****************************
                       * Single Point Calculation *
                       ****************************

---------------------------------
CARTESIAN COORDINATES (ANGSTROEM)
---------------------------------
  In     0.000000    0.000000    0.000000

----------------------------
CARTESIAN COORDINATES (A.U.)
----------------------------
  NO LB      ZA    FRAG     MASS         X           Y           Z
   0 In   21.0000*   0   114.820    0.000000    0.000000    0.000000
* core charge reduced due to ECP

--------------------------------
INTERNAL COORDINATES (ANGSTROEM)
--------------------------------
 In     0   0   0     0.000000000000     0.00000000     0.00000000

---------------------------
INTERNAL COORDINATES (A.U.)
---------------------------
 In     0   0   0     0.000000000000     0.00000000     0.00000000

---------------------
BASIS SET INFORMATION
---------------------
There are 1 groups of distinct atoms

 Group   1 Type In  : 18s14p contracted to 8s6p pattern {91311111/731111}

Atom   0In   basis set group =>   1
---------------------------------
AUXILIARY/J BASIS SET INFORMATION
---------------------------------
There are 1 groups of distinct atoms

 Group   1 Type In  : 18s contracted to 18s pattern {111111111111111111}

Atom   0In   basis set group =>   1
-------------------------
ECP PARAMETER INFORMATION
-------------------------

 Group 1, Type In ECP (replacing 28 core electrons, lmax=3)

Atom   0In   ECP group =>   1

------------------------------------------------------------------------------
                           ORCA GTO INTEGRAL CALCULATION
------------------------------------------------------------------------------

                         BASIS SET STATISTICS AND STARTUP INFO

 # of primitive gaussian shells          ...   32
 # of primitive gaussian functions       ...   60
 # of contracted shells                  ...   14
 # of contracted basis functions         ...   26
 Highest angular momentum                ...    1
 Maximum contraction depth               ...    9
 Integral package used                   ... LIBINT
 Integral threshhold            Thresh   ...  1.000e-10
 Primitive cut-off              TCut     ...  1.000e-11
 Storage cut-off                TCutStore... -1.000e+00
 Buffer length                           ... 1048576 integrals/buffer
 Generate file with integrals 4 distinct ...false


------------------------------ INTEGRAL EVALUATION ----------------------------


 * One electron integrals 

   ECP integrals                         ... done
 Pre-screening matrix                    ... done
 Shell pair data                         ... done (   0.000 sec)
 Statistics run                          ... done
 Maximum amount of storage needed        ...     0 MB
 Maximum amount of storage dedicated     ... 500000 MB
 Beginning two electron integral evaluation:
 Starting repulsion integrals
  <ss|ss>  ...          666 b.         0 skpd (  0.0%)     0.000 s. (  0.000 ms/b)
  <ss|sp>  ...         1728 b.         0 skpd (  0.0%)     0.001 s. (  0.001 ms/b)
  <ss|pp>  ...          756 b.         0 skpd (  0.0%)     0.002 s. (  0.003 ms/b)
  <sp|sp>  ...         1176 b.         0 skpd (  0.0%)     0.003 s. (  0.002 ms/b)
  <sp|pp>  ...         1008 b.         0 skpd (  0.0%)     0.004 s. (  0.004 ms/b)
  <pp|pp>  ...          231 b.         0 skpd (  0.0%)     0.003 s. (  0.013 ms/b)


                                      INTEGRAL STATISTICS

Integral type statistics:
 Number of integrals retained            ...      61776 
 One   Center Integrals retained         ...      61776 (100.0%)
 Two   Center Integrals retained         ...          0 (  0.0%)
 Three Center Integrals retained         ...          0 (  0.0%)
 Four  Center Integrals retained         ...          0 (  0.0%)

Storage statistics:
 Number of char integrals                ...          0 (  0.0%)
 Number of short int integrals           ...          0 (  0.0%)
 Number of double/float integrals        ...      61776 (100.0%)
 Amount of memory used                   ...          0 MB
 Amount of memory estimated              ...          0 MB ( 96.4%)

Prescreening statistics:
 Total number of shell quadruples        ...       5565 
 Number of skipped shell quadruples      ...          0 (  0.0%)
 # of negligible batches done            ...          0 (  0.0%)

Timings:
 Total evaluation time               ...     0.179 sec (   0.003 min)
 One electron matrix time            ...     0.015 sec (   0.000 min) =  8.7%
 Schwartz matrix evaluation time     ...     0.075 sec (   0.001 min) = 42.1%
 Statistics run                      ...     0.001 sec (   0.000 min) =  0.3%
 Repulsion integral time             ...     0.014 sec (   0.000 min) =  7.9%

-------------------------------------------------------------------------------
                                 ORCA SCF
-------------------------------------------------------------------------------

------------
SCF SETTINGS
------------
Hamiltonian:
 Ab initio Hamiltonian  Method          .... Hartree-Fock(GTOs)


General Settings:
 Integral files         IntName         .... 49_In_atom49
 Hartree-Fock type      HFTyp           .... ROHF
 Total Charge           Charge          ....    0
 Multiplicity           Mult            ....    2
 Number of Electrons    NEL             ....   21
 Basis Dimension        Dim             ....   26
 Nuclear Repulsion      ENuc            ....      0.0000000000 Eh

Convergence Acceleration:
 DIIS                   CNVDIIS         .... on
   Start iteration      DIISMaxIt       ....    12
   Startup error        DIISStart       ....  0.200000
   # of expansion vecs  DIISMaxEq       ....     5
   Bias factor          DIISBfac        ....   1.050
   Max. coefficient     DIISMaxC        ....  10.000
 Newton-Raphson         CNVNR           .... off
 SOSCF                  CNVSOSCF        .... off
 Level Shifting         CNVShift        .... on
   Level shift para.    LevelShift      ....    1.0000
   Turn off err/grad.   ShiftErr        ....    0.0010
 Zerner damping         CNVZerner       .... off
 Static damping         CNVDamp         .... on
   Fraction old density DampFac         ....    0.7000
   Max. Damping (<1)    DampMax         ....    0.9800
   Min. Damping (>=0)   DampMin         ....    0.0000
   Turn off err/grad.   DampErr         ....    0.1000
 Fernandez-Rico         CNVRico         .... off

SCF Procedure:
 Maximum # iterations   MaxIter         ....  1000
 SCF integral mode      SCFMode         .... Conventional
 Integral Threshold     Thresh          ....  1.000e-10 Eh
 Primitive CutOff       TCut            ....  1.000e-11 Eh
 Integral Buffer length BufferLength    .... 1048576
 Integral index format  IndFormat       ....     0
 Integral value format  ValFormat       ....     0
 Integral Storage       Thresh          ....  1.000e-10 Eh

Convergence Tolerance:
 Convergence Check Mode ConvCheckMode   .... Total+1el-Energy
 Convergence forced     ConvForced      .... 0
 Energy Change          TolE            ....  1.000e-06 Eh
 1-El. energy change                    ....  1.000e-03 Eh
 DIIS Error             TolErr          ....  1.000e-06


Diagonalization of the overlap matrix:
Smallest eigenvalue                        ... 1.753e-03
Time for diagonalization                   ...    0.001 sec
Threshold for overlap eigenvalues          ... 1.000e-08
Number of eigenvalues below threshold      ... 0
Time for construction of square roots      ...    0.002 sec
Total time needed                          ...    0.003 sec

--------------------
INITIAL GUESS: HCORE
--------------------
AVERAGE-CONFIGURATION (SAHF) CASE FOUND

-------------------
FINAL ROHF SETTINGS
-------------------
Number of operators             ... 2
  operator   0:  10 orbitals  20 electrons n(mue)= 2.000
  operator   1:   3 orbitals   1 electrons n(mue)= 0.333
Vector coupling coefficients a and b (Zerner convention):
   1.000    1.000           1.000    1.000 
   1.000    0.000           1.000    0.000 

                      -----------------
                      INTIAL GUESS DONE 
                      -----------------

 InCore treatment chosen:
   Memory dedicated               ...    1024 MB
   Memory needed                  ...      0 MB
   Number of tiny    integrals    ...       0
   Number of small   integrals    ...       0
   Number of regular integrals    ...   61776

--------------
SCF ITERATIONS
--------------
ITER       Energy         Delta-E        Max-DP      RMS-DP      [F,P]     Damp
  0   -165.3747557337   0.000000000000 6.56758761  0.39909409  2.4219945 0.7000
  1   -167.7279334683  -2.353177734617 4.62020748  0.29356377  0.5449460 0.7000
  2   -168.4955942627  -0.767660794398 3.27357579  0.22845228  0.3155430 0.7000
  3   -169.0151968823  -0.519602619596 2.50918152  0.17268342  0.2045033 0.7000
                            ****Activating DIIS****
  4   -169.3878548422  -0.372657959840 2.53955227  0.14299497  0.1651518 0.7000
  5   -169.7356922891  -0.347837446930 5.92772176  0.35493967  0.0702806 0.0000
  6   -170.3580626810  -0.622370391880 0.65089645  0.03391052  0.0560760 0.0000
  7   -170.3839484687  -0.025885787746 1.53354505  0.08942264  0.0529505 0.0000
  8   -170.4357264240  -0.051777955290 0.53692133  0.04185228  0.0404351 0.0000
  9   -170.4521192724  -0.016392848404 0.21087586  0.01357890  0.0310365 0.0000
 10   -170.4593345297  -0.007215257269 0.26191790  0.01801067  0.0269691 0.0000
 11   -170.4686904568  -0.009355927116 0.42079424  0.03003565  0.0217414 0.0000
 12   -170.4810053957  -0.012314938901 0.38583913  0.03098097  0.0114229 0.0000
 13   -170.4894918885  -0.008486492784 0.37263501  0.02135970  0.0072349 0.0000
 14   -170.4926907117  -0.003198823241 0.33272293  0.01502166  0.0063249 0.0000
 15   -170.4942687092  -0.001577997449 0.36125102  0.01563608  0.0061779 0.0000
 16   -170.4956379340  -0.001369224835 0.36994966  0.01577604  0.0050938 0.0000
 17   -170.4967679271  -0.001129993076 0.32132808  0.01366693  0.0045527 0.0000
 18   -170.4976061383  -0.000838211161 0.27252432  0.01166757  0.0041328 0.0000
 19   -170.4982447046  -0.000638566357 0.33914098  0.01468593  0.0037566 0.0000
 20   -170.4989464294  -0.000701724765 0.50046454  0.02188773  0.0030601 0.0000
 21   -170.4997397572  -0.000793327855 0.36500969  0.01612258  0.0019977 0.0000
 22   -170.5001129865  -0.000373229252 0.07019676  0.00326437  0.0011856 0.0000
 23   -170.5001906194  -0.000077632930 0.01119241  0.00103335  0.0011517 0.0000
 24   -170.5002225787  -0.000031959270 0.02429032  0.00146761  0.0011283 0.0000
 25   -170.5002617772  -0.000039198514 0.05391375  0.00270862  0.0010977 0.0000
 26   -170.5003177787  -0.000056001465 0.06464964  0.00315628  0.0008485 0.0000
 27   -170.5003669178  -0.000049139174 0.03232329  0.00149639  0.0007796 0.0000
 28   -170.5003849816  -0.000018063755 0.01299648  0.00057341  0.0007260 0.0000
 29   -170.5003911184  -0.000006136791 0.01179261  0.00050843  0.0006195 0.0000
 30   -170.5003961958  -0.000005077406 0.01653766  0.00070567  0.0006235 0.0000
 31   -170.5004027158  -0.000006520008 0.03309792  0.00141035  0.0006455 0.0000
 32   -170.5004148390  -0.000012123204 0.05863513  0.00250243  0.0004815 0.0000
 33   -170.5004332426  -0.000018403543 0.06880889  0.00294937  0.0004719 0.0000
 34   -170.5004501789  -0.000016936373 0.06743193  0.00291540  0.0003435 0.0000
 35   -170.5004622566  -0.000012077640 0.05250912  0.00230275  0.0002583 0.0000
 36   -170.5004686761  -0.000006419558 0.02350657  0.00105588  0.0002546 0.0000
 37   -170.5004707661  -0.000002089998 0.01048111  0.00047868  0.0001975 0.0000
 38   -170.5004715171  -0.000000750945 0.00879870  0.00039994  0.0001415 0.0000
 39   -170.5004719779  -0.000000460871 0.00759346  0.00034074  0.0000854 0.0000
                 **** Energy Check signals convergence ****

               *****************************************************
               *                     SUCCESS                       *
               *           SCF CONVERGED AFTER  40 CYCLES          *
               *****************************************************


----------------
TOTAL SCF ENERGY
----------------

Total Energy       :         -170.50047224 Eh           -4639.55372 eV

Components:
Nuclear Repulsion  :            0.00000000 Eh               0.00000 eV
Electronic Energy  :         -170.50047224 Eh           -4639.55372 eV
One Electron Energy:         -267.01043761 Eh           -7265.72339 eV
Two Electron Energy:           96.50996536 Eh            2626.16967 eV

Virial components:
Potential Energy   :         -216.87477964 Eh           -5901.46278 eV
Kinetic Energy     :           46.37430740 Eh            1261.90906 eV
Virial Ratio       :            4.67661496


---------------
SCF CONVERGENCE
---------------

  Last Energy change         ...   -2.6620e-07  Tolerance :   1.0000e-06
  Last MAX-Density change    ...    3.7949e-03  Tolerance :   1.0000e-05
  Last RMS-Density change    ...    1.6561e-04  Tolerance :   1.0000e-06
  Last DIIS Error            ...    7.2830e-05  Tolerance :   1.0000e-06

             **** THE GBW FILE WAS UPDATED (49_In_atom49.gbw) ****
             **** DENSITY FILE WAS UPDATED (49_In_atom49.scfp) ****
             **** ENERGY FILE WAS UPDATED (49_In_atom49.en.tmp) ****
             **** THE GBW FILE WAS UPDATED (49_In_atom49.gbw) ****
             **** DENSITY FILE WAS UPDATED (49_In_atom49.scfp) ****
----------------
ORBITAL ENERGIES
----------------

  NO   OCC          E(Eh)            E(eV) 
   0   2.0000      -9.061576      -246.5780 
   1   2.0000      -6.999605      -190.4689 
   2   2.0000      -6.999605      -190.4689 
   3   2.0000      -6.992066      -190.2638 
   4   2.0000      -2.154817       -58.6356 
   5   2.0000      -1.391383       -37.8615 
   6   2.0000      -1.391383       -37.8615 
   7   2.0000      -1.373012       -37.3616 
   8   2.0000      -0.363467        -9.8904 
   9   2.0000      -0.187444        -5.1006 
  10   0.3333      -0.202775        -5.5178 
  11   0.3333      -0.202775        -5.5178 
  12   0.3333      -0.077923        -2.1204 
  13   0.0000      -0.015838        -0.4310 
  14   0.0000      -0.015838        -0.4310 
  15   0.0000      -0.002209        -0.0601 
  16   0.0000       0.099276         2.7014 
  17   0.0000       0.360962         9.8223 
  18   0.0000       0.360962         9.8223 
  19   0.0000       0.390476        10.6254 
  20   0.0000       0.880252        23.9529 
  21   0.0000       9.136925       248.6284 
  22   0.0000      34.553326       940.2438 
  23   0.0000      34.553326       940.2438 
  24   0.0000      34.556872       940.3403 
  25   0.0000      72.575639      1974.8836 
CleanUpVectors: The p-vectors have cracked symmetry
CleanUpVectors: The p-vectors have cracked symmetry
CleanUpVectors: The p-vectors have cracked symmetry
CleanUpVectors: The p-vectors have cracked symmetry
CleanUpVectors: The p-vectors have cracked symmetry
CleanUpVectors: The p-vectors have cracked symmetry
CleanUpVectors: The p-vectors have cracked symmetry
CleanUpVectors: The p-vectors have cracked symmetry
CleanUpVectors: The p-vectors have cracked symmetry
CleanUpVectors: The p-vectors have cracked symmetry
CleanUpVectors: The p-vectors have cracked symmetry
CleanUpVectors: The p-vectors have cracked symmetry
CleanUpVectors: The p-vectors have cracked symmetry
CleanUpVectors: The p-vectors have cracked symmetry
CleanUpVectors: The p-vectors have cracked symmetry
CleanUpVectors: The p-vectors have cracked symmetry
CleanUpVectors: The p-vectors have cracked symmetry
--------------------------
ATOM BASIS FOR ELEMENT In
--------------------------
 NewGTO In
 S 18
    1       8931.840000000000        -0.000020933851
    2       1352.220000000000        -0.000144333293
    3        303.393000000000        -0.000526651294
    4         45.122900000000        -0.012899651156
    5         28.182200000000         0.096218528938
    6         17.604800000000        -0.285996989364
    7          6.940580000000         0.692437365017
    8          4.333770000000         0.174872466182
    9          1.986840000000        -0.743045468650
   10          1.043867241300        -0.718993783973
   11         20.245544208000        -0.006482054782
   12         11.072298416000         0.032235871424
   13          2.492923891600        -0.116374264729
   14          0.532444841600         0.169589505781
   15          0.212113074100        -0.102841901961
   16          0.095475196500         0.064946944479
   17          0.042357644900        -0.030513788865
   18          0.018349388900         0.008299227278
 P 32
    1        129.233000000000        -0.000241698770
    2         29.628400000000         0.005345961633
    3         18.521100000000        -0.040640050593
    4          8.285360000000         0.207829781444
    5          2.499390000000        -0.372346964555
    6          1.322160000000        -0.421111213577
    7          0.688707000000        -0.192351528806
    8        129.233000000000         0.000151641897
    9         29.628400000000        -0.003354058297
   10         18.521100000000         0.025497582703
   11          8.285360000000        -0.130392481388
   12          2.499390000000         0.233610622637
   13          1.322160000000         0.264205330425
   14          0.688707000000         0.120681419985
   15        129.233000000000         0.000083854422
   16         29.628400000000        -0.001854715772
   17         18.521100000000         0.014099566733
   18          8.285360000000        -0.072103991746
   19          2.499390000000         0.129181209125
   20          1.322160000000         0.146099366785
   21          0.688707000000         0.066734001975
   22         13.248633034000         0.000843450631
   23          3.024016125900        -0.014585089084
   24          1.080544837900        -0.033324538325
   25         13.248633034000        -0.000529181236
   26          3.024016125900         0.009150690261
   27          1.080544837900         0.020907827613
   28         13.248633034000        -0.000292624844
   29          3.024016125900         0.005060117639
   30          1.080544837900         0.011561539543
   31          0.333535815100         0.208309566657
   32          0.333535815100        -0.130693498807
 S 18
    1       8931.840000000000        -0.000012908781
    2       1352.220000000000        -0.000089002582
    3        303.393000000000        -0.000324757539
    4         45.122900000000        -0.007954521346
    5         28.182200000000         0.059332793812
    6         17.604800000000        -0.176358967322
    7          6.940580000000         0.426988895587
    8          4.333770000000         0.107834448249
    9          1.986840000000        -0.458196192261
   10          1.043867241300        -1.344409963290
   11         20.245544208000        -0.014421896941
   12         11.072298416000         0.071721457332
   13          2.492923891600        -0.258920621454
   14          0.532444841600         1.620134611484
   15          0.212113074100         0.437082493605
   16          0.095475196500         0.001143174205
   17          0.042357644900        -0.007645348326
   18          0.018349388900         0.003104463136
 P 32
    1        129.233000000000        -0.000110351097
    2         29.628400000000         0.002440776722
    3         18.521100000000        -0.018554807583
    4          8.285360000000         0.094887716635
    5          2.499390000000        -0.170000435054
    6          1.322160000000        -0.192264463871
    7          0.688707000000        -0.087820894738
    8        129.233000000000         0.000084291251
    9         29.628400000000        -0.001864377689
   10         18.521100000000         0.014173016721
   11          8.285360000000        -0.072479608773
   12          2.499390000000         0.129854163014
   13          1.322160000000         0.146860453772
   14          0.688707000000         0.067081644690
   15        129.233000000000        -0.000008355687
   16         29.628400000000         0.000184813445
   17         18.521100000000        -0.001404953547
   18          8.285360000000         0.007184813611
   19          2.499390000000        -0.012872281924
   20          1.322160000000        -0.014558094408
   21          0.688707000000        -0.006649720135
   22         13.248633034000         0.003358113726
   23          3.024016125900        -0.058069063032
   24          1.080544837900        -0.132678292561
   25         13.248633034000        -0.002565081949
   26          3.024016125900         0.044355825176
   27          1.080544837900         0.101345791411
   28         13.248633034000         0.000254273388
   29          3.024016125900        -0.004396937868
   30          1.080544837900        -0.010046282449
   31          0.333535815100         1.189379673477
   32          0.333535815100        -0.908502980927
 S 18
    1       8931.840000000000        -0.000002653897
    2       1352.220000000000        -0.000018297906
    3        303.393000000000        -0.000066766412
    4         45.122900000000        -0.001635358021
    5         28.182200000000         0.012198139407
    6         17.604800000000        -0.036257373550
    7          6.940580000000         0.087784001710
    8          4.333770000000         0.022169521239
    9          1.986840000000        -0.094199862667
   10          1.043867241300        -0.424702595544
   11         20.245544208000        -0.003408947354
   12         11.072298416000         0.016953017565
   13          2.492923891600        -0.061201849584
   14          0.532444841600         0.741354487067
   15          0.212113074100         0.073751791519
   16          0.095475196500        -0.131468234114
   17          0.042357644900        -1.882791246989
   18          0.018349388900         2.171325274264
 S 18
    1       8931.840000000000         0.000003783563
    2       1352.220000000000         0.000026086652
    3        303.393000000000         0.000095186417
    4         45.122900000000         0.002331469774
    5         28.182200000000        -0.017390438641
    6         17.604800000000         0.051690803736
    7          6.940580000000        -0.125150422087
    8          4.333770000000        -0.031606270920
    9          1.986840000000         0.134297279046
   10          1.043867241300         0.393818222332
   11         20.245544208000         0.007908255315
   12         11.072298416000        -0.039328501546
   13          2.492923891600         0.141979268688
   14          0.532444841600        -0.336701788525
   15          0.212113074100        -2.851006048956
   16          0.095475196500         6.986086816274
   17          0.042357644900        -6.749842269370
   18          0.018349388900         2.584588398033
 S 18
    1       8931.840000000000        -0.000012814248
    2       1352.220000000000        -0.000088350805
    3        303.393000000000        -0.000322379298
    4         45.122900000000        -0.007896269376
    5         28.182200000000         0.058898292227
    6         17.604800000000        -0.175067468205
    7          6.940580000000         0.423862001674
    8          4.333770000000         0.107044762889
    9          1.986840000000        -0.454840763351
   10          1.043867241300        -3.350123899748
   11         20.245544208000        -0.007239547566
   12         11.072298416000         0.036002954673
   13          2.492923891600        -0.129973758830
   14          0.532444841600         8.197636196645
   15          0.212113074100       -10.149991304701
   16          0.095475196500         8.630414143124
   17          0.042357644900        -4.369385690277
   18          0.018349388900         1.160711822251
 S 18
    1       8931.840000000000        -0.000008974992
    2       1352.220000000000        -0.000061880163
    3        303.393000000000        -0.000225791758
    4         45.122900000000        -0.005530480871
    5         28.182200000000         0.041251870091
    6         17.604800000000        -0.122615787019
    7          6.940580000000         0.296869392444
    8          4.333770000000         0.074973254497
    9          1.986840000000        -0.318566657405
   10          1.043867241300        -9.806740851242
   11         20.245544208000         0.287506219044
   12         11.072298416000        -1.429795616090
   13          2.492923891600         5.161684985821
   14          0.532444841600         9.412359450882
   15          0.212113074100        -5.832980952405
   16          0.095475196500         3.729657967159
   17          0.042357644900        -1.727540404151
   18          0.018349388900         0.462148125666
 S 18
    1       8931.840000000000        -0.000063590401
    2       1352.220000000000        -0.000438438762
    3        303.393000000000        -0.001599799577
    4         45.122900000000        -0.039185048447
    5         28.182200000000         0.292281370420
    6         17.604800000000        -0.868768135516
    7          6.940580000000         2.103405073972
    8          4.333770000000         0.531207082760
    9          1.986840000000        -2.257136439932
   10          1.043867241300         6.165290145614
   11         20.245544208000        -0.145655742461
   12         11.072298416000         0.724359781581
   13          2.492923891600        -2.615001030107
   14          0.532444841600        -4.643454178743
   15          0.212113074100         2.582913717533
   16          0.095475196500        -1.621434021341
   17          0.042357644900         0.752173505685
   18          0.018349388900        -0.202218343658
 P 32
    1        129.233000000000        -0.000080461566
    2         29.628400000000         0.001779671640
    3         18.521100000000        -0.013529080536
    4          8.285360000000         0.069186573585
    5          2.499390000000        -0.123954374985
    6          1.322160000000        -0.140188002716
    7          0.688707000000        -0.064033860351
    8        129.233000000000        -0.000108819818
    9         29.628400000000         0.002406907459
   10         18.521100000000        -0.018297333131
   11          8.285360000000         0.093571014062
   12          2.499390000000        -0.167641436248
   13          1.322160000000        -0.189596519872
   14          0.688707000000        -0.086602254411
   15        129.233000000000        -0.000035130144
   16         29.628400000000         0.000777018449
   17         18.521100000000        -0.005906901558
   18          8.285360000000         0.030207394966
   19          2.499390000000        -0.054119442096
   20          1.322160000000        -0.061207169948
   21          0.688707000000        -0.027957680379
   22         13.248633034000         0.002460069219
   23          3.024016125900        -0.042539927530
   24          1.080544837900        -0.097196762882
   25         13.248633034000         0.003327107553
   26          3.024016125900        -0.057532899100
   27          1.080544837900        -0.131453245843
   28         13.248633034000         0.001074085313
   29          3.024016125900        -0.018573262501
   30          1.080544837900        -0.042436860993
   31          0.333535815100         0.875344491184
   32          0.333535815100         1.183855009004
 P 32
    1        129.233000000000         0.000027494541
    2         29.628400000000        -0.000608132022
    3         18.521100000000         0.004623025346
    4          8.285360000000        -0.023641760611
    5          2.499390000000         0.042356479129
    6          1.322160000000         0.047903675945
    7          0.688707000000         0.021881025739
    8        129.233000000000        -0.000007379225
    9         29.628400000000         0.000163215786
   10         18.521100000000        -0.001240767937
   11          8.285360000000         0.006345182288
   12          2.499390000000        -0.011368001967
   13          1.322160000000        -0.012856807118
   14          0.688707000000        -0.005872620878
   15        129.233000000000        -0.000040115062
   16         29.628400000000         0.000887276256
   17         18.521100000000        -0.006745082436
   18          8.285360000000         0.034493781086
   19          2.499390000000        -0.061798913486
   20          1.322160000000        -0.069892379778
   21          0.688707000000        -0.031924835219
   22         13.248633034000        -0.001038951472
   23          3.024016125900         0.017965722249
   24          1.080544837900         0.041048731081
   25         13.248633034000         0.000278842874
   26          3.024016125900        -0.004821797516
   27          1.080544837900        -0.011017017119
   28         13.248633034000         0.001515850076
   29          3.024016125900        -0.026212332511
   30          1.080544837900        -0.059890884062
   31          0.333535815100        -0.480311546905
   32          0.333535815100         0.128910209780
 P 32
    1        129.233000000000        -0.000016906883
    2         29.628400000000         0.000373951202
    3         18.521100000000        -0.002842780554
    4          8.285360000000         0.014537739313
    5          2.499390000000        -0.026045752765
    6          1.322160000000        -0.029456822801
    7          0.688707000000        -0.013455032107
    8        129.233000000000        -0.000022865624
    9         29.628400000000         0.000505748318
   10         18.521100000000        -0.003844703465
   11          8.285360000000         0.019661488338
   12          2.499390000000        -0.035225440023
   13          1.322160000000        -0.039838723581
   14          0.688707000000        -0.018197186727
   15        129.233000000000        -0.000007381676
   16         29.628400000000         0.000163269997
   17         18.521100000000        -0.001241180052
   18          8.285360000000         0.006347289808
   19          2.499390000000        -0.011371777791
   20          1.322160000000        -0.012861077442
   21          0.688707000000        -0.005874571439
   22         13.248633034000         0.000627028094
   23          3.024016125900        -0.010842674462
   24          1.080544837900        -0.024773734228
   25         13.248633034000         0.000848020817
   26          3.024016125900        -0.014664117502
   27          1.080544837900        -0.033505105308
   28         13.248633034000         0.000273765332
   29          3.024016125900        -0.004733995817
   30          1.080544837900        -0.010816404626
   31          0.333535815100         0.243357877437
   32          0.333535815100         0.329128069104
 P 32
    1        129.233000000000        -0.000050396531
    2         29.628400000000         0.001114684701
    3         18.521100000000        -0.008473843579
    4          8.285360000000         0.043334519355
    5          2.499390000000        -0.077637943081
    6          1.322160000000        -0.087805760602
    7          0.688707000000        -0.040107153990
    8        129.233000000000        -0.000068158521
    9         29.628400000000         0.001507549405
   10         18.521100000000        -0.011460404752
   11          8.285360000000         0.058607540594
   12          2.499390000000        -0.105001023861
   13          1.322160000000        -0.118752434675
   14          0.688707000000        -0.054242707443
   15        129.233000000000        -0.000022003517
   16         29.628400000000         0.000486679991
   17         18.521100000000        -0.003699745870
   18          8.285360000000         0.018920187458
   19          2.499390000000        -0.033897328477
   20          1.322160000000        -0.038336676516
   21          0.688707000000        -0.017511094693
   22         13.248633034000         0.002266132135
   23          3.024016125900        -0.039186335105
   24          1.080544837900        -0.089534353783
   25         13.248633034000         0.003064818373
   26          3.024016125900        -0.052997350832
   27          1.080544837900        -0.121090261344
   28         13.248633034000         0.000989410877
   29          3.024016125900        -0.017109058021
   30          1.080544837900        -0.039091393714
   31          0.333535815100         1.525301867021
   32          0.333535815100         2.062886410661
 P 32
    1        129.233000000000        -0.001002620306
    2         29.628400000000         0.022176238971
    3         18.521100000000        -0.168583977130
    4          8.285360000000         0.862124200396
    5          2.499390000000        -1.544578100677
    6          1.322160000000        -1.746863061496
    7          0.688707000000        -0.797916962692
    8        129.233000000000        -0.001355988507
    9         29.628400000000         0.029992136604
   10         18.521100000000        -0.228000504407
   11          8.285360000000         1.165975295508
   12          2.499390000000        -2.088956447974
   13          1.322160000000        -2.362535668764
   14          0.688707000000        -1.079138557923
   15        129.233000000000        -0.000437751807
   16         29.628400000000         0.009682318061
   17         18.521100000000        -0.073605072920
   18          8.285360000000         0.376410117477
   19          2.499390000000        -0.674374787369
   20          1.322160000000        -0.762693971346
   21          0.688707000000        -0.348376739135
   22         13.248633034000        -0.065977720979
   23          3.024016125900         1.140897762980
   24          1.080544837900         2.606764415923
   25         13.248633034000        -0.089231218286
   26          3.024016125900         1.543001119472
   27          1.080544837900         3.525504688047
   28         13.248633034000        -0.028806385081
   29          3.024016125900         0.498124818669
   30          1.080544837900         1.138133577020
   31          0.333535815100         0.125898042981
   32          0.333535815100         0.170270139501
 end
  // -----------------------------------------------
  // The basis set
  // -----------------------------------------------
  BAS[ATNO] = new BFNGauss[NSH];
  // Basis function   1 L = s
  InitBFNGauss(BAS[ATNO][  0]);
  BAS[ATNO][  0].l  = 0;
  BAS[ATNO][  0].ng = 18;
  BAS[ATNO][  0].a[  0] =      8931.840000000000;     BAS[ATNO][  0].d[  0] =         0.000020933851;
  BAS[ATNO][  0].a[  1] =      1352.220000000000;     BAS[ATNO][  0].d[  1] =         0.000144333293;
  BAS[ATNO][  0].a[  2] =       303.393000000000;     BAS[ATNO][  0].d[  2] =         0.000526651294;
  BAS[ATNO][  0].a[  3] =        45.122900000000;     BAS[ATNO][  0].d[  3] =         0.012899651156;
  BAS[ATNO][  0].a[  4] =        28.182200000000;     BAS[ATNO][  0].d[  4] =        -0.096218528938;
  BAS[ATNO][  0].a[  5] =        17.604800000000;     BAS[ATNO][  0].d[  5] =         0.285996989364;
  BAS[ATNO][  0].a[  6] =         6.940580000000;     BAS[ATNO][  0].d[  6] =        -0.692437365017;
  BAS[ATNO][  0].a[  7] =         4.333770000000;     BAS[ATNO][  0].d[  7] =        -0.174872466182;
  BAS[ATNO][  0].a[  8] =         1.986840000000;     BAS[ATNO][  0].d[  8] =         0.743045468650;
  BAS[ATNO][  0].a[  9] =         1.043867241300;     BAS[ATNO][  0].d[  9] =         0.718993783973;
  BAS[ATNO][  0].a[ 10] =        20.245544208000;     BAS[ATNO][  0].d[ 10] =         0.006482054782;
  BAS[ATNO][  0].a[ 11] =        11.072298416000;     BAS[ATNO][  0].d[ 11] =        -0.032235871424;
  BAS[ATNO][  0].a[ 12] =         2.492923891600;     BAS[ATNO][  0].d[ 12] =         0.116374264729;
  BAS[ATNO][  0].a[ 13] =         0.532444841600;     BAS[ATNO][  0].d[ 13] =        -0.169589505781;
  BAS[ATNO][  0].a[ 14] =         0.212113074100;     BAS[ATNO][  0].d[ 14] =         0.102841901961;
  BAS[ATNO][  0].a[ 15] =         0.095475196500;     BAS[ATNO][  0].d[ 15] =        -0.064946944479;
  BAS[ATNO][  0].a[ 16] =         0.042357644900;     BAS[ATNO][  0].d[ 16] =         0.030513788865;
  BAS[ATNO][  0].a[ 17] =         0.018349388900;     BAS[ATNO][  0].d[ 17] =        -0.008299227278;

  // Basis function   2 L = p
  InitBFNGauss(BAS[ATNO][  1]);
  BAS[ATNO][  1].l  = 1;
  BAS[ATNO][  1].ng = 32;
  BAS[ATNO][  1].a[  0] =       129.233000000000;     BAS[ATNO][  1].d[  0] =         0.000241698770;
  BAS[ATNO][  1].a[  1] =        29.628400000000;     BAS[ATNO][  1].d[  1] =        -0.005345961633;
  BAS[ATNO][  1].a[  2] =        18.521100000000;     BAS[ATNO][  1].d[  2] =         0.040640050593;
  BAS[ATNO][  1].a[  3] =         8.285360000000;     BAS[ATNO][  1].d[  3] =        -0.207829781444;
  BAS[ATNO][  1].a[  4] =         2.499390000000;     BAS[ATNO][  1].d[  4] =         0.372346964555;
  BAS[ATNO][  1].a[  5] =         1.322160000000;     BAS[ATNO][  1].d[  5] =         0.421111213577;
  BAS[ATNO][  1].a[  6] =         0.688707000000;     BAS[ATNO][  1].d[  6] =         0.192351528806;
  BAS[ATNO][  1].a[  7] =       129.233000000000;     BAS[ATNO][  1].d[  7] =        -0.000151641897;
  BAS[ATNO][  1].a[  8] =        29.628400000000;     BAS[ATNO][  1].d[  8] =         0.003354058297;
  BAS[ATNO][  1].a[  9] =        18.521100000000;     BAS[ATNO][  1].d[  9] =        -0.025497582703;
  BAS[ATNO][  1].a[ 10] =         8.285360000000;     BAS[ATNO][  1].d[ 10] =         0.130392481388;
  BAS[ATNO][  1].a[ 11] =         2.499390000000;     BAS[ATNO][  1].d[ 11] =        -0.233610622637;
  BAS[ATNO][  1].a[ 12] =         1.322160000000;     BAS[ATNO][  1].d[ 12] =        -0.264205330425;
  BAS[ATNO][  1].a[ 13] =         0.688707000000;     BAS[ATNO][  1].d[ 13] =        -0.120681419985;
  BAS[ATNO][  1].a[ 14] =       129.233000000000;     BAS[ATNO][  1].d[ 14] =        -0.000083854422;
  BAS[ATNO][  1].a[ 15] =        29.628400000000;     BAS[ATNO][  1].d[ 15] =         0.001854715772;
  BAS[ATNO][  1].a[ 16] =        18.521100000000;     BAS[ATNO][  1].d[ 16] =        -0.014099566733;
  BAS[ATNO][  1].a[ 17] =         8.285360000000;     BAS[ATNO][  1].d[ 17] =         0.072103991746;
  BAS[ATNO][  1].a[ 18] =         2.499390000000;     BAS[ATNO][  1].d[ 18] =        -0.129181209125;
  BAS[ATNO][  1].a[ 19] =         1.322160000000;     BAS[ATNO][  1].d[ 19] =        -0.146099366785;
  BAS[ATNO][  1].a[ 20] =         0.688707000000;     BAS[ATNO][  1].d[ 20] =        -0.066734001975;
  BAS[ATNO][  1].a[ 21] =        13.248633034000;     BAS[ATNO][  1].d[ 21] =        -0.000843450631;
  BAS[ATNO][  1].a[ 22] =         3.024016125900;     BAS[ATNO][  1].d[ 22] =         0.014585089084;
  BAS[ATNO][  1].a[ 23] =         1.080544837900;     BAS[ATNO][  1].d[ 23] =         0.033324538325;
  BAS[ATNO][  1].a[ 24] =        13.248633034000;     BAS[ATNO][  1].d[ 24] =         0.000529181236;
  BAS[ATNO][  1].a[ 25] =         3.024016125900;     BAS[ATNO][  1].d[ 25] =        -0.009150690261;
  BAS[ATNO][  1].a[ 26] =         1.080544837900;     BAS[ATNO][  1].d[ 26] =        -0.020907827613;
  BAS[ATNO][  1].a[ 27] =        13.248633034000;     BAS[ATNO][  1].d[ 27] =         0.000292624844;
  BAS[ATNO][  1].a[ 28] =         3.024016125900;     BAS[ATNO][  1].d[ 28] =        -0.005060117639;
  BAS[ATNO][  1].a[ 29] =         1.080544837900;     BAS[ATNO][  1].d[ 29] =        -0.011561539543;
  BAS[ATNO][  1].a[ 30] =         0.333535815100;     BAS[ATNO][  1].d[ 30] =        -0.208309566657;
  BAS[ATNO][  1].a[ 31] =         0.333535815100;     BAS[ATNO][  1].d[ 31] =         0.130693498807;

  // Basis function   3 L = s
  InitBFNGauss(BAS[ATNO][  2]);
  BAS[ATNO][  2].l  = 0;
  BAS[ATNO][  2].ng = 18;
  BAS[ATNO][  2].a[  0] =      8931.840000000000;     BAS[ATNO][  2].d[  0] =        -0.000012908781;
  BAS[ATNO][  2].a[  1] =      1352.220000000000;     BAS[ATNO][  2].d[  1] =        -0.000089002582;
  BAS[ATNO][  2].a[  2] =       303.393000000000;     BAS[ATNO][  2].d[  2] =        -0.000324757539;
  BAS[ATNO][  2].a[  3] =        45.122900000000;     BAS[ATNO][  2].d[  3] =        -0.007954521346;
  BAS[ATNO][  2].a[  4] =        28.182200000000;     BAS[ATNO][  2].d[  4] =         0.059332793812;
  BAS[ATNO][  2].a[  5] =        17.604800000000;     BAS[ATNO][  2].d[  5] =        -0.176358967322;
  BAS[ATNO][  2].a[  6] =         6.940580000000;     BAS[ATNO][  2].d[  6] =         0.426988895587;
  BAS[ATNO][  2].a[  7] =         4.333770000000;     BAS[ATNO][  2].d[  7] =         0.107834448249;
  BAS[ATNO][  2].a[  8] =         1.986840000000;     BAS[ATNO][  2].d[  8] =        -0.458196192261;
  BAS[ATNO][  2].a[  9] =         1.043867241300;     BAS[ATNO][  2].d[  9] =        -1.344409963290;
  BAS[ATNO][  2].a[ 10] =        20.245544208000;     BAS[ATNO][  2].d[ 10] =        -0.014421896941;
  BAS[ATNO][  2].a[ 11] =        11.072298416000;     BAS[ATNO][  2].d[ 11] =         0.071721457332;
  BAS[ATNO][  2].a[ 12] =         2.492923891600;     BAS[ATNO][  2].d[ 12] =        -0.258920621454;
  BAS[ATNO][  2].a[ 13] =         0.532444841600;     BAS[ATNO][  2].d[ 13] =         1.620134611484;
  BAS[ATNO][  2].a[ 14] =         0.212113074100;     BAS[ATNO][  2].d[ 14] =         0.437082493605;
  BAS[ATNO][  2].a[ 15] =         0.095475196500;     BAS[ATNO][  2].d[ 15] =         0.001143174205;
  BAS[ATNO][  2].a[ 16] =         0.042357644900;     BAS[ATNO][  2].d[ 16] =        -0.007645348326;
  BAS[ATNO][  2].a[ 17] =         0.018349388900;     BAS[ATNO][  2].d[ 17] =         0.003104463136;

  // Basis function   4 L = p
  InitBFNGauss(BAS[ATNO][  3]);
  BAS[ATNO][  3].l  = 1;
  BAS[ATNO][  3].ng = 32;
  BAS[ATNO][  3].a[  0] =       129.233000000000;     BAS[ATNO][  3].d[  0] =        -0.000110351097;
  BAS[ATNO][  3].a[  1] =        29.628400000000;     BAS[ATNO][  3].d[  1] =         0.002440776722;
  BAS[ATNO][  3].a[  2] =        18.521100000000;     BAS[ATNO][  3].d[  2] =        -0.018554807583;
  BAS[ATNO][  3].a[  3] =         8.285360000000;     BAS[ATNO][  3].d[  3] =         0.094887716635;
  BAS[ATNO][  3].a[  4] =         2.499390000000;     BAS[ATNO][  3].d[  4] =        -0.170000435054;
  BAS[ATNO][  3].a[  5] =         1.322160000000;     BAS[ATNO][  3].d[  5] =        -0.192264463871;
  BAS[ATNO][  3].a[  6] =         0.688707000000;     BAS[ATNO][  3].d[  6] =        -0.087820894738;
  BAS[ATNO][  3].a[  7] =       129.233000000000;     BAS[ATNO][  3].d[  7] =         0.000084291251;
  BAS[ATNO][  3].a[  8] =        29.628400000000;     BAS[ATNO][  3].d[  8] =        -0.001864377689;
  BAS[ATNO][  3].a[  9] =        18.521100000000;     BAS[ATNO][  3].d[  9] =         0.014173016721;
  BAS[ATNO][  3].a[ 10] =         8.285360000000;     BAS[ATNO][  3].d[ 10] =        -0.072479608773;
  BAS[ATNO][  3].a[ 11] =         2.499390000000;     BAS[ATNO][  3].d[ 11] =         0.129854163014;
  BAS[ATNO][  3].a[ 12] =         1.322160000000;     BAS[ATNO][  3].d[ 12] =         0.146860453772;
  BAS[ATNO][  3].a[ 13] =         0.688707000000;     BAS[ATNO][  3].d[ 13] =         0.067081644690;
  BAS[ATNO][  3].a[ 14] =       129.233000000000;     BAS[ATNO][  3].d[ 14] =        -0.000008355687;
  BAS[ATNO][  3].a[ 15] =        29.628400000000;     BAS[ATNO][  3].d[ 15] =         0.000184813445;
  BAS[ATNO][  3].a[ 16] =        18.521100000000;     BAS[ATNO][  3].d[ 16] =        -0.001404953547;
  BAS[ATNO][  3].a[ 17] =         8.285360000000;     BAS[ATNO][  3].d[ 17] =         0.007184813611;
  BAS[ATNO][  3].a[ 18] =         2.499390000000;     BAS[ATNO][  3].d[ 18] =        -0.012872281924;
  BAS[ATNO][  3].a[ 19] =         1.322160000000;     BAS[ATNO][  3].d[ 19] =        -0.014558094408;
  BAS[ATNO][  3].a[ 20] =         0.688707000000;     BAS[ATNO][  3].d[ 20] =        -0.006649720135;
  BAS[ATNO][  3].a[ 21] =        13.248633034000;     BAS[ATNO][  3].d[ 21] =         0.003358113726;
  BAS[ATNO][  3].a[ 22] =         3.024016125900;     BAS[ATNO][  3].d[ 22] =        -0.058069063032;
  BAS[ATNO][  3].a[ 23] =         1.080544837900;     BAS[ATNO][  3].d[ 23] =        -0.132678292561;
  BAS[ATNO][  3].a[ 24] =        13.248633034000;     BAS[ATNO][  3].d[ 24] =        -0.002565081949;
  BAS[ATNO][  3].a[ 25] =         3.024016125900;     BAS[ATNO][  3].d[ 25] =         0.044355825176;
  BAS[ATNO][  3].a[ 26] =         1.080544837900;     BAS[ATNO][  3].d[ 26] =         0.101345791411;
  BAS[ATNO][  3].a[ 27] =        13.248633034000;     BAS[ATNO][  3].d[ 27] =         0.000254273388;
  BAS[ATNO][  3].a[ 28] =         3.024016125900;     BAS[ATNO][  3].d[ 28] =        -0.004396937868;
  BAS[ATNO][  3].a[ 29] =         1.080544837900;     BAS[ATNO][  3].d[ 29] =        -0.010046282449;
  BAS[ATNO][  3].a[ 30] =         0.333535815100;     BAS[ATNO][  3].d[ 30] =         1.189379673477;
  BAS[ATNO][  3].a[ 31] =         0.333535815100;     BAS[ATNO][  3].d[ 31] =        -0.908502980927;

  // Basis function   5 L = s
  InitBFNGauss(BAS[ATNO][  4]);
  BAS[ATNO][  4].l  = 0;
  BAS[ATNO][  4].ng = 18;
  BAS[ATNO][  4].a[  0] =      8931.840000000000;     BAS[ATNO][  4].d[  0] =        -0.000002653897;
  BAS[ATNO][  4].a[  1] =      1352.220000000000;     BAS[ATNO][  4].d[  1] =        -0.000018297906;
  BAS[ATNO][  4].a[  2] =       303.393000000000;     BAS[ATNO][  4].d[  2] =        -0.000066766412;
  BAS[ATNO][  4].a[  3] =        45.122900000000;     BAS[ATNO][  4].d[  3] =        -0.001635358021;
  BAS[ATNO][  4].a[  4] =        28.182200000000;     BAS[ATNO][  4].d[  4] =         0.012198139407;
  BAS[ATNO][  4].a[  5] =        17.604800000000;     BAS[ATNO][  4].d[  5] =        -0.036257373550;
  BAS[ATNO][  4].a[  6] =         6.940580000000;     BAS[ATNO][  4].d[  6] =         0.087784001710;
  BAS[ATNO][  4].a[  7] =         4.333770000000;     BAS[ATNO][  4].d[  7] =         0.022169521239;
  BAS[ATNO][  4].a[  8] =         1.986840000000;     BAS[ATNO][  4].d[  8] =        -0.094199862667;
  BAS[ATNO][  4].a[  9] =         1.043867241300;     BAS[ATNO][  4].d[  9] =        -0.424702595544;
  BAS[ATNO][  4].a[ 10] =        20.245544208000;     BAS[ATNO][  4].d[ 10] =        -0.003408947354;
  BAS[ATNO][  4].a[ 11] =        11.072298416000;     BAS[ATNO][  4].d[ 11] =         0.016953017565;
  BAS[ATNO][  4].a[ 12] =         2.492923891600;     BAS[ATNO][  4].d[ 12] =        -0.061201849584;
  BAS[ATNO][  4].a[ 13] =         0.532444841600;     BAS[ATNO][  4].d[ 13] =         0.741354487067;
  BAS[ATNO][  4].a[ 14] =         0.212113074100;     BAS[ATNO][  4].d[ 14] =         0.073751791519;
  BAS[ATNO][  4].a[ 15] =         0.095475196500;     BAS[ATNO][  4].d[ 15] =        -0.131468234114;
  BAS[ATNO][  4].a[ 16] =         0.042357644900;     BAS[ATNO][  4].d[ 16] =        -1.882791246989;
  BAS[ATNO][  4].a[ 17] =         0.018349388900;     BAS[ATNO][  4].d[ 17] =         2.171325274264;

  // Basis function   6 L = s
  InitBFNGauss(BAS[ATNO][  5]);
  BAS[ATNO][  5].l  = 0;
  BAS[ATNO][  5].ng = 18;
  BAS[ATNO][  5].a[  0] =      8931.840000000000;     BAS[ATNO][  5].d[  0] =         0.000003783563;
  BAS[ATNO][  5].a[  1] =      1352.220000000000;     BAS[ATNO][  5].d[  1] =         0.000026086652;
  BAS[ATNO][  5].a[  2] =       303.393000000000;     BAS[ATNO][  5].d[  2] =         0.000095186417;
  BAS[ATNO][  5].a[  3] =        45.122900000000;     BAS[ATNO][  5].d[  3] =         0.002331469774;
  BAS[ATNO][  5].a[  4] =        28.182200000000;     BAS[ATNO][  5].d[  4] =        -0.017390438641;
  BAS[ATNO][  5].a[  5] =        17.604800000000;     BAS[ATNO][  5].d[  5] =         0.051690803736;
  BAS[ATNO][  5].a[  6] =         6.940580000000;     BAS[ATNO][  5].d[  6] =        -0.125150422087;
  BAS[ATNO][  5].a[  7] =         4.333770000000;     BAS[ATNO][  5].d[  7] =        -0.031606270920;
  BAS[ATNO][  5].a[  8] =         1.986840000000;     BAS[ATNO][  5].d[  8] =         0.134297279046;
  BAS[ATNO][  5].a[  9] =         1.043867241300;     BAS[ATNO][  5].d[  9] =         0.393818222332;
  BAS[ATNO][  5].a[ 10] =        20.245544208000;     BAS[ATNO][  5].d[ 10] =         0.007908255315;
  BAS[ATNO][  5].a[ 11] =        11.072298416000;     BAS[ATNO][  5].d[ 11] =        -0.039328501546;
  BAS[ATNO][  5].a[ 12] =         2.492923891600;     BAS[ATNO][  5].d[ 12] =         0.141979268688;
  BAS[ATNO][  5].a[ 13] =         0.532444841600;     BAS[ATNO][  5].d[ 13] =        -0.336701788525;
  BAS[ATNO][  5].a[ 14] =         0.212113074100;     BAS[ATNO][  5].d[ 14] =        -2.851006048956;
  BAS[ATNO][  5].a[ 15] =         0.095475196500;     BAS[ATNO][  5].d[ 15] =         6.986086816274;
  BAS[ATNO][  5].a[ 16] =         0.042357644900;     BAS[ATNO][  5].d[ 16] =        -6.749842269370;
  BAS[ATNO][  5].a[ 17] =         0.018349388900;     BAS[ATNO][  5].d[ 17] =         2.584588398033;

  // Basis function   7 L = s
  InitBFNGauss(BAS[ATNO][  6]);
  BAS[ATNO][  6].l  = 0;
  BAS[ATNO][  6].ng = 18;
  BAS[ATNO][  6].a[  0] =      8931.840000000000;     BAS[ATNO][  6].d[  0] =         0.000012814248;
  BAS[ATNO][  6].a[  1] =      1352.220000000000;     BAS[ATNO][  6].d[  1] =         0.000088350805;
  BAS[ATNO][  6].a[  2] =       303.393000000000;     BAS[ATNO][  6].d[  2] =         0.000322379298;
  BAS[ATNO][  6].a[  3] =        45.122900000000;     BAS[ATNO][  6].d[  3] =         0.007896269376;
  BAS[ATNO][  6].a[  4] =        28.182200000000;     BAS[ATNO][  6].d[  4] =        -0.058898292227;
  BAS[ATNO][  6].a[  5] =        17.604800000000;     BAS[ATNO][  6].d[  5] =         0.175067468205;
  BAS[ATNO][  6].a[  6] =         6.940580000000;     BAS[ATNO][  6].d[  6] =        -0.423862001674;
  BAS[ATNO][  6].a[  7] =         4.333770000000;     BAS[ATNO][  6].d[  7] =        -0.107044762889;
  BAS[ATNO][  6].a[  8] =         1.986840000000;     BAS[ATNO][  6].d[  8] =         0.454840763351;
  BAS[ATNO][  6].a[  9] =         1.043867241300;     BAS[ATNO][  6].d[  9] =         3.350123899748;
  BAS[ATNO][  6].a[ 10] =        20.245544208000;     BAS[ATNO][  6].d[ 10] =         0.007239547566;
  BAS[ATNO][  6].a[ 11] =        11.072298416000;     BAS[ATNO][  6].d[ 11] =        -0.036002954673;
  BAS[ATNO][  6].a[ 12] =         2.492923891600;     BAS[ATNO][  6].d[ 12] =         0.129973758830;
  BAS[ATNO][  6].a[ 13] =         0.532444841600;     BAS[ATNO][  6].d[ 13] =        -8.197636196645;
  BAS[ATNO][  6].a[ 14] =         0.212113074100;     BAS[ATNO][  6].d[ 14] =        10.149991304701;
  BAS[ATNO][  6].a[ 15] =         0.095475196500;     BAS[ATNO][  6].d[ 15] =        -8.630414143124;
  BAS[ATNO][  6].a[ 16] =         0.042357644900;     BAS[ATNO][  6].d[ 16] =         4.369385690277;
  BAS[ATNO][  6].a[ 17] =         0.018349388900;     BAS[ATNO][  6].d[ 17] =        -1.160711822251;

  // Basis function   8 L = s
  InitBFNGauss(BAS[ATNO][  7]);
  BAS[ATNO][  7].l  = 0;
  BAS[ATNO][  7].ng = 18;
  BAS[ATNO][  7].a[  0] =      8931.840000000000;     BAS[ATNO][  7].d[  0] =         0.000008974992;
  BAS[ATNO][  7].a[  1] =      1352.220000000000;     BAS[ATNO][  7].d[  1] =         0.000061880163;
  BAS[ATNO][  7].a[  2] =       303.393000000000;     BAS[ATNO][  7].d[  2] =         0.000225791758;
  BAS[ATNO][  7].a[  3] =        45.122900000000;     BAS[ATNO][  7].d[  3] =         0.005530480871;
  BAS[ATNO][  7].a[  4] =        28.182200000000;     BAS[ATNO][  7].d[  4] =        -0.041251870091;
  BAS[ATNO][  7].a[  5] =        17.604800000000;     BAS[ATNO][  7].d[  5] =         0.122615787019;
  BAS[ATNO][  7].a[  6] =         6.940580000000;     BAS[ATNO][  7].d[  6] =        -0.296869392444;
  BAS[ATNO][  7].a[  7] =         4.333770000000;     BAS[ATNO][  7].d[  7] =        -0.074973254497;
  BAS[ATNO][  7].a[  8] =         1.986840000000;     BAS[ATNO][  7].d[  8] =         0.318566657405;
  BAS[ATNO][  7].a[  9] =         1.043867241300;     BAS[ATNO][  7].d[  9] =         9.806740851242;
  BAS[ATNO][  7].a[ 10] =        20.245544208000;     BAS[ATNO][  7].d[ 10] =        -0.287506219044;
  BAS[ATNO][  7].a[ 11] =        11.072298416000;     BAS[ATNO][  7].d[ 11] =         1.429795616090;
  BAS[ATNO][  7].a[ 12] =         2.492923891600;     BAS[ATNO][  7].d[ 12] =        -5.161684985821;
  BAS[ATNO][  7].a[ 13] =         0.532444841600;     BAS[ATNO][  7].d[ 13] =        -9.412359450882;
  BAS[ATNO][  7].a[ 14] =         0.212113074100;     BAS[ATNO][  7].d[ 14] =         5.832980952405;
  BAS[ATNO][  7].a[ 15] =         0.095475196500;     BAS[ATNO][  7].d[ 15] =        -3.729657967159;
  BAS[ATNO][  7].a[ 16] =         0.042357644900;     BAS[ATNO][  7].d[ 16] =         1.727540404151;
  BAS[ATNO][  7].a[ 17] =         0.018349388900;     BAS[ATNO][  7].d[ 17] =        -0.462148125666;

  // Basis function   9 L = s
  InitBFNGauss(BAS[ATNO][  8]);
  BAS[ATNO][  8].l  = 0;
  BAS[ATNO][  8].ng = 18;
  BAS[ATNO][  8].a[  0] =      8931.840000000000;     BAS[ATNO][  8].d[  0] =        -0.000063590401;
  BAS[ATNO][  8].a[  1] =      1352.220000000000;     BAS[ATNO][  8].d[  1] =        -0.000438438762;
  BAS[ATNO][  8].a[  2] =       303.393000000000;     BAS[ATNO][  8].d[  2] =        -0.001599799577;
  BAS[ATNO][  8].a[  3] =        45.122900000000;     BAS[ATNO][  8].d[  3] =        -0.039185048447;
  BAS[ATNO][  8].a[  4] =        28.182200000000;     BAS[ATNO][  8].d[  4] =         0.292281370420;
  BAS[ATNO][  8].a[  5] =        17.604800000000;     BAS[ATNO][  8].d[  5] =        -0.868768135516;
  BAS[ATNO][  8].a[  6] =         6.940580000000;     BAS[ATNO][  8].d[  6] =         2.103405073972;
  BAS[ATNO][  8].a[  7] =         4.333770000000;     BAS[ATNO][  8].d[  7] =         0.531207082760;
  BAS[ATNO][  8].a[  8] =         1.986840000000;     BAS[ATNO][  8].d[  8] =        -2.257136439932;
  BAS[ATNO][  8].a[  9] =         1.043867241300;     BAS[ATNO][  8].d[  9] =         6.165290145614;
  BAS[ATNO][  8].a[ 10] =        20.245544208000;     BAS[ATNO][  8].d[ 10] =        -0.145655742461;
  BAS[ATNO][  8].a[ 11] =        11.072298416000;     BAS[ATNO][  8].d[ 11] =         0.724359781581;
  BAS[ATNO][  8].a[ 12] =         2.492923891600;     BAS[ATNO][  8].d[ 12] =        -2.615001030107;
  BAS[ATNO][  8].a[ 13] =         0.532444841600;     BAS[ATNO][  8].d[ 13] =        -4.643454178743;
  BAS[ATNO][  8].a[ 14] =         0.212113074100;     BAS[ATNO][  8].d[ 14] =         2.582913717533;
  BAS[ATNO][  8].a[ 15] =         0.095475196500;     BAS[ATNO][  8].d[ 15] =        -1.621434021341;
  BAS[ATNO][  8].a[ 16] =         0.042357644900;     BAS[ATNO][  8].d[ 16] =         0.752173505685;
  BAS[ATNO][  8].a[ 17] =         0.018349388900;     BAS[ATNO][  8].d[ 17] =        -0.202218343658;

  // Basis function  10 L = p
  InitBFNGauss(BAS[ATNO][  9]);
  BAS[ATNO][  9].l  = 1;
  BAS[ATNO][  9].ng = 32;
  BAS[ATNO][  9].a[  0] =       129.233000000000;     BAS[ATNO][  9].d[  0] =        -0.000080461566;
  BAS[ATNO][  9].a[  1] =        29.628400000000;     BAS[ATNO][  9].d[  1] =         0.001779671640;
  BAS[ATNO][  9].a[  2] =        18.521100000000;     BAS[ATNO][  9].d[  2] =        -0.013529080536;
  BAS[ATNO][  9].a[  3] =         8.285360000000;     BAS[ATNO][  9].d[  3] =         0.069186573585;
  BAS[ATNO][  9].a[  4] =         2.499390000000;     BAS[ATNO][  9].d[  4] =        -0.123954374985;
  BAS[ATNO][  9].a[  5] =         1.322160000000;     BAS[ATNO][  9].d[  5] =        -0.140188002716;
  BAS[ATNO][  9].a[  6] =         0.688707000000;     BAS[ATNO][  9].d[  6] =        -0.064033860351;
  BAS[ATNO][  9].a[  7] =       129.233000000000;     BAS[ATNO][  9].d[  7] =        -0.000108819818;
  BAS[ATNO][  9].a[  8] =        29.628400000000;     BAS[ATNO][  9].d[  8] =         0.002406907459;
  BAS[ATNO][  9].a[  9] =        18.521100000000;     BAS[ATNO][  9].d[  9] =        -0.018297333131;
  BAS[ATNO][  9].a[ 10] =         8.285360000000;     BAS[ATNO][  9].d[ 10] =         0.093571014062;
  BAS[ATNO][  9].a[ 11] =         2.499390000000;     BAS[ATNO][  9].d[ 11] =        -0.167641436248;
  BAS[ATNO][  9].a[ 12] =         1.322160000000;     BAS[ATNO][  9].d[ 12] =        -0.189596519872;
  BAS[ATNO][  9].a[ 13] =         0.688707000000;     BAS[ATNO][  9].d[ 13] =        -0.086602254411;
  BAS[ATNO][  9].a[ 14] =       129.233000000000;     BAS[ATNO][  9].d[ 14] =        -0.000035130144;
  BAS[ATNO][  9].a[ 15] =        29.628400000000;     BAS[ATNO][  9].d[ 15] =         0.000777018449;
  BAS[ATNO][  9].a[ 16] =        18.521100000000;     BAS[ATNO][  9].d[ 16] =        -0.005906901558;
  BAS[ATNO][  9].a[ 17] =         8.285360000000;     BAS[ATNO][  9].d[ 17] =         0.030207394966;
  BAS[ATNO][  9].a[ 18] =         2.499390000000;     BAS[ATNO][  9].d[ 18] =        -0.054119442096;
  BAS[ATNO][  9].a[ 19] =         1.322160000000;     BAS[ATNO][  9].d[ 19] =        -0.061207169948;
  BAS[ATNO][  9].a[ 20] =         0.688707000000;     BAS[ATNO][  9].d[ 20] =        -0.027957680379;
  BAS[ATNO][  9].a[ 21] =        13.248633034000;     BAS[ATNO][  9].d[ 21] =         0.002460069219;
  BAS[ATNO][  9].a[ 22] =         3.024016125900;     BAS[ATNO][  9].d[ 22] =        -0.042539927530;
  BAS[ATNO][  9].a[ 23] =         1.080544837900;     BAS[ATNO][  9].d[ 23] =        -0.097196762882;
  BAS[ATNO][  9].a[ 24] =        13.248633034000;     BAS[ATNO][  9].d[ 24] =         0.003327107553;
  BAS[ATNO][  9].a[ 25] =         3.024016125900;     BAS[ATNO][  9].d[ 25] =        -0.057532899100;
  BAS[ATNO][  9].a[ 26] =         1.080544837900;     BAS[ATNO][  9].d[ 26] =        -0.131453245843;
  BAS[ATNO][  9].a[ 27] =        13.248633034000;     BAS[ATNO][  9].d[ 27] =         0.001074085313;
  BAS[ATNO][  9].a[ 28] =         3.024016125900;     BAS[ATNO][  9].d[ 28] =        -0.018573262501;
  BAS[ATNO][  9].a[ 29] =         1.080544837900;     BAS[ATNO][  9].d[ 29] =        -0.042436860993;
  BAS[ATNO][  9].a[ 30] =         0.333535815100;     BAS[ATNO][  9].d[ 30] =         0.875344491184;
  BAS[ATNO][  9].a[ 31] =         0.333535815100;     BAS[ATNO][  9].d[ 31] =         1.183855009004;

  // Basis function  11 L = p
  InitBFNGauss(BAS[ATNO][ 10]);
  BAS[ATNO][ 10].l  = 1;
  BAS[ATNO][ 10].ng = 32;
  BAS[ATNO][ 10].a[  0] =       129.233000000000;     BAS[ATNO][ 10].d[  0] =        -0.000027494541;
  BAS[ATNO][ 10].a[  1] =        29.628400000000;     BAS[ATNO][ 10].d[  1] =         0.000608132022;
  BAS[ATNO][ 10].a[  2] =        18.521100000000;     BAS[ATNO][ 10].d[  2] =        -0.004623025346;
  BAS[ATNO][ 10].a[  3] =         8.285360000000;     BAS[ATNO][ 10].d[  3] =         0.023641760611;
  BAS[ATNO][ 10].a[  4] =         2.499390000000;     BAS[ATNO][ 10].d[  4] =        -0.042356479129;
  BAS[ATNO][ 10].a[  5] =         1.322160000000;     BAS[ATNO][ 10].d[  5] =        -0.047903675945;
  BAS[ATNO][ 10].a[  6] =         0.688707000000;     BAS[ATNO][ 10].d[  6] =        -0.021881025739;
  BAS[ATNO][ 10].a[  7] =       129.233000000000;     BAS[ATNO][ 10].d[  7] =         0.000007379225;
  BAS[ATNO][ 10].a[  8] =        29.628400000000;     BAS[ATNO][ 10].d[  8] =        -0.000163215786;
  BAS[ATNO][ 10].a[  9] =        18.521100000000;     BAS[ATNO][ 10].d[  9] =         0.001240767937;
  BAS[ATNO][ 10].a[ 10] =         8.285360000000;     BAS[ATNO][ 10].d[ 10] =        -0.006345182288;
  BAS[ATNO][ 10].a[ 11] =         2.499390000000;     BAS[ATNO][ 10].d[ 11] =         0.011368001967;
  BAS[ATNO][ 10].a[ 12] =         1.322160000000;     BAS[ATNO][ 10].d[ 12] =         0.012856807118;
  BAS[ATNO][ 10].a[ 13] =         0.688707000000;     BAS[ATNO][ 10].d[ 13] =         0.005872620878;
  BAS[ATNO][ 10].a[ 14] =       129.233000000000;     BAS[ATNO][ 10].d[ 14] =         0.000040115062;
  BAS[ATNO][ 10].a[ 15] =        29.628400000000;     BAS[ATNO][ 10].d[ 15] =        -0.000887276256;
  BAS[ATNO][ 10].a[ 16] =        18.521100000000;     BAS[ATNO][ 10].d[ 16] =         0.006745082436;
  BAS[ATNO][ 10].a[ 17] =         8.285360000000;     BAS[ATNO][ 10].d[ 17] =        -0.034493781086;
  BAS[ATNO][ 10].a[ 18] =         2.499390000000;     BAS[ATNO][ 10].d[ 18] =         0.061798913486;
  BAS[ATNO][ 10].a[ 19] =         1.322160000000;     BAS[ATNO][ 10].d[ 19] =         0.069892379778;
  BAS[ATNO][ 10].a[ 20] =         0.688707000000;     BAS[ATNO][ 10].d[ 20] =         0.031924835219;
  BAS[ATNO][ 10].a[ 21] =        13.248633034000;     BAS[ATNO][ 10].d[ 21] =         0.001038951472;
  BAS[ATNO][ 10].a[ 22] =         3.024016125900;     BAS[ATNO][ 10].d[ 22] =        -0.017965722249;
  BAS[ATNO][ 10].a[ 23] =         1.080544837900;     BAS[ATNO][ 10].d[ 23] =        -0.041048731081;
  BAS[ATNO][ 10].a[ 24] =        13.248633034000;     BAS[ATNO][ 10].d[ 24] =        -0.000278842874;
  BAS[ATNO][ 10].a[ 25] =         3.024016125900;     BAS[ATNO][ 10].d[ 25] =         0.004821797516;
  BAS[ATNO][ 10].a[ 26] =         1.080544837900;     BAS[ATNO][ 10].d[ 26] =         0.011017017119;
  BAS[ATNO][ 10].a[ 27] =        13.248633034000;     BAS[ATNO][ 10].d[ 27] =        -0.001515850076;
  BAS[ATNO][ 10].a[ 28] =         3.024016125900;     BAS[ATNO][ 10].d[ 28] =         0.026212332511;
  BAS[ATNO][ 10].a[ 29] =         1.080544837900;     BAS[ATNO][ 10].d[ 29] =         0.059890884062;
  BAS[ATNO][ 10].a[ 30] =         0.333535815100;     BAS[ATNO][ 10].d[ 30] =         0.480311546905;
  BAS[ATNO][ 10].a[ 31] =         0.333535815100;     BAS[ATNO][ 10].d[ 31] =        -0.128910209780;

  // Basis function  12 L = p
  InitBFNGauss(BAS[ATNO][ 11]);
  BAS[ATNO][ 11].l  = 1;
  BAS[ATNO][ 11].ng = 32;
  BAS[ATNO][ 11].a[  0] =       129.233000000000;     BAS[ATNO][ 11].d[  0] =        -0.000016906883;
  BAS[ATNO][ 11].a[  1] =        29.628400000000;     BAS[ATNO][ 11].d[  1] =         0.000373951202;
  BAS[ATNO][ 11].a[  2] =        18.521100000000;     BAS[ATNO][ 11].d[  2] =        -0.002842780554;
  BAS[ATNO][ 11].a[  3] =         8.285360000000;     BAS[ATNO][ 11].d[  3] =         0.014537739313;
  BAS[ATNO][ 11].a[  4] =         2.499390000000;     BAS[ATNO][ 11].d[  4] =        -0.026045752765;
  BAS[ATNO][ 11].a[  5] =         1.322160000000;     BAS[ATNO][ 11].d[  5] =        -0.029456822801;
  BAS[ATNO][ 11].a[  6] =         0.688707000000;     BAS[ATNO][ 11].d[  6] =        -0.013455032107;
  BAS[ATNO][ 11].a[  7] =       129.233000000000;     BAS[ATNO][ 11].d[  7] =        -0.000022865624;
  BAS[ATNO][ 11].a[  8] =        29.628400000000;     BAS[ATNO][ 11].d[  8] =         0.000505748318;
  BAS[ATNO][ 11].a[  9] =        18.521100000000;     BAS[ATNO][ 11].d[  9] =        -0.003844703465;
  BAS[ATNO][ 11].a[ 10] =         8.285360000000;     BAS[ATNO][ 11].d[ 10] =         0.019661488338;
  BAS[ATNO][ 11].a[ 11] =         2.499390000000;     BAS[ATNO][ 11].d[ 11] =        -0.035225440023;
  BAS[ATNO][ 11].a[ 12] =         1.322160000000;     BAS[ATNO][ 11].d[ 12] =        -0.039838723581;
  BAS[ATNO][ 11].a[ 13] =         0.688707000000;     BAS[ATNO][ 11].d[ 13] =        -0.018197186727;
  BAS[ATNO][ 11].a[ 14] =       129.233000000000;     BAS[ATNO][ 11].d[ 14] =        -0.000007381676;
  BAS[ATNO][ 11].a[ 15] =        29.628400000000;     BAS[ATNO][ 11].d[ 15] =         0.000163269997;
  BAS[ATNO][ 11].a[ 16] =        18.521100000000;     BAS[ATNO][ 11].d[ 16] =        -0.001241180052;
  BAS[ATNO][ 11].a[ 17] =         8.285360000000;     BAS[ATNO][ 11].d[ 17] =         0.006347289808;
  BAS[ATNO][ 11].a[ 18] =         2.499390000000;     BAS[ATNO][ 11].d[ 18] =        -0.011371777791;
  BAS[ATNO][ 11].a[ 19] =         1.322160000000;     BAS[ATNO][ 11].d[ 19] =        -0.012861077442;
  BAS[ATNO][ 11].a[ 20] =         0.688707000000;     BAS[ATNO][ 11].d[ 20] =        -0.005874571439;
  BAS[ATNO][ 11].a[ 21] =        13.248633034000;     BAS[ATNO][ 11].d[ 21] =         0.000627028094;
  BAS[ATNO][ 11].a[ 22] =         3.024016125900;     BAS[ATNO][ 11].d[ 22] =        -0.010842674462;
  BAS[ATNO][ 11].a[ 23] =         1.080544837900;     BAS[ATNO][ 11].d[ 23] =        -0.024773734228;
  BAS[ATNO][ 11].a[ 24] =        13.248633034000;     BAS[ATNO][ 11].d[ 24] =         0.000848020817;
  BAS[ATNO][ 11].a[ 25] =         3.024016125900;     BAS[ATNO][ 11].d[ 25] =        -0.014664117502;
  BAS[ATNO][ 11].a[ 26] =         1.080544837900;     BAS[ATNO][ 11].d[ 26] =        -0.033505105308;
  BAS[ATNO][ 11].a[ 27] =        13.248633034000;     BAS[ATNO][ 11].d[ 27] =         0.000273765332;
  BAS[ATNO][ 11].a[ 28] =         3.024016125900;     BAS[ATNO][ 11].d[ 28] =        -0.004733995817;
  BAS[ATNO][ 11].a[ 29] =         1.080544837900;     BAS[ATNO][ 11].d[ 29] =        -0.010816404626;
  BAS[ATNO][ 11].a[ 30] =         0.333535815100;     BAS[ATNO][ 11].d[ 30] =         0.243357877437;
  BAS[ATNO][ 11].a[ 31] =         0.333535815100;     BAS[ATNO][ 11].d[ 31] =         0.329128069104;

  // Basis function  13 L = p
  InitBFNGauss(BAS[ATNO][ 12]);
  BAS[ATNO][ 12].l  = 1;
  BAS[ATNO][ 12].ng = 32;
  BAS[ATNO][ 12].a[  0] =       129.233000000000;     BAS[ATNO][ 12].d[  0] =        -0.000050396531;
  BAS[ATNO][ 12].a[  1] =        29.628400000000;     BAS[ATNO][ 12].d[  1] =         0.001114684701;
  BAS[ATNO][ 12].a[  2] =        18.521100000000;     BAS[ATNO][ 12].d[  2] =        -0.008473843579;
  BAS[ATNO][ 12].a[  3] =         8.285360000000;     BAS[ATNO][ 12].d[  3] =         0.043334519355;
  BAS[ATNO][ 12].a[  4] =         2.499390000000;     BAS[ATNO][ 12].d[  4] =        -0.077637943081;
  BAS[ATNO][ 12].a[  5] =         1.322160000000;     BAS[ATNO][ 12].d[  5] =        -0.087805760602;
  BAS[ATNO][ 12].a[  6] =         0.688707000000;     BAS[ATNO][ 12].d[  6] =        -0.040107153990;
  BAS[ATNO][ 12].a[  7] =       129.233000000000;     BAS[ATNO][ 12].d[  7] =        -0.000068158521;
  BAS[ATNO][ 12].a[  8] =        29.628400000000;     BAS[ATNO][ 12].d[  8] =         0.001507549405;
  BAS[ATNO][ 12].a[  9] =        18.521100000000;     BAS[ATNO][ 12].d[  9] =        -0.011460404752;
  BAS[ATNO][ 12].a[ 10] =         8.285360000000;     BAS[ATNO][ 12].d[ 10] =         0.058607540594;
  BAS[ATNO][ 12].a[ 11] =         2.499390000000;     BAS[ATNO][ 12].d[ 11] =        -0.105001023861;
  BAS[ATNO][ 12].a[ 12] =         1.322160000000;     BAS[ATNO][ 12].d[ 12] =        -0.118752434675;
  BAS[ATNO][ 12].a[ 13] =         0.688707000000;     BAS[ATNO][ 12].d[ 13] =        -0.054242707443;
  BAS[ATNO][ 12].a[ 14] =       129.233000000000;     BAS[ATNO][ 12].d[ 14] =        -0.000022003517;
  BAS[ATNO][ 12].a[ 15] =        29.628400000000;     BAS[ATNO][ 12].d[ 15] =         0.000486679991;
  BAS[ATNO][ 12].a[ 16] =        18.521100000000;     BAS[ATNO][ 12].d[ 16] =        -0.003699745870;
  BAS[ATNO][ 12].a[ 17] =         8.285360000000;     BAS[ATNO][ 12].d[ 17] =         0.018920187458;
  BAS[ATNO][ 12].a[ 18] =         2.499390000000;     BAS[ATNO][ 12].d[ 18] =        -0.033897328477;
  BAS[ATNO][ 12].a[ 19] =         1.322160000000;     BAS[ATNO][ 12].d[ 19] =        -0.038336676516;
  BAS[ATNO][ 12].a[ 20] =         0.688707000000;     BAS[ATNO][ 12].d[ 20] =        -0.017511094693;
  BAS[ATNO][ 12].a[ 21] =        13.248633034000;     BAS[ATNO][ 12].d[ 21] =         0.002266132135;
  BAS[ATNO][ 12].a[ 22] =         3.024016125900;     BAS[ATNO][ 12].d[ 22] =        -0.039186335105;
  BAS[ATNO][ 12].a[ 23] =         1.080544837900;     BAS[ATNO][ 12].d[ 23] =        -0.089534353783;
  BAS[ATNO][ 12].a[ 24] =        13.248633034000;     BAS[ATNO][ 12].d[ 24] =         0.003064818373;
  BAS[ATNO][ 12].a[ 25] =         3.024016125900;     BAS[ATNO][ 12].d[ 25] =        -0.052997350832;
  BAS[ATNO][ 12].a[ 26] =         1.080544837900;     BAS[ATNO][ 12].d[ 26] =        -0.121090261344;
  BAS[ATNO][ 12].a[ 27] =        13.248633034000;     BAS[ATNO][ 12].d[ 27] =         0.000989410877;
  BAS[ATNO][ 12].a[ 28] =         3.024016125900;     BAS[ATNO][ 12].d[ 28] =        -0.017109058021;
  BAS[ATNO][ 12].a[ 29] =         1.080544837900;     BAS[ATNO][ 12].d[ 29] =        -0.039091393714;
  BAS[ATNO][ 12].a[ 30] =         0.333535815100;     BAS[ATNO][ 12].d[ 30] =         1.525301867021;
  BAS[ATNO][ 12].a[ 31] =         0.333535815100;     BAS[ATNO][ 12].d[ 31] =         2.062886410661;

  // Basis function  14 L = p
  InitBFNGauss(BAS[ATNO][ 13]);
  BAS[ATNO][ 13].l  = 1;
  BAS[ATNO][ 13].ng = 32;
  BAS[ATNO][ 13].a[  0] =       129.233000000000;     BAS[ATNO][ 13].d[  0] =        -0.001002620306;
  BAS[ATNO][ 13].a[  1] =        29.628400000000;     BAS[ATNO][ 13].d[  1] =         0.022176238971;
  BAS[ATNO][ 13].a[  2] =        18.521100000000;     BAS[ATNO][ 13].d[  2] =        -0.168583977130;
  BAS[ATNO][ 13].a[  3] =         8.285360000000;     BAS[ATNO][ 13].d[  3] =         0.862124200396;
  BAS[ATNO][ 13].a[  4] =         2.499390000000;     BAS[ATNO][ 13].d[  4] =        -1.544578100677;
  BAS[ATNO][ 13].a[  5] =         1.322160000000;     BAS[ATNO][ 13].d[  5] =        -1.746863061496;
  BAS[ATNO][ 13].a[  6] =         0.688707000000;     BAS[ATNO][ 13].d[  6] =        -0.797916962692;
  BAS[ATNO][ 13].a[  7] =       129.233000000000;     BAS[ATNO][ 13].d[  7] =        -0.001355988507;
  BAS[ATNO][ 13].a[  8] =        29.628400000000;     BAS[ATNO][ 13].d[  8] =         0.029992136604;
  BAS[ATNO][ 13].a[  9] =        18.521100000000;     BAS[ATNO][ 13].d[  9] =        -0.228000504407;
  BAS[ATNO][ 13].a[ 10] =         8.285360000000;     BAS[ATNO][ 13].d[ 10] =         1.165975295508;
  BAS[ATNO][ 13].a[ 11] =         2.499390000000;     BAS[ATNO][ 13].d[ 11] =        -2.088956447974;
  BAS[ATNO][ 13].a[ 12] =         1.322160000000;     BAS[ATNO][ 13].d[ 12] =        -2.362535668764;
  BAS[ATNO][ 13].a[ 13] =         0.688707000000;     BAS[ATNO][ 13].d[ 13] =        -1.079138557923;
  BAS[ATNO][ 13].a[ 14] =       129.233000000000;     BAS[ATNO][ 13].d[ 14] =        -0.000437751807;
  BAS[ATNO][ 13].a[ 15] =        29.628400000000;     BAS[ATNO][ 13].d[ 15] =         0.009682318061;
  BAS[ATNO][ 13].a[ 16] =        18.521100000000;     BAS[ATNO][ 13].d[ 16] =        -0.073605072920;
  BAS[ATNO][ 13].a[ 17] =         8.285360000000;     BAS[ATNO][ 13].d[ 17] =         0.376410117477;
  BAS[ATNO][ 13].a[ 18] =         2.499390000000;     BAS[ATNO][ 13].d[ 18] =        -0.674374787369;
  BAS[ATNO][ 13].a[ 19] =         1.322160000000;     BAS[ATNO][ 13].d[ 19] =        -0.762693971346;
  BAS[ATNO][ 13].a[ 20] =         0.688707000000;     BAS[ATNO][ 13].d[ 20] =        -0.348376739135;
  BAS[ATNO][ 13].a[ 21] =        13.248633034000;     BAS[ATNO][ 13].d[ 21] =        -0.065977720979;
  BAS[ATNO][ 13].a[ 22] =         3.024016125900;     BAS[ATNO][ 13].d[ 22] =         1.140897762980;
  BAS[ATNO][ 13].a[ 23] =         1.080544837900;     BAS[ATNO][ 13].d[ 23] =         2.606764415923;
  BAS[ATNO][ 13].a[ 24] =        13.248633034000;     BAS[ATNO][ 13].d[ 24] =        -0.089231218286;
  BAS[ATNO][ 13].a[ 25] =         3.024016125900;     BAS[ATNO][ 13].d[ 25] =         1.543001119472;
  BAS[ATNO][ 13].a[ 26] =         1.080544837900;     BAS[ATNO][ 13].d[ 26] =         3.525504688047;
  BAS[ATNO][ 13].a[ 27] =        13.248633034000;     BAS[ATNO][ 13].d[ 27] =        -0.028806385081;
  BAS[ATNO][ 13].a[ 28] =         3.024016125900;     BAS[ATNO][ 13].d[ 28] =         0.498124818669;
  BAS[ATNO][ 13].a[ 29] =         1.080544837900;     BAS[ATNO][ 13].d[ 29] =         1.138133577020;
  BAS[ATNO][ 13].a[ 30] =         0.333535815100;     BAS[ATNO][ 13].d[ 30] =         0.125898042981;
  BAS[ATNO][ 13].a[ 31] =         0.333535815100;     BAS[ATNO][ 13].d[ 31] =         0.170270139501;

-------------------------------------------
RADIAL EXPECTATION VALUES <R**-3> TO <R**3>
-------------------------------------------
   0 :     0.000000     1.924364     1.328123     0.817592     0.724060     0.696657
   1 :     2.520982     1.670554     1.231739     0.889731     0.873693     1.025607
   2 :     2.520982     1.670554     1.231739     0.889731     0.873693     1.025607
   3 :     2.522141     1.671067     1.231937     0.889579     0.873492     1.026344
   4 :     0.000000     0.610678     0.687234     1.701188     3.194682     6.474449
   5 :     0.437509     0.414694     0.570918     2.004782     4.430977    11.072266
   6 :     0.437509     0.414694     0.570918     2.004782     4.430977    11.072266
   7 :     0.000000     0.142532     0.306424     3.934283    17.292963    83.287767
   8 :     0.000000     0.037219     0.144143     8.409261    77.098524   748.940702
   9 :     0.000000     0.078354     0.204022     6.858151    57.960596   564.299201
  10 :     0.000000     0.336468     0.441528     3.534661    18.232502   129.853150
  11 :     0.000000     3.042118     1.351023     1.325763     3.723511    20.954969
  12 :     0.000000    26.828711     4.082569     0.455265     0.745460     3.927357
  13 :     0.441494     0.417479     0.572930     1.997347     4.399738    10.993365
  14 :     0.054826     0.080349     0.239075     4.917326    27.152823   166.608274
  15 :     0.056021     0.081398     0.240400     4.883022    26.691152   161.585099
  16 :     0.056021     0.081398     0.240400     4.883022    26.691152   161.585099
  17 :     0.020710     0.036643     0.155373     7.732391    65.916831   597.112974
  18 :     0.020710     0.036643     0.155373     7.732391    65.916831   597.112974
  19 :     0.021400     0.037585     0.157138     7.682966    65.297351   590.772285
  20 :     0.145410     0.148026     0.296557     4.693649    28.126263   204.810088
  21 :     0.145410     0.148026     0.296557     4.693649    28.126263   204.810088
  22 :     0.141282     0.144990     0.293947     4.716342    28.315480   206.205660
  23 :    34.982856     8.851897     2.733733     0.446892     0.264010     0.229323
  24 :    34.982856     8.851897     2.733733     0.446892     0.264010     0.229323
  25 :    34.982345     8.851742     2.733692     0.446910     0.264043     0.229428
Making the total density                ... o.k.
o.k.
Initializing the integrals              ... done
Making exponents                        ... done
Making rho(0)                           ... done (         0.016442273)
Integral calculation                    ... Two index integrals                     ... done
Solving the equation system             ... done
atomic density will be written to file 49_In_atom49.adf

-------
TIMINGS
-------

Total SCF time: 0 days 0 hours 0 min 0 sec 

Total time                  ....       0.866 sec
Sum of individual times     ....       0.441 sec  ( 50.9%)

Fock matrix formation       ....       0.309 sec  ( 35.7%)
Diagonalization             ....       0.055 sec  (  6.4%)
Density matrix formation    ....       0.001 sec  (  0.1%)
Population analysis         ....       0.000 sec  (  0.0%)
Initial guess               ....       0.000 sec  (  0.0%)
Orbital Transformation      ....       0.000 sec  (  0.0%)
Orbital Orthonormalization  ....       0.000 sec  (  0.0%)
DIIS solution               ....       0.076 sec  (  8.7%)

-------------------------   --------------------
FINAL SINGLE POINT ENERGY      -170.500472244135
-------------------------   --------------------


                            ***************************************
                            *     ORCA property calculations      *
                            ***************************************

                                    ---------------------
                                    Active property flags
                                    ---------------------
   (+) Dipole Moment


------------------------------------------------------------------------------
                       ORCA ELECTRIC PROPERTIES CALCULATION
------------------------------------------------------------------------------

Dipole Moment Calculation                       ... on
Quadrupole Moment Calculation                   ... off
Polarizability Calculation                      ... off
GBWName                                         ... 49_In_atom49.gbw
Electron density file                           ... 49_In_atom49.scfp
The origin for moment calculation is the CENTER OF MASS  = ( 0.000000,  0.000000  0.000000)

-------------
DIPOLE MOMENT
-------------
                                X             Y             Z
Electronic contribution:      0.00000      -0.00000      -0.00000
Nuclear contribution   :      0.00000       0.00000       0.00000
                        -----------------------------------------
Total Dipole Moment    :      0.00000      -0.00000      -0.00000
                        -----------------------------------------
Magnitude (a.u.)       :      0.00000
Magnitude (Debye)      :      0.00000



--------------------
Rotational spectrum 
--------------------
 
Rotational constants in cm-1:     0.000000     0.000000     0.000000 
Rotational constants in MHz :     0.000000     0.000000     0.000000 

 Dipole components along the rotational axes: 
x,y,z [a.u.] :     0.000000    -0.000000    -0.000000 
x,y,z [Debye]:     0.000000    -0.000000    -0.000000 

 

Timings for individual modules:

Sum of individual times         ...        1.138 sec (=   0.019 min)
GTO integral calculation        ...        0.242 sec (=   0.004 min)  21.3 %
SCF iterations                  ...        0.895 sec (=   0.015 min)  78.7 %
                             ****ORCA TERMINATED NORMALLY****
TOTAL RUN TIME: 0 days 0 hours 0 minutes 1 seconds 360 msec
