
                                 *****************
                                 * O   R   C   A *
                                 *****************

           --- An Ab Initio, DFT and Semiempirical electronic structure package ---

                  #######################################################
                  #                        -***-                        #
                  #          Department of theory and spectroscopy      #
                  #               Directorship: Frank Neese             #
                  #        Max Planck Institute fuer Kohlenforschung    #
                  #                Kaiser Wilhelm Platz 1               #
                  #                 D-45470 Muelheim/Ruhr               #
                  #                      Germany                        #
                  #                                                     #
                  #                  All rights reserved                #
                  #                        -***-                        #
                  #######################################################


                         Program Version 4.2.0 -  RELEASE  -


 With contributions from (in alphabetic order):
   Daniel Aravena         : Magnetic Suceptibility
   Michael Atanasov       : Ab Initio Ligand Field Theory (pilot matlab implementation)
   Alexander A. Auer      : GIAO ZORA, VPT2
   Ute Becker             : Parallelization
   Giovanni Bistoni       : ED, misc. LED, open-shell LED, HFLED
   Martin Brehm           : Molecular dynamics
   Dmytro Bykov           : SCF Hessian
   Vijay G. Chilkuri      : MRCI spin determinant printing, contributions to CSF-ICE
   Dipayan Datta          : RHF DLPNO-CCSD density
   Achintya Kumar Dutta   : EOM-CC, STEOM-CC
   Dmitry Ganyushin       : Spin-Orbit,Spin-Spin,Magnetic field MRCI
   Miquel Garcia          : C-PCM Hessian, Gaussian charge scheme
   Yang Guo               : DLPNO-NEVPT2, CIM, IAO-localization
   Andreas Hansen         : Spin unrestricted coupled pair/coupled cluster methods
   Benjamin Helmich-Paris : CASSCF linear response (MC-RPA)
   Lee Huntington         : MR-EOM, pCC
   Robert Izsak           : Overlap fitted RIJCOSX, COSX-SCS-MP3, EOM
   Christian Kollmar      : KDIIS, OOCD, Brueckner-CCSD(T), CCSD density
   Simone Kossmann        : Meta GGA functionals, TD-DFT gradient, OOMP2, MP2 Hessian
   Martin Krupicka        : AUTO-CI
   Lucas Lang             : DCDCAS
   Dagmar Lenk            : GEPOL surface, SMD
   Dimitrios Liakos       : Extrapolation schemes; Compound Job, initial MDCI parallelization
   Dimitrios Manganas     : Further ROCIS development; embedding schemes
   Dimitrios Pantazis     : SARC Basis sets
   Taras Petrenko         : DFT Hessian,TD-DFT gradient, ASA, ECA, R-Raman, ABS, FL, XAS/XES, NRVS
   Peter Pinski           : DLPNO-MP2, DLPNO-MP2 Gradient
   Christoph Reimann      : Effective Core Potentials
   Marius Retegan         : Local ZFS, SOC
   Christoph Riplinger    : Optimizer, TS searches, QM/MM, DLPNO-CCSD(T), (RO)-DLPNO pert. Triples
   Tobias Risthaus        : Range-separated hybrids, TD-DFT gradient, RPA, STAB
   Michael Roemelt        : Original ROCIS implementation
   Masaaki Saitow         : Open-shell DLPNO-CCSD energy and density
   Barbara Sandhoefer     : DKH picture change effects
   Avijit Sen             : IP-ROCIS
   Kantharuban Sivalingam : CASSCF convergence, NEVPT2, FIC-MRCI
   Bernardo de Souza      : ESD, SOC TD-DFT
   Georgi Stoychev        : AutoAux, RI-MP2 NMR
   Willem Van den Heuvel  : Paramagnetic NMR
   Boris Wezisla          : Elementary symmetry handling
   Frank Wennmohs         : Technical directorship


 We gratefully acknowledge several colleagues who have allowed us to
 interface, adapt or use parts of their codes:
   Stefan Grimme, W. Hujo, H. Kruse,             : VdW corrections, initial TS optimization,
                  C. Bannwarth                     DFT functionals, gCP, sTDA/sTD-DF
   Ed Valeev, F. Pavosevic, A. Kumar             : LibInt (2-el integral package), F12 methods
   Garnet Chan, S. Sharma, J. Yang, R. Olivares  : DMRG
   Ulf Ekstrom                                   : XCFun DFT Library
   Mihaly Kallay                                 : mrcc  (arbitrary order and MRCC methods)
   Andreas Klamt, Michael Diedenhofen            : otool_cosmo (COSMO solvation model)
   Jiri Pittner, Ondrej Demel                    : Mk-CCSD
   Frank Weinhold                                : gennbo (NPA and NBO analysis)
   Christopher J. Cramer and Donald G. Truhlar   : smd solvation model
   Lars Goerigk                                  : TD-DFT with DH, B97 family of functionals
   V. Asgeirsson, H. Jonsson                     : NEB implementation
   FAccTs GmbH                                   : IRC, NEB, NEB-TS, Multilevel, MM, QM/MM, CI optimization
   S Lehtola, MJT Oliveira, MAL Marques          : LibXC Library


 Your calculation uses the libint2 library for the computation of 2-el integrals
 For citations please refer to: http://libint.valeyev.net

 Your ORCA version has been built with support for libXC version: 4.2.3
 For citations please refer to: https://tddft.org/programs/libxc/

 This ORCA versions uses:
   CBLAS   interface :  Fast vector & matrix operations
   LAPACKE interface :  Fast linear algebra routines
   SCALAPACK package :  Parallel linear algebra routines


----- Orbital basis set information -----
Your calculation utilizes the basis: def2-QZVPPD
   F. Weigend and R. Ahlrichs, Phys. Chem. Chem. Phys. 7, 3297 (2005).
   D. Rappoport and F. Furche, J. Chem. Phys. 133 134105 (2010).

cite the ECPs for Sn [Def2-ECP] as follows:
Ce-Yb(ecp-28): M. Dolg, H. Stoll, H.Preuss, J. Chem. Phys., 1989, 90, 1730-1734.
Y-Cd(ecp-28), Hf-Hg(ecp-46): D. Andrae,U. Haeussermann, M. Dolg, H. Stoll, H. Preuss, Theor. Chim. Acta, 1990, 77, 123-141.
In-Sb(ecp-28), Tl-Bi(ecp-46): B. Metz, H. Stoll, M. Dolg, J. Chem. Phys., 2000, 113, 2563-2569.
Te-Xe(ecp-28), Po-Rn(ecp-46): K. A. Peterson, D. Figgen, E. Goll, H. Stoll, M. Dolg, J. Chem. Phys., 2003, 119, 11113-11123.
Rb(ecp-28), Cs(ecp-46): T. Leininger, A. Nicklass, W. Kuechle, H. Stoll, M. Dolg, A. Bergner, Chem. Phys. Lett., 1996, 255, 274-280.
Sr(ecp-28), Ba(ecp-46): M. Kaupp, P. V. Schleyer, H. Stoll and H. Preuss, J. Chem. Phys., 1991, 94, 1360-1366.
La(ecp-46): M. Dolg, H. Stoll, A. Savin, H. Preuss, Theor. Chim. Acta, 1989, 75, 173-194.
Lu(ecp-28): X. Cao, M. Dolg, J. Chem. Phys., 2001, 115, 7348-7355.

ECP parameters for Sn [Def2-ECP] have been obtained from:
TURBOMOLE (7.0.2)

================================================================================
                                        WARNINGS
                       Please study these warnings very carefully!
================================================================================


WARNING: your system is open-shell and RHF/RKS was chosen
  ===> : WILL SWITCH to UHF/UKS


WARNING: MDCI localization with Augmented Hessian Foster-Boys
  ===> : Switching off randomization!

WARNING: Post HF methods need fully converged wavefunctions
  ===> : Setting SCFConvForced true
         You can overwrite this default with %scf ConvForced false 


INFO   : the flag for use of LIBINT has been found!

================================================================================
                                       INPUT FILE
================================================================================
NAME = 50_Sn.in
|  1> #
|  2> # 50_Sn CCSD(T)/Def2-QZVPPD
|  3> #
|  4> ! CCSD(T) Def2-QZVPPD tightscf
|  5> 
|  6> *xyz 0 3
|  7>  Sn 0.0 0.0 0.0
|  8> *
|  9> 
| 10> %maxcore 5000 
| 11> 
| 12> %pal
| 13> nprocs 24
| 14> end
| 15> 
| 16> 
| 17>                          ****END OF INPUT****
================================================================================

                       ****************************
                       * Single Point Calculation *
                       ****************************

---------------------------------
CARTESIAN COORDINATES (ANGSTROEM)
---------------------------------
  Sn     0.000000    0.000000    0.000000

----------------------------
CARTESIAN COORDINATES (A.U.)
----------------------------
  NO LB      ZA    FRAG     MASS         X           Y           Z
   0 Sn   22.0000*   0   118.690    0.000000    0.000000    0.000000
* core charge reduced due to ECP

--------------------------------
INTERNAL COORDINATES (ANGSTROEM)
--------------------------------
 Sn     0   0   0     0.000000000000     0.00000000     0.00000000

---------------------------
INTERNAL COORDINATES (A.U.)
---------------------------
 Sn     0   0   0     0.000000000000     0.00000000     0.00000000

---------------------
BASIS SET INFORMATION
---------------------
There are 1 groups of distinct atoms

 Group   1 Type Sn  : 18s14p12d4f1g contracted to 8s6p5d4f1g pattern {91311111/731111/81111/1111/1}

Atom   0Sn   basis set group =>   1
-------------------------
ECP PARAMETER INFORMATION
-------------------------

 Group 1, Type Sn ECP Def2-ECP (replacing 28 core electrons, lmax=3)

Atom   0Sn   ECP group =>   1



           ************************************************************
           *        Program running with 24 parallel MPI-processes    *
           *              working on a common directory               *
           ************************************************************
------------------------------------------------------------------------------
                           ORCA GTO INTEGRAL CALCULATION
------------------------------------------------------------------------------

                         BASIS SET STATISTICS AND STARTUP INFO

 # of primitive gaussian shells          ...   49
 # of primitive gaussian functions       ...  157
 # of contracted shells                  ...   24
 # of contracted basis functions         ...   88
 Highest angular momentum                ...    4
 Maximum contraction depth               ...    9
 Integral package used                   ... LIBINT
 Integral threshhold            Thresh   ...  2.500e-11
 Primitive cut-off              TCut     ...  2.500e-12


------------------------------ INTEGRAL EVALUATION ----------------------------


 * One electron integrals 

   ECP integrals                         ... done
 Pre-screening matrix                    ... done
 Shell pair data                         ... done (   0.000 sec)



           ************************************************************
           *        Program running with 24 parallel MPI-processes    *
           *              working on a common directory               *
           ************************************************************
-------------------------------------------------------------------------------
                                 ORCA SCF
-------------------------------------------------------------------------------

------------
SCF SETTINGS
------------
Hamiltonian:
 Ab initio Hamiltonian  Method          .... Hartree-Fock(GTOs)


General Settings:
 Integral files         IntName         .... 50_Sn
 Hartree-Fock type      HFTyp           .... UHF
 Total Charge           Charge          ....    0
 Multiplicity           Mult            ....    3
 Number of Electrons    NEL             ....   22
 Basis Dimension        Dim             ....   88
 Nuclear Repulsion      ENuc            ....      0.0000000000 Eh

Convergence Acceleration:
 DIIS                   CNVDIIS         .... on
   Start iteration      DIISMaxIt       ....    12
   Startup error        DIISStart       ....  0.200000
   # of expansion vecs  DIISMaxEq       ....     5
   Bias factor          DIISBfac        ....   1.050
   Max. coefficient     DIISMaxC        ....  10.000
 Newton-Raphson         CNVNR           .... off
 SOSCF                  CNVSOSCF        .... off
 Level Shifting         CNVShift        .... on
   Level shift para.    LevelShift      ....    0.2500
   Turn off err/grad.   ShiftErr        ....    0.0010
 Zerner damping         CNVZerner       .... off
 Static damping         CNVDamp         .... on
   Fraction old density DampFac         ....    0.7000
   Max. Damping (<1)    DampMax         ....    0.9800
   Min. Damping (>=0)   DampMin         ....    0.0000
   Turn off err/grad.   DampErr         ....    0.1000
 Fernandez-Rico         CNVRico         .... off

SCF Procedure:
 Maximum # iterations   MaxIter         ....   125
 SCF integral mode      SCFMode         .... Direct
   Integral package                     .... LIBINT
 Reset frequency        DirectResetFreq ....    20
 Integral Threshold     Thresh          ....  2.500e-11 Eh
 Primitive CutOff       TCut            ....  2.500e-12 Eh

Convergence Tolerance:
 Convergence Check Mode ConvCheckMode   .... Total+1el-Energy
 Convergence forced     ConvForced      .... 1
 Energy Change          TolE            ....  1.000e-08 Eh
 1-El. energy change                    ....  1.000e-05 Eh
 DIIS Error             TolErr          ....  5.000e-07


Diagonalization of the overlap matrix:
Smallest eigenvalue                        ... 1.289e-03
Time for diagonalization                   ...    0.003 sec
Threshold for overlap eigenvalues          ... 1.000e-08
Number of eigenvalues below threshold      ... 0
Time for construction of square roots      ...    0.012 sec
Total time needed                          ...    0.015 sec

-------------------
DFT GRID GENERATION
-------------------

General Integration Accuracy     IntAcc      ...  4.340
Radial Grid Type                 RadialGrid  ... Gauss-Chebyshev
Angular Grid (max. acc.)         AngularGrid ... Lebedev-110
Angular grid pruning method      GridPruning ... 3 (G Style)
Weight generation scheme         WeightScheme... Becke
Basis function cutoff            BFCut       ...    1.0000e-11
Integration weight cutoff        WCut        ...    1.0000e-14
Grids for H and He will be reduced by one unit

# of grid points (after initial pruning)     ...   3304 (   0.0 sec)
# of grid points (after weights+screening)   ...   3304 (   0.0 sec)
Grid point division into batches done        ...    0.0 sec
Reduced shell lists constructed in    0.0 sec

Total number of grid points                  ...     3304
Total number of batches                      ...       52
Average number of points per batch           ...       63
Average number of grid points per atom       ...     3304
Average number of shells per batch           ...    11.25 (46.88%)
Average number of basis functions per batch  ...    44.25 (50.28%)
Average number of large shells per batch     ...     7.50 (66.67%)
Average number of large basis fcns per batch ...    25.50 (57.63%)
Maximum spatial batch extension              ...  19.89, 29.99, 29.99 au
Average spatial batch extension              ...   1.08,  1.54,  1.73 au

Time for grid setup =    0.060 sec

------------------------------
INITIAL GUESS: MODEL POTENTIAL
------------------------------
Loading Hartree-Fock densities                     ... done
  calling /sw/apps/orca/orca_4_2_0_linux_x86-64_openmpi314/orca 50_Sn_atom50.inp > 50_Sn_atom50.out in order to generate an atomic fitting density for atom 0 (Sn with ECP) on-the-fly... 
    atom 0 (Sn), assumed electronic state with S=3: 1s2 2s2 2p6 3s2 3p6 4s2 3d10 4p6 5s2 4d10 5p2           ... done
Calculating cut-offs                               ... done
Setting up the integral package                    ... done
Initializing the effective Hamiltonian             ... done
Starting the Coulomb interaction                   ... done (   0.0 sec)
Reading the grid                                   ... done
Mapping shells                                     ... done
Starting the XC term evaluation                    ... done (   0.0 sec)
Transforming the Hamiltonian                       ... done (   0.0 sec)
Diagonalizing the Hamiltonian                      ... done (   0.0 sec)
Back transforming the eigenvectors                 ... done (   0.0 sec)
Now organizing SCF variables                       ... done
                      ------------------
                      INITIAL GUESS DONE (   1.4 sec)
                      ------------------
--------------
SCF ITERATIONS
--------------
ITER       Energy         Delta-E        Max-DP      RMS-DP      [F,P]     Damp
               ***  Starting incremental Fock matrix formation  ***
  0   -200.7731343160   0.000000000000 3.90986101  0.07253858  1.5182626 0.7000
  1   -202.5308674322  -1.757733116160 1.13777461  0.02417199  0.7138739 0.7000
  2   -205.6861856092  -3.155318177036 0.83026715  0.01732951  0.5225477 0.7000
  3   -207.9338950776  -2.247709468416 0.58400118  0.01217345  0.3909102 0.7000
  4   -209.5233443839  -1.589449306286 0.40879708  0.00853814  0.2927179 0.7000
  5   -210.6474870629  -1.124142678959 0.28549700  0.00600211  0.2186552 0.7000
                               ***Turning on DIIS***
  6   -211.4422993932  -0.794812330315 0.19894960  0.00423239  0.1629699 0.7000
  7   -211.7444345491  -0.302135155956 0.13749521  0.00304586  0.1212933 0.7000
  8   -212.2427705425  -0.498335993366 0.31541896  0.00727040  0.0877388 0.0000
  9   -213.3473584768  -1.104587934314 0.01943656  0.00034049  0.0115050 0.0000
 10   -213.3651987002  -0.017840223355 0.00810443  0.00018336  0.0049686 0.0000
 11   -213.3539791276   0.011219572582 0.00455899  0.00007084  0.0015930 0.0000
 12   -213.3438731256   0.010106002012 0.00240174  0.00003445  0.0005586 0.0000
 13   -213.3402411531   0.003631972492 0.00058943  0.00001028  0.0000874 0.0000
 14   -213.3408464922  -0.000605339076 0.00014167  0.00000384  0.0000270 0.0000
 15   -213.3406781247   0.000168367446 0.00003427  0.00000083  0.0000067 0.0000
 16   -213.3406680807   0.000010044045 0.00000951  0.00000020  0.0000017 0.0000
                            ***DIIS convergence achieved***

               *****************************************************
               *                     SUCCESS                       *
               *           SCF CONVERGED AFTER  17 CYCLES          *
               *****************************************************


----------------
TOTAL SCF ENERGY
----------------

Total Energy       :         -213.34066536 Eh           -5805.29464 eV

Components:
Nuclear Repulsion  :            0.00000000 Eh               0.00000 eV
Electronic Energy  :         -213.34066536 Eh           -5805.29464 eV
One Electron Energy:         -376.09578744 Eh          -10234.08667 eV
Two Electron Energy:          162.75512208 Eh            4428.79203 eV

Virial components:
Potential Energy   :         -295.92612688 Eh           -8052.55930 eV
Kinetic Energy     :           82.58546151 Eh            2247.26466 eV
Virial Ratio       :            3.58327146


---------------
SCF CONVERGENCE
---------------

  Last Energy change         ...    2.7174e-06  Tolerance :   1.0000e-08
  Last MAX-Density change    ...    2.6637e-06  Tolerance :   1.0000e-07
  Last RMS-Density change    ...    5.2966e-08  Tolerance :   5.0000e-09
  Last DIIS Error            ...    2.2065e-07  Tolerance :   5.0000e-07

             **** THE GBW FILE WAS UPDATED (50_Sn.gbw) ****
             **** DENSITY FILE WAS UPDATED (50_Sn.scfp) ****
             **** ENERGY FILE WAS UPDATED (50_Sn.en.tmp) ****
----------------------
UHF SPIN CONTAMINATION
----------------------

Expectation value of <S**2>     :     2.012050
Ideal value S*(S+1) for S=1.0   :     2.000000
Deviation                       :     0.012050

             **** THE GBW FILE WAS UPDATED (50_Sn.gbw) ****
             **** DENSITY FILE WAS UPDATED (50_Sn.scfp) ****
----------------
ORBITAL ENERGIES
----------------
                 SPIN UP ORBITALS
  NO   OCC          E(Eh)            E(eV) 
   0   1.0000      -5.859646      -159.4491 
   1   1.0000      -4.047430      -110.1362 
   2   1.0000      -4.044625      -110.0598 
   3   1.0000      -4.044625      -110.0598 
   4   1.0000      -1.314787       -35.7772 
   5   1.0000      -1.312043       -35.7025 
   6   1.0000      -1.312043       -35.7025 
   7   1.0000      -1.304254       -35.4906 
   8   1.0000      -1.304254       -35.4906 
   9   1.0000      -0.573873       -15.6159 
  10   1.0000      -0.267035        -7.2664 
  11   1.0000      -0.267035        -7.2664 
  12   0.0000      -0.016781        -0.4566 
  13   0.0000       0.040090         1.0909 
  14   0.0000       0.096374         2.6225 
  15   0.0000       0.096374         2.6225 
  16   0.0000       0.096450         2.6246 
  17   0.0000       0.096957         2.6383 
  18   0.0000       0.096957         2.6383 
  19   0.0000       0.116475         3.1694 
  20   0.0000       0.116475         3.1694 
  21   0.0000       0.127694         3.4747 
  22   0.0000       0.224137         6.0991 
  23   0.0000       0.271248         7.3810 
  24   0.0000       0.271248         7.3810 
  25   0.0000       0.278464         7.5774 
  26   0.0000       0.278464         7.5774 
  27   0.0000       0.281582         7.6622 
  28   0.0000       0.519117        14.1259 
  29   0.0000       0.519117        14.1259 
  30   0.0000       0.523383        14.2420 
  31   0.0000       0.603266        16.4157 
  32   0.0000       0.604114        16.4388 
  33   0.0000       0.604114        16.4388 
  34   0.0000       0.606652        16.5078 
  35   0.0000       0.606652        16.5078 
  36   0.0000       0.610740        16.6191 
  37   0.0000       0.610740        16.6191 
  38   0.0000       0.770223        20.9588 
  39   0.0000       0.770320        20.9615 
  40   0.0000       0.770320        20.9615 
  41   0.0000       0.770644        20.9703 
  42   0.0000       0.770644        20.9703 
  43   0.0000       0.810952        22.0671 
  44   0.0000       1.423470        38.7346 
  45   0.0000       1.425553        38.7913 
  46   0.0000       1.425553        38.7913 
  47   0.0000       1.431803        38.9613 
  48   0.0000       1.431803        38.9613 
  49   0.0000       1.442237        39.2453 
  50   0.0000       1.442237        39.2453 
  51   0.0000       1.715359        46.6773 
  52   0.0000       1.716758        46.7154 
  53   0.0000       1.716758        46.7154 
  54   0.0000       1.720967        46.8299 
  55   0.0000       1.720967        46.8299 
  56   0.0000       1.727813        47.0162 
  57   0.0000       1.728010        47.0215 
  58   0.0000       1.728010        47.0215 
  59   0.0000       1.736040        47.2401 
  60   0.0000       1.736040        47.2401 
  61   0.0000       1.737912        47.2910 
  62   0.0000       1.737912        47.2910 
  63   0.0000       2.066665        56.2368 
  64   0.0000       2.069723        56.3200 
  65   0.0000       2.069723        56.3200 
  66   0.0000       2.079187        56.5776 
  67   0.0000       2.079187        56.5776 
  68   0.0000       2.728222        74.2387 
  69   0.0000       3.310835        90.0924 
  70   0.0000       3.312520        90.1383 
  71   0.0000       3.312520        90.1383 
  72   0.0000       3.317598        90.2764 
  73   0.0000       3.317598        90.2764 
  74   0.0000       3.326124        90.5084 
  75   0.0000       3.326124        90.5084 
  76   0.0000       9.836021       267.6517 
  77   0.0000       9.837247       267.6851 
  78   0.0000       9.837247       267.6851 
  79   0.0000       9.840945       267.7857 
  80   0.0000       9.840945       267.7857 
  81   0.0000       9.847169       267.9551 
  82   0.0000       9.847169       267.9551 
  83   0.0000      12.493975       339.9784 
  84   0.0000      35.222535       958.4539 
  85   0.0000      35.225041       958.5221 
  86   0.0000      35.225041       958.5221 
  87   0.0000      72.654726      1977.0356 

                 SPIN DOWN ORBITALS
  NO   OCC          E(Eh)            E(eV) 
   0   1.0000      -5.854151      -159.2995 
   1   1.0000      -4.049810      -110.2009 
   2   1.0000      -4.034919      -109.7957 
   3   1.0000      -4.034919      -109.7957 
   4   1.0000      -1.312471       -35.7142 
   5   1.0000      -1.307959       -35.5914 
   6   1.0000      -1.307959       -35.5914 
   7   1.0000      -1.294977       -35.2381 
   8   1.0000      -1.294977       -35.2381 
   9   1.0000      -0.441748       -12.0206 
  10   0.0000       0.003352         0.0912 
  11   0.0000       0.036031         0.9804 
  12   0.0000       0.036031         0.9804 
  13   0.0000       0.046000         1.2517 
  14   0.0000       0.101671         2.7666 
  15   0.0000       0.103365         2.8127 
  16   0.0000       0.103365         2.8127 
  17   0.0000       0.109984         2.9928 
  18   0.0000       0.109984         2.9928 
  19   0.0000       0.134396         3.6571 
  20   0.0000       0.156539         4.2596 
  21   0.0000       0.156539         4.2596 
  22   0.0000       0.240395         6.5415 
  23   0.0000       0.304168         8.2768 
  24   0.0000       0.308447         8.3933 
  25   0.0000       0.308447         8.3933 
  26   0.0000       0.327195         8.9034 
  27   0.0000       0.327195         8.9034 
  28   0.0000       0.531824        14.4717 
  29   0.0000       0.561520        15.2797 
  30   0.0000       0.561520        15.2797 
  31   0.0000       0.627048        17.0628 
  32   0.0000       0.630877        17.1670 
  33   0.0000       0.630877        17.1670 
  34   0.0000       0.642535        17.4843 
  35   0.0000       0.642535        17.4843 
  36   0.0000       0.663450        18.0534 
  37   0.0000       0.663450        18.0534 
  38   0.0000       0.790620        21.5139 
  39   0.0000       0.799748        21.7623 
  40   0.0000       0.799748        21.7623 
  41   0.0000       0.825426        22.4610 
  42   0.0000       0.825426        22.4610 
  43   0.0000       0.833930        22.6924 
  44   0.0000       1.435569        39.0638 
  45   0.0000       1.439269        39.1645 
  46   0.0000       1.439269        39.1645 
  47   0.0000       1.450426        39.4681 
  48   0.0000       1.450426        39.4681 
  49   0.0000       1.469546        39.9884 
  50   0.0000       1.469546        39.9884 
  51   0.0000       1.733908        47.1820 
  52   0.0000       1.734225        47.1907 
  53   0.0000       1.736952        47.2649 
  54   0.0000       1.736952        47.2649 
  55   0.0000       1.745206        47.4895 
  56   0.0000       1.745206        47.4895 
  57   0.0000       1.759220        47.8708 
  58   0.0000       1.759220        47.8708 
  59   0.0000       1.764824        48.0233 
  60   0.0000       1.764824        48.0233 
  61   0.0000       1.779461        48.4216 
  62   0.0000       1.779461        48.4216 
  63   0.0000       2.078038        56.5463 
  64   0.0000       2.085062        56.7374 
  65   0.0000       2.085062        56.7374 
  66   0.0000       2.107786        57.3558 
  67   0.0000       2.107786        57.3558 
  68   0.0000       2.741668        74.6046 
  69   0.0000       3.314165        90.1830 
  70   0.0000       3.316556        90.2481 
  71   0.0000       3.316556        90.2481 
  72   0.0000       3.323777        90.4446 
  73   0.0000       3.323777        90.4446 
  74   0.0000       3.335988        90.7769 
  75   0.0000       3.335988        90.7769 
  76   0.0000       9.837588       267.6944 
  77   0.0000       9.839289       267.7407 
  78   0.0000       9.839289       267.7407 
  79   0.0000       9.844409       267.8800 
  80   0.0000       9.844409       267.8800 
  81   0.0000       9.852999       268.1137 
  82   0.0000       9.852999       268.1137 
  83   0.0000      12.498827       340.1104 
  84   0.0000      35.222082       958.4416 
  85   0.0000      35.228917       958.6276 
  86   0.0000      35.228917       958.6276 
  87   0.0000      72.655647      1977.0607 

                    ********************************
                    * MULLIKEN POPULATION ANALYSIS *
                    ********************************

--------------------------------------------
MULLIKEN ATOMIC CHARGES AND SPIN POPULATIONS
--------------------------------------------
   0 Sn:    0.000000    2.000000
Sum of atomic charges         :    0.0000000
Sum of atomic spin populations:    2.0000000

-----------------------------------------------------
MULLIKEN REDUCED ORBITAL CHARGES AND SPIN POPULATIONS
-----------------------------------------------------
CHARGE
  0 Sns       :     3.994842  s :     3.994842
      pz      :     2.810843  p :     7.999935
      px      :     2.631968
      py      :     2.557123
      dz2     :     2.000233  d :    10.005114
      dxz     :     2.001069
      dyz     :     2.001287
      dx2y2   :     2.000012
      dxy     :     2.002512
      f0      :     0.000001  f :     0.000065
      f+1     :     0.000011
      f-1     :     0.000013
      f+2     :     0.000011
      f-2     :     0.000006
      f+3     :     0.000010
      f-3     :     0.000014
      g0      :     0.000003  g :     0.000043
      g+1     :     0.000003
      g-1     :     0.000004
      g+2     :     0.000003
      g-2     :     0.000006
      g+3     :     0.000006
      g-3     :     0.000006
      g+4     :     0.000006
      g-4     :     0.000006

SPIN
  0 Sns       :    -0.000727  s :    -0.000727
      pz      :     0.810849  p :     1.999955
      px      :     0.631975
      py      :     0.557131
      dz2     :     0.000040  d :     0.000760
      dxz     :     0.000158
      dyz     :     0.000189
      dx2y2   :     0.000010
      dxy     :     0.000363
      f0      :    -0.000000  f :     0.000045
      f+1     :     0.000008
      f-1     :     0.000010
      f+2     :     0.000009
      f-2     :     0.000001
      f+3     :     0.000006
      f-3     :     0.000010
      g0      :    -0.000002  g :    -0.000033
      g+1     :    -0.000003
      g-1     :    -0.000003
      g+2     :    -0.000003
      g-2     :    -0.000005
      g+3     :    -0.000004
      g-3     :    -0.000004
      g+4     :    -0.000005
      g-4     :    -0.000005


                     *******************************
                     * LOEWDIN POPULATION ANALYSIS *
                     *******************************

-------------------------------------------
LOEWDIN ATOMIC CHARGES AND SPIN POPULATIONS
-------------------------------------------
   0 Sn:    0.000000    2.000000

----------------------------------------------------
LOEWDIN REDUCED ORBITAL CHARGES AND SPIN POPULATIONS
----------------------------------------------------
CHARGE
  0 Sns       :     3.994842  s :     3.994842
      pz      :     2.810843  p :     7.999935
      px      :     2.631968
      py      :     2.557123
      dz2     :     2.000233  d :    10.005114
      dxz     :     2.001069
      dyz     :     2.001287
      dx2y2   :     2.000012
      dxy     :     2.002512
      f0      :     0.000001  f :     0.000065
      f+1     :     0.000011
      f-1     :     0.000013
      f+2     :     0.000011
      f-2     :     0.000006
      f+3     :     0.000010
      f-3     :     0.000014
      g0      :     0.000003  g :     0.000043
      g+1     :     0.000003
      g-1     :     0.000004
      g+2     :     0.000003
      g-2     :     0.000006
      g+3     :     0.000006
      g-3     :     0.000006
      g+4     :     0.000006
      g-4     :     0.000006

SPIN
  0 Sns       :    -0.000727  s :    -0.000727
      pz      :     0.810849  p :     1.999955
      px      :     0.631975
      py      :     0.557131
      dz2     :     0.000040  d :     0.000760
      dxz     :     0.000158
      dyz     :     0.000189
      dx2y2   :     0.000010
      dxy     :     0.000363
      f0      :    -0.000000  f :     0.000045
      f+1     :     0.000008
      f-1     :     0.000010
      f+2     :     0.000009
      f-2     :     0.000001
      f+3     :     0.000006
      f-3     :     0.000010
      g0      :    -0.000002  g :    -0.000033
      g+1     :    -0.000003
      g-1     :    -0.000003
      g+2     :    -0.000003
      g-2     :    -0.000005
      g+3     :    -0.000004
      g-3     :    -0.000004
      g+4     :    -0.000005
      g-4     :    -0.000005


                      *****************************
                      * MAYER POPULATION ANALYSIS *
                      *****************************

  NA   - Mulliken gross atomic population
  ZA   - Total nuclear charge
  QA   - Mulliken gross atomic charge
  VA   - Mayer's total valence
  BVA  - Mayer's bonded valence
  FA   - Mayer's free valence

  ATOM       NA         ZA         QA         VA         BVA        FA
  0 Sn    22.0000    22.0000     0.0000     2.0241     0.0000     2.0241

  Mayer bond orders larger than 0.100000


-------
TIMINGS
-------

Total SCF time: 0 days 0 hours 0 min 6 sec 

Total time                  ....       6.193 sec
Sum of individual times     ....       5.627 sec  ( 90.9%)

Fock matrix formation       ....       3.855 sec  ( 62.2%)
Diagonalization             ....       0.121 sec  (  1.9%)
Density matrix formation    ....       0.013 sec  (  0.2%)
Population analysis         ....       0.074 sec  (  1.2%)
Initial guess               ....       1.314 sec  ( 21.2%)
Orbital Transformation      ....       0.000 sec  (  0.0%)
Orbital Orthonormalization  ....       0.000 sec  (  0.0%)
DIIS solution               ....       0.190 sec  (  3.1%)


           ************************************************************
           *        Program running with 24 parallel MPI-processes    *
           *              working on a common directory               *
           ************************************************************


------------------------------------------------------------------------------- 
                              ORCA-MATRIX DRIVEN CI                            
------------------------------------------------------------------------------- 

--------------------------------
AUTOMATIC CHOICE OF INCORE LEVEL
--------------------------------

Memory available                           ...   2500.00 MB
Memory needed for S+T                      ...      4.76 MB
Memory needed for J+K                      ...      9.56 MB
Memory needed for DIIS                     ...     66.63 MB
Memory needed for 3-ext                    ...     26.79 MB
Memory needed for 4-ext                    ...    128.94 MB
Memory needed for triples                  ...     16.75 MB
 -> Final InCoreLevel    ... 5
 -> check shows that triples correction can be computed


Wavefunction type
-----------------
Correlation treatment                      ...      CCSD     
Single excitations                         ... ON
Orbital optimization                       ... OFF
Calculation of Z vector                    ... OFF
Calculation of Brueckner orbitals          ... OFF
Perturbative triple excitations            ... ON
Calculation of F12 correction              ... OFF
Frozen core treatment                      ... chemical core (8 el)
Reference Wavefunction                     ... UHF
  Alpha-MOs occ    :     4 ...   11 (  8 MO's/  8 electrons)
  Beta-MOs occ     :     4 ...    9 (  6 MO's/  6 electrons)
  Alpha-MOs virt   :    12 ...   87 ( 76 MO's              )
  Beta-MOs virt    :    10 ...   87 ( 78 MO's              )
Number of AO's                             ...     88
Number of electrons                        ...     22
Number of correlated electrons             ...     14

Algorithmic settings
--------------------
Integral transformation                    ... AO direct full transformation
K(C) Formation                             ... FULL-MO TRAFO
Maximum number of iterations               ...        50
Convergence tolerance (max. residuum)      ... 1.000e-05
Level shift for amplitude update           ... 2.000e-01
Maximum number of DIIS vectors             ...         7
DIIS turned on at iteration                ...         0
Damping before turning on DIIS             ...     0.500
Damping after turning on DIIS              ...     0.000
Pair specific amplitude update             ... OFF
Natural orbital iterations                 ... OFF
Perturbative natural orbital generation    ... OFF
Printlevel                                 ... 2

Memory handling:
----------------
Maximum memory for working arrays          ...   2500 MB
Data storage in matrix containers          ... UNCOMPRESSED
Data type for integral storage             ... DOUBLE
In-Core Storage of quantities:
   Amplitudes+Sigma Vector      ... YES
   J+K operators                ... YES
   DIIS vectors                 ... YES
   3-external integrals         ... YES
   4-external integrals         ... YES


Initializing the integral package          ... done
Warning: reference  - re-canonicalizations have been set to INT 1 VIRT 1

--------------------------
UNRESTRICTED FOCK OPERATOR
--------------------------

<ss|ss>:          666 b            0 skpd (  0.0%)    0.001 s ( 0.001 ms/b)
<ss|sp>:         1728 b            0 skpd (  0.0%)    0.001 s ( 0.001 ms/b)
<ss|sd>:         1440 b            0 skpd (  0.0%)    0.002 s ( 0.001 ms/b)
<ss|sf>:         1152 b            0 skpd (  0.0%)    0.000 s ( 0.000 ms/b)
<ss|sg>:          288 b            0 skpd (  0.0%)    0.000 s ( 0.001 ms/b)
<ss|pp>:          756 b            0 skpd (  0.0%)    0.001 s ( 0.001 ms/b)
<ss|pd>:         1080 b            0 skpd (  0.0%)    0.003 s ( 0.003 ms/b)
<ss|pf>:          864 b            0 skpd (  0.0%)    0.000 s ( 0.001 ms/b)
<ss|pg>:          216 b            0 skpd (  0.0%)    0.001 s ( 0.006 ms/b)
<ss|dd>:          540 b            0 skpd (  0.0%)    0.004 s ( 0.007 ms/b)
<ss|df>:          720 b            0 skpd (  0.0%)    0.001 s ( 0.001 ms/b)
<ss|dg>:          180 b            0 skpd (  0.0%)    0.002 s ( 0.012 ms/b)
<ss|ff>:          360 b            0 skpd (  0.0%)    0.000 s ( 0.001 ms/b)
<ss|fg>:          144 b            0 skpd (  0.0%)    0.001 s ( 0.004 ms/b)
<ss|gg>:           36 b            0 skpd (  0.0%)    0.001 s ( 0.014 ms/b)
<sp|sp>:         1176 b            0 skpd (  0.0%)    0.001 s ( 0.001 ms/b)
<sp|sd>:         1920 b            0 skpd (  0.0%)    0.002 s ( 0.001 ms/b)
<sp|sf>:         1536 b            0 skpd (  0.0%)    0.001 s ( 0.000 ms/b)
<sp|sg>:          384 b            0 skpd (  0.0%)    0.001 s ( 0.002 ms/b)
<sp|pp>:         1008 b            0 skpd (  0.0%)    0.002 s ( 0.002 ms/b)
<sp|pd>:         1440 b            0 skpd (  0.0%)    0.005 s ( 0.004 ms/b)
<sp|pf>:         1152 b            0 skpd (  0.0%)    0.001 s ( 0.001 ms/b)
<sp|pg>:          288 b            0 skpd (  0.0%)    0.001 s ( 0.005 ms/b)
<sp|dd>:          720 b            0 skpd (  0.0%)    0.013 s ( 0.018 ms/b)
<sp|df>:          960 b            0 skpd (  0.0%)    0.002 s ( 0.002 ms/b)
<sp|dg>:          240 b            0 skpd (  0.0%)    0.002 s ( 0.008 ms/b)
<sp|ff>:          480 b            0 skpd (  0.0%)    0.001 s ( 0.002 ms/b)
<sp|fg>:          192 b            0 skpd (  0.0%)    0.001 s ( 0.006 ms/b)
<sp|gg>:           48 b            0 skpd (  0.0%)    0.002 s ( 0.032 ms/b)
<sd|sd>:          820 b            0 skpd (  0.0%)    0.003 s ( 0.004 ms/b)
<sd|sf>:         1280 b            0 skpd (  0.0%)    0.001 s ( 0.001 ms/b)
<sd|sg>:          320 b            0 skpd (  0.0%)    0.001 s ( 0.004 ms/b)
<sd|pp>:          840 b            0 skpd (  0.0%)    0.003 s ( 0.003 ms/b)
<sd|pd>:         1200 b            0 skpd (  0.0%)    0.007 s ( 0.006 ms/b)
<sd|pf>:          960 b            0 skpd (  0.0%)    0.001 s ( 0.001 ms/b)
<sd|pg>:          240 b            0 skpd (  0.0%)    0.002 s ( 0.009 ms/b)
<sd|dd>:          600 b            0 skpd (  0.0%)    0.012 s ( 0.020 ms/b)
<sd|df>:          800 b            0 skpd (  0.0%)    0.003 s ( 0.004 ms/b)
<sd|dg>:          200 b            0 skpd (  0.0%)    0.005 s ( 0.023 ms/b)
<sd|ff>:          400 b            0 skpd (  0.0%)    0.001 s ( 0.003 ms/b)
<sd|fg>:          160 b            0 skpd (  0.0%)    0.001 s ( 0.009 ms/b)
<sd|gg>:           40 b            0 skpd (  0.0%)    0.002 s ( 0.051 ms/b)
<sf|sf>:          528 b            0 skpd (  0.0%)    0.001 s ( 0.001 ms/b)
<sf|sg>:          256 b            0 skpd (  0.0%)    0.001 s ( 0.004 ms/b)
<sf|pp>:          672 b            0 skpd (  0.0%)    0.002 s ( 0.003 ms/b)
<sf|pd>:          960 b            0 skpd (  0.0%)    0.005 s ( 0.005 ms/b)
<sf|pf>:          768 b            0 skpd (  0.0%)    0.001 s ( 0.001 ms/b)
<sf|pg>:          192 b            0 skpd (  0.0%)    0.002 s ( 0.010 ms/b)
<sf|dd>:          480 b            0 skpd (  0.0%)    0.009 s ( 0.020 ms/b)
<sf|df>:          640 b            0 skpd (  0.0%)    0.003 s ( 0.004 ms/b)
<sf|dg>:          160 b            0 skpd (  0.0%)    0.004 s ( 0.024 ms/b)
<sf|ff>:          320 b            0 skpd (  0.0%)    0.001 s ( 0.003 ms/b)
<sf|fg>:          128 b            0 skpd (  0.0%)    0.001 s ( 0.011 ms/b)
<sf|gg>:           32 b            0 skpd (  0.0%)    0.002 s ( 0.062 ms/b)
<sg|sg>:           36 b            0 skpd (  0.0%)    0.000 s ( 0.008 ms/b)
<sg|pp>:          168 b            0 skpd (  0.0%)    0.001 s ( 0.006 ms/b)
<sg|pd>:          240 b            0 skpd (  0.0%)    0.003 s ( 0.011 ms/b)
<sg|pf>:          192 b            0 skpd (  0.0%)    0.001 s ( 0.003 ms/b)
<sg|pg>:           48 b            0 skpd (  0.0%)    0.001 s ( 0.020 ms/b)
<sg|dd>:          120 b            0 skpd (  0.0%)    0.005 s ( 0.038 ms/b)
<sg|df>:          160 b            0 skpd (  0.0%)    0.001 s ( 0.008 ms/b)
<sg|dg>:           40 b            0 skpd (  0.0%)    0.002 s ( 0.052 ms/b)
<sg|ff>:           80 b            0 skpd (  0.0%)    0.000 s ( 0.005 ms/b)
<sg|fg>:           32 b            0 skpd (  0.0%)    0.001 s ( 0.023 ms/b)
<sg|gg>:            8 b            0 skpd (  0.0%)    0.001 s ( 0.117 ms/b)
<pp|pp>:          231 b            0 skpd (  0.0%)    0.002 s ( 0.007 ms/b)
<pp|pd>:          630 b            0 skpd (  0.0%)    0.004 s ( 0.007 ms/b)
<pp|pf>:          504 b            0 skpd (  0.0%)    0.001 s ( 0.002 ms/b)
<pp|pg>:          126 b            0 skpd (  0.0%)    0.001 s ( 0.012 ms/b)
<pp|dd>:          315 b            0 skpd (  0.0%)    0.008 s ( 0.025 ms/b)
<pp|df>:          420 b            0 skpd (  0.0%)    0.002 s ( 0.005 ms/b)
<pp|dg>:          105 b            0 skpd (  0.0%)    0.003 s ( 0.029 ms/b)
<pp|ff>:          210 b            0 skpd (  0.0%)    0.001 s ( 0.004 ms/b)
<pp|fg>:           84 b            0 skpd (  0.0%)    0.001 s ( 0.013 ms/b)
<pp|gg>:           21 b            0 skpd (  0.0%)    0.001 s ( 0.069 ms/b)
<pd|pd>:          465 b            0 skpd (  0.0%)    0.011 s ( 0.024 ms/b)
<pd|pf>:          720 b            0 skpd (  0.0%)    0.003 s ( 0.003 ms/b)
<pd|pg>:          180 b            0 skpd (  0.0%)    0.005 s ( 0.025 ms/b)
<pd|dd>:          450 b            0 skpd (  0.0%)    0.023 s ( 0.051 ms/b)
<pd|df>:          600 b            1 skpd (  0.2%)    0.006 s ( 0.010 ms/b)
<pd|dg>:          150 b            0 skpd (  0.0%)    0.009 s ( 0.063 ms/b)
<pd|ff>:          300 b            0 skpd (  0.0%)    0.002 s ( 0.007 ms/b)
<pd|fg>:          120 b            0 skpd (  0.0%)    0.003 s ( 0.026 ms/b)
<pd|gg>:           30 b            0 skpd (  0.0%)    0.004 s ( 0.146 ms/b)
<pf|pf>:          300 b            0 skpd (  0.0%)    0.002 s ( 0.006 ms/b)
<pf|pg>:          144 b            0 skpd (  0.0%)    0.003 s ( 0.023 ms/b)
<pf|dd>:          360 b            0 skpd (  0.0%)    0.015 s ( 0.042 ms/b)
<pf|df>:          480 b            0 skpd (  0.0%)    0.004 s ( 0.009 ms/b)
<pf|dg>:          120 b            0 skpd (  0.0%)    0.007 s ( 0.058 ms/b)
<pf|ff>:          240 b            0 skpd (  0.0%)    0.002 s ( 0.009 ms/b)
<pf|fg>:           96 b            0 skpd (  0.0%)    0.003 s ( 0.031 ms/b)
<pf|gg>:           24 b            0 skpd (  0.0%)    0.004 s ( 0.161 ms/b)
<pg|pg>:           21 b            0 skpd (  0.0%)    0.001 s ( 0.050 ms/b)
<pg|dd>:           90 b            0 skpd (  0.0%)    0.008 s ( 0.087 ms/b)
<pg|df>:          120 b            0 skpd (  0.0%)    0.002 s ( 0.017 ms/b)
<pg|dg>:           30 b            0 skpd (  0.0%)    0.003 s ( 0.112 ms/b)
<pg|ff>:           60 b            0 skpd (  0.0%)    0.001 s ( 0.013 ms/b)
<pg|fg>:           24 b            0 skpd (  0.0%)    0.001 s ( 0.059 ms/b)
<pg|gg>:            6 b            0 skpd (  0.0%)    0.002 s ( 0.278 ms/b)
<dd|dd>:          120 b            0 skpd (  0.0%)    0.029 s ( 0.239 ms/b)
<dd|df>:          300 b            0 skpd (  0.0%)    0.008 s ( 0.026 ms/b)
<dd|dg>:           75 b            0 skpd (  0.0%)    0.012 s ( 0.164 ms/b)
<dd|ff>:          150 b            0 skpd (  0.0%)    0.002 s ( 0.016 ms/b)
<dd|fg>:           60 b            0 skpd (  0.0%)    0.004 s ( 0.060 ms/b)
<dd|gg>:           15 b            0 skpd (  0.0%)    0.005 s ( 0.338 ms/b)
<df|df>:          210 b            2 skpd (  1.0%)    0.008 s ( 0.036 ms/b)
<df|dg>:          100 b            0 skpd (  0.0%)    0.012 s ( 0.118 ms/b)
<df|ff>:          200 b            2 skpd (  1.0%)    0.004 s ( 0.020 ms/b)
<df|fg>:           80 b            2 skpd (  2.5%)    0.005 s ( 0.064 ms/b)
<df|gg>:           20 b            0 skpd (  0.0%)    0.007 s ( 0.327 ms/b)
<dg|dg>:           15 b            0 skpd (  0.0%)    0.004 s ( 0.241 ms/b)
<dg|ff>:           50 b            0 skpd (  0.0%)    0.002 s ( 0.031 ms/b)
<dg|fg>:           20 b            0 skpd (  0.0%)    0.002 s ( 0.105 ms/b)
<dg|gg>:            5 b            0 skpd (  0.0%)    0.003 s ( 0.519 ms/b)
<ff|ff>:           55 b            0 skpd (  0.0%)    0.002 s ( 0.034 ms/b)
<ff|fg>:           40 b            1 skpd (  2.5%)    0.003 s ( 0.078 ms/b)
<ff|gg>:           10 b            0 skpd (  0.0%)    0.004 s ( 0.424 ms/b)
<fg|fg>:           10 b            0 skpd (  0.0%)    0.002 s ( 0.192 ms/b)
<fg|gg>:            4 b            0 skpd (  0.0%)    0.003 s ( 0.701 ms/b)
<gg|gg>:            1 b            0 skpd (  0.0%)    0.002 s ( 1.805 ms/b)
Recanonicalizing the internal orbitals
Recanonicalizing the virtual orbitals
Time needed for Fock operator              ...            0.464 sec
Reference energy                           ...   -213.340664417
Warning: for UHF the TrafoType has to be JK
Warning: for UHF the K(C)-option cannot be MO but must be AOX

-------------------------------
PARTIAL EXCHANGE TRANSFORMATION
-------------------------------

Transformation type                        ... two-operators
Generation of integrals (i,mue|j,nue)      ... ON
Generation of integrals (mue,kappa|nue,tau)... ON
Generation of integrals (i,mue|a,nue)      ... ON
Dimension of the basis                     ...   88
Number of internal alpha-MOs               ...    8 (   4-  11)
Number of internal beta-MOs                ...    6 (   4-   9)
Number of external alpha-MOs               ...   76 (  12-  87)
Number of external beta-MOs                ...   78 (  10-  87)
Pair cutoff                                ... 0.000e+00 Eh
Number of AO pairs in the trafo            ... 3916
Total Number of distinct AO pairs          ... 3916
Memory devoted for trafo                   ... 2500.0 MB 
Max. Number of MO pairs treated together   ... 42314      
Number Format for Storage                  ... Double (8 Byte)
Integral package used                      ... LIBINT

Starting integral evaluation:
    ... done with AO integral generation
Closing buffer AOK[aa] ( 0.00 GB; CompressionRatio= 0.98)
Closing buffer AOK[bb] ( 0.00 GB; CompressionRatio= 0.96)
Closing buffer AOK[ab] ( 0.00 GB; CompressionRatio= 0.97)
Closing buffer AOK[ba] ( 0.00 GB; CompressionRatio= 0.97)
Collecting buffer AOK 
Closing buffer IAAO1[aa] ( 0.00 GB; CompressionRatio= 1.00)
Closing buffer IAAO1[bb] ( 0.00 GB; CompressionRatio= 1.00)
Closing buffer IAAO1[ab] ( 0.00 GB; CompressionRatio= 1.00)
Closing buffer IAAO1[ba] ( 0.00 GB; CompressionRatio= 1.00)
Closing buffer IAAO2[aa] ( 0.00 GB; CompressionRatio= 1.00)
Closing buffer IAAO2[bb] ( 0.00 GB; CompressionRatio= 1.00)
Closing buffer IAAO2[ab] ( 0.00 GB; CompressionRatio= 1.00)
Closing buffer IAAO2[ba] ( 0.00 GB; CompressionRatio= 1.00)
Collecting buffer IAAO 
Closing buffer PRQS    ( 0.00 GB; CompressionRatio= 1.00)
Collecting buffer PRQS 
Number of alpha/alpha MO pairs in trafo    ...   36
Number of beta /beta  MO pairs in trafo    ...   21
Number of alpha/ beta MO pairs in trafo    ...   48
------------------------
SORTING OF (i,mue|j,nue)
------------------------

SORTING OF ALPHA/ALPHA PAIRS
IBATCH = 1 of  1
Closing buffer KAO[aa] ( 0.00 GB; CompressionRatio= 1.00)
Collecting buffer KAO 
SORTING OF BETA /BETA  PAIRS
IBATCH = 1 of  1
Closing buffer KAO[bb] ( 0.00 GB; CompressionRatio= 1.00)
Collecting buffer KAO 
SORTING OF ALPHA/BETA  PAIRS
IBATCH = 1 of  1
Closing buffer KAO[ab] ( 0.00 GB; CompressionRatio= 0.999806339165)
Collecting buffer KAO[ab] 
------------------------
SORTING OF (i,mue|a,nue)
------------------------

Number of alpha/alpha (i,a) pairs in trafo  ...  608
Number of beta /beta  (i,a) pairs in trafo  ...  468
Number of alpha/ beta (i,a) pairs in trafo  ...  624
Number of beta /alpha (i,a) pairs in trafo  ...  456
Setting up the alpha/alpha list             ... done
Setting up the beta /beta  list             ... done
Setting up the alpha/beta  list             ... done
Setting up the beta /alpha list             ... done
    ... Now sorting (i,mue|a,nue)integrals
    ... Integrals (i,b|a,c) will be made on the fly
SORTING OF ALPHA/ALPHA PAIRS
IBATCH = 1 of  1
Closing buffer IPAQ[aa]  0.00 GB; CompressionRatio= 1.00)
SORTING OF BETA /BETA  PAIRS
IBATCH = 1 of  1
Closing buffer IPAQ[bb]( 0.00 GB; CompressionRatio= 1.00)
SORTING OF ALPHA/BETA  PAIRS (NMatSort_ab=26)
IBATCH = 1 of  1
Closing buffer IPAQ[ab]( 0.00 GB; CompressionRatio= 1.00)
SORTING OF BETA/ALPHA  PAIRS
IBATCH = 1 of  1
Closing buffer IPAQ[ba]( 0.00 GB; CompressionRatio= 1.00)
N(AO-Batches) Done                         ...       576 
N(AO-Batches) Skipped                      ...         0 
N(IJ)-pairs Skipped                        ...         0 
TOTAL TIME for half transformation         ...     6.190 sec
AO-integral generation                     ...     0.012 sec
Half transformation                        ...     0.109 sec
K-integral sorting                         ...     1.278 sec
<ss|**>: 
------------------------------
PARTIAL COULOMB TRANSFORMATION
------------------------------

Transformation type                        ... two-operators
Dimension of the basis                     ...   88
Number of internal alpha-MOs               ...    8 (4-11)
Number of internal beta-MOs                ...    6 (4-9)
Pair cutoff                                ... 0.000e+00 Eh
Number of AO pairs included in the trafo   ... 3916
Total Number of distinct AO pairs          ... 3916
Memory devoted for trafo                   ... 2500.0 MB 
Max. Number of MO pairs treated together   ... 83677      
Max. Number of MOs treated per batch       ...  950      
Number Format for Storage                  ... Double (8 Byte)
AO-integral source                         ... DIRECT
Integral package used                      ... LIBINT

Starting integral evaluation:
<sp|**>:        10800 b        0 skpd     0.025 s (  0.002 ms/b)
<sd|**>:        14400 b        0 skpd     0.023 s (  0.002 ms/b)
<sf|**>:        12000 b        0 skpd     0.051 s (  0.004 ms/b)
        9600 b        0 skpd     0.065 s (  0.007 ms/b)
<sg|**>: <pp|**>:         2400 b        0 skpd     0.027 s (  0.011 ms/b)
        6300 b        0 skpd     0.055 s (  0.009 ms/b)
<pd|**>:         9000 b        0 skpd     0.112 s (  0.012 ms/b)
<pf|**>:         7200 b        0 skpd     0.085 s (  0.012 ms/b)
<pg|**>:         1800 b        0 skpd     0.065 s (  0.036 ms/b)
<dd|**>:         4500 b        0 skpd     0.180 s (  0.040 ms/b)
<df|**>:         6000 b        0 skpd     0.121 s (  0.020 ms/b)
<dg|**>:         1500 b        0 skpd     0.104 s (  0.069 ms/b)
<ff|**>:         3000 b        0 skpd     0.078 s (  0.026 ms/b)
<fg|**>:         1200 b        0 skpd     0.079 s (  0.066 ms/b)
<gg|**>:          300 b        0 skpd     0.061 s (  0.202 ms/b)
Closing buffer AOJ[aa] ( 0.00 GB; CompressionRatio= 0.96)
Closing buffer AOJ[bb] ( 0.00 GB; CompressionRatio= 0.00)
Collecting buffer AOJ 
    ... done with AO integral generation
Number of Alpha-MO pairs included          ...   36
Number of Beta-MO pairs included           ...   21
    ... Now sorting integrals
SORTING ALPHA/ALPHA PAIRS
IBATCH = 1 of  1
Closing buffer JAO[aa] ( 0.00 GB; CompressionRatio= 1.00)
SORTING BETA/BETA PAIRS
IBATCH = 1 of  1
Closing buffer JAO[bb] ( 0.00 GB; CompressionRatio= 1.00)
Collecting buffer JAO 
TOTAL TIME for half transformation         ...     1.400 sec
AO-integral generation                     ...     0.813 sec
Half transformation                        ...     0.328 sec
J-integral sorting                         ...     0.111 sec

-------------------------- SECOND HALF TRANSFORMATION -------------------------
Formation of (ij|kl),(ij|ka), (ij|ab)      ... ok (     0.148 sec)
Formation of (ik|jl),(ik|ja), (ia|jb)      ... ok (     0.229 sec)


-----------------------
SPIN UNRESTRICTED GUESS
-----------------------

Entering MDCI_UHF_Guess, Tailored=0
Spin-components of the MP2 energy:
EMP2(aa)=     -0.096972763
EMP2(bb)=     -0.080382119
EMP2(ab)=     -0.296058371

Initial guess performed in     0.015 sec
E(0)                                       ...   -213.340664417
E(MP2)                                     ...     -0.473413253
Initial E(tot)                             ...   -213.814077670
<T|T>                                      ...      0.102657848
Number of pairs included                   ... 91

------------------------------------------------
                  UHF COUPLED CLUSTER ITERATIONS
------------------------------------------------

Number of amplitudes to be optimized       ...       411576

Iter       E(tot)           E(Corr)          Delta-E          Residual     Time      <S|S>**1/2
  0   -213.814077670     -0.473413253     -0.000000000      0.019497546    0.77      0.000000299
                           *** Turning on DIIS ***
  1   -213.774470049     -0.433805633      0.039607620      0.005479809    0.72      0.027292551
  2   -213.781435106     -0.440770689     -0.006965057      0.003023997    0.72      0.033567981
  3   -213.782847165     -0.442182748     -0.001412059      0.000998446    0.74      0.040041456
  4   -213.783137138     -0.442472721     -0.000289973      0.000226811    0.72      0.042135410
  5   -213.783150038     -0.442485622     -0.000012901      0.000058470    0.73      0.042427847
  6   -213.783154671     -0.442490254     -0.000004632      0.000016828    0.76      0.042473765
  7   -213.783154621     -0.442490204      0.000000050      0.000006322    0.76      0.042472684
               --- The Coupled-Cluster iterations have converged ---

----------------------
COUPLED CLUSTER ENERGY
----------------------

E(0)                                       ...   -213.340664417
E(CORR)                                    ...     -0.442490204
E(TOT)                                     ...   -213.783154621
Singles norm <S|S>**1/2                    ...      0.042472684 ( 0.029338713, 0.013133971)  
T1 diagnostic                              ...      0.011351302                              

------------------
LARGEST AMPLITUDES
------------------
   9a-> 12a   9b-> 10b       0.062370
   9a-> 12a   9b-> 19b       0.038023
   9a-> 21a   9b-> 10b       0.032195
  11a-> 24a  10a-> 23a       0.027918
  11a-> 23a  10a-> 24a       0.027918
  11a-> 26a   9b-> 10b       0.027897
  10a-> 25a   9b-> 10b       0.027897
  10a-> 24a   9b-> 11b       0.024753
  11a-> 23a   9b-> 11b       0.024753
  10a-> 23a   9b-> 12b       0.024753
  11a-> 24a   9b-> 12b       0.024753
   9a-> 27a  -1a-> -1a       0.023482
   9a-> 12a   9b-> 28b       0.022292
   9a-> 22a  -1a-> -1a       0.022082
  11a-> 12a   9b-> 24b       0.021460
  10a-> 12a   9b-> 25b       0.021460

----------------------
UHF TRIPLES CORRECTION (Algorithm 1)
----------------------

Multiplier for the singles contribution    ...      1.000000000

SPIN-CASE Alpha-Alpha-Alpha:
10% done
20% done
30% done
40% done
50% done
60% done
70% done
80% done
90% done


SPIN-CASE Beta-Beta-Beta:
10% done
20% done
30% done
40% done
50% done
60% done
70% done
80% done
90% done


SPIN-CASE Alpha-Alpha-Beta:
10% done
20% done
30% done
40% done
50% done
60% done
70% done
80% done
90% done


SPIN-CASE Beta-Beta-Alpha:
10% done
20% done
30% done
40% done
50% done
60% done
70% done
80% done
90% done


Triples Correction (T)                     ...     -0.009854083
    alpha-alpha-alpha ... -0.000543998 (  5.5%)
    alpha-alpha-beta  ... -0.005483020 ( 55.6%)
    alpha-beta -beta  ... -0.003568232 ( 36.2%)
    beta -beta -beta  ... -0.000258832 (  2.6%)
Scaling of triples based on CCSD energies (Peterson et al. Molecular Physics 113, 1551 (2015))
E(T*) = f*E(T) where f = E(F12-CCSD)/E(CCSD) 
f = CCSD (with F12)/ CCSD (without F12)    ...      1.000000000
Scaled triples correction (T)              ...     -0.009854083

Final correlation energy                   ...     -0.452344286
E(CCSD)                                    ...   -213.783154621
E(CCSD(T))                                 ...   -213.793008703



        !!!!!!!!!!!!!!!!!!!!!!!!!!!!!!!!!!!!!!!!!!!!!!!!!!!!!!!!!!!!!!!!!!!!!!!!!! 
        !  Warning: Densities are linearized densities                           !
        !!!!!!!!!!!!!!!!!!!!!!!!!!!!!!!!!!!!!!!!!!!!!!!!!!!!!!!!!!!!!!!!!!!!!!!!!! 

NORM  =      1.105039574 sqrt=     1.051208625
W(HF) =      0.904944967
------------------------------------------------------------------------------
                           ORCA POPULATION ANALYSIS
------------------------------------------------------------------------------
Input electron density              ... 50_Sn.mdcip
Input spin density                  ... 50_Sn.mdcir
BaseName (.gbw .S,...)              ... 50_Sn

                    ********************************
                    * MULLIKEN POPULATION ANALYSIS *
                    ********************************

------------------------------------------
MULLIKEN ATOMIC CHARGES AND SPIN DENSITIES
------------------------------------------
   0 Sn:    0.000000    2.000000
Sum of atomic charges       :    0.0000000
Sum of atomic spin densities:    2.0000000

---------------------------------------------------
MULLIKEN REDUCED ORBITAL CHARGES AND SPIN DENSITIES
---------------------------------------------------
CHARGE
  0 Sns       :     3.940222  s :     3.940222
      pz      :     2.813055  p :     8.022691
      px      :     2.640846
      py      :     2.568790
      dz2     :     1.991625  d :     9.955388
      dxz     :     1.991501
      dyz     :     1.991214
      dx2y2   :     1.990510
      dxy     :     1.990538
      f0      :     0.011493  f :     0.080054
      f+1     :     0.011496
      f-1     :     0.011465
      f+2     :     0.011431
      f-2     :     0.011449
      f+3     :     0.011360
      f-3     :     0.011359
      g0      :     0.000188  g :     0.001645
      g+1     :     0.000189
      g-1     :     0.000186
      g+2     :     0.000185
      g-2     :     0.000185
      g+3     :     0.000181
      g-3     :     0.000181
      g+4     :     0.000175
      g-4     :     0.000175

SPIN
  0 Sns       :     0.024122  s :     0.024122
      pz      :     0.790034  p :     1.947664
      px      :     0.615359
      py      :     0.542271
      dz2     :     0.005987  d :     0.025881
      dxz     :     0.005781
      dyz     :     0.005364
      dx2y2   :     0.004396
      dxy     :     0.004354
      f0      :     0.000341  f :     0.002157
      f+1     :     0.000342
      f-1     :     0.000325
      f+2     :     0.000307
      f-2     :     0.000312
      f+3     :     0.000265
      f-3     :     0.000265
      g0      :     0.000023  g :     0.000177
      g+1     :     0.000024
      g-1     :     0.000022
      g+2     :     0.000021
      g-2     :     0.000021
      g+3     :     0.000018
      g-3     :     0.000018
      g+4     :     0.000014
      g-4     :     0.000014


                     *******************************
                     * LOEWDIN POPULATION ANALYSIS *
                     *******************************

-----------------------------------------
LOEWDIN ATOMIC CHARGES AND SPIN DENSITIES
-----------------------------------------
   0 Sn:    0.000000    2.000000

--------------------------------------------------
LOEWDIN REDUCED ORBITAL CHARGES AND SPIN DENSITIES
--------------------------------------------------
CHARGE
  0 Sns       :     3.940222  s :     3.940222
      pz      :     2.813055  p :     8.022691
      px      :     2.640846
      py      :     2.568790
      dz2     :     1.991625  d :     9.955388
      dxz     :     1.991501
      dyz     :     1.991214
      dx2y2   :     1.990510
      dxy     :     1.990538
      f0      :     0.011493  f :     0.080054
      f+1     :     0.011496
      f-1     :     0.011465
      f+2     :     0.011431
      f-2     :     0.011449
      f+3     :     0.011360
      f-3     :     0.011359
      g0      :     0.000188  g :     0.001645
      g+1     :     0.000189
      g-1     :     0.000186
      g+2     :     0.000185
      g-2     :     0.000185
      g+3     :     0.000181
      g-3     :     0.000181
      g+4     :     0.000175
      g-4     :     0.000175

SPIN
  0 Sns       :     0.024122  s :     0.024122
      pz      :     0.790034  p :     1.947664
      px      :     0.615359
      py      :     0.542271
      dz2     :     0.005987  d :     0.025881
      dxz     :     0.005781
      dyz     :     0.005364
      dx2y2   :     0.004396
      dxy     :     0.004354
      f0      :     0.000341  f :     0.002157
      f+1     :     0.000342
      f-1     :     0.000325
      f+2     :     0.000307
      f-2     :     0.000312
      f+3     :     0.000265
      f-3     :     0.000265
      g0      :     0.000023  g :     0.000177
      g+1     :     0.000024
      g-1     :     0.000022
      g+2     :     0.000021
      g-2     :     0.000021
      g+3     :     0.000018
      g-3     :     0.000018
      g+4     :     0.000014
      g-4     :     0.000014


                      *****************************
                      * MAYER POPULATION ANALYSIS *
                      *****************************

  NA   - Mulliken gross atomic population
  ZA   - Total nuclear charge
  QA   - Mulliken gross atomic charge
  VA   - Mayer's total valence
  BVA  - Mayer's bonded valence
  FA   - Mayer's free valence

  ATOM       NA         ZA         QA         VA         BVA        FA
  0 Sn    22.0000    22.0000     0.0000     2.7016     0.0000     2.7016





------------------------------------------------------------------------------- 
                                     TIMINGS                                   
------------------------------------------------------------------------------- 


Total execution time                   ...       15.685 sec

Fock Matrix Formation                  ...        0.464 sec (  3.0%)
Initial Guess                          ...        0.015 sec (  0.1%)
DIIS Solver                            ...        0.247 sec (  1.6%)
State Vector Update                    ...        0.012 sec (  0.1%)
Sigma-vector construction              ...        5.662 sec ( 36.1%)
  <D|H|D>(0-ext Fock)                  ...        0.004 sec (  0.1% of sigma)
  <D|H|D>(0-ext)                       ...        0.010 sec (  0.2% of sigma)
  <D|H|D>(2-ext Fock)                  ...        0.002 sec (  0.0% of sigma)
  <D|H|D>(2-ext)                       ...        0.053 sec (  0.9% of sigma)
  <D|H|D>(4-ext)                       ...        2.336 sec ( 41.3% of sigma)
  <S|H|0>                              ...        0.128 sec (  2.3% of sigma)
  <S|H|D>(1-ext)                       ...        0.001 sec (  0.0% of sigma)
  <D|H|S>(1-ext)                       ...        0.025 sec (  0.4% of sigma)
  Fock-dressing                        ...        2.205 sec ( 38.9% of sigma)
  (ik|jl)-dressing                     ...        0.013 sec (  0.2% of sigma)
  (ij|ab),(ia|jb)-dressing             ...        0.681 sec ( 12.0% of sigma)
  Pair energies                        ...        0.001 sec (  0.0% of sigma)
Total Time for computing (T)           ...        0.667 sec (  4.2% of ALL)
  I/O of integral and amplitudes       ...        0.138 sec ( 20.6% of (T))
  External N**7 contributions          ...        0.184 sec ( 27.6% of (T))
  Internal N**7 contributions          ...        0.094 sec ( 14.2% of (T))
  N**6 triples energy contributions    ...        0.229 sec ( 34.4% of (T))


-------------------------   --------------------
FINAL SINGLE POINT ENERGY      -213.793008703151
-------------------------   --------------------


                            ***************************************
                            *     ORCA property calculations      *
                            ***************************************

                                    ---------------------
                                    Active property flags
                                    ---------------------
   (+) Dipole Moment


------------------------------------------------------------------------------
                       ORCA ELECTRIC PROPERTIES CALCULATION
------------------------------------------------------------------------------

Dipole Moment Calculation                       ... on
Quadrupole Moment Calculation                   ... off
Polarizability Calculation                      ... off
GBWName                                         ... 50_Sn.gbw
Electron density file                           ... 50_Sn.scfp
The origin for moment calculation is the CENTER OF MASS  = ( 0.000000,  0.000000  0.000000)

-------------
DIPOLE MOMENT
-------------
                                X             Y             Z
Electronic contribution:      0.00000       0.00000      -0.00000
Nuclear contribution   :      0.00000       0.00000       0.00000
                        -----------------------------------------
Total Dipole Moment    :      0.00000       0.00000      -0.00000
                        -----------------------------------------
Magnitude (a.u.)       :      0.00000
Magnitude (Debye)      :      0.00000



--------------------
Rotational spectrum 
--------------------
 
Rotational constants in cm-1:     0.000000     0.000000     0.000000 
Rotational constants in MHz :     0.000000     0.000000     0.000000 

 Dipole components along the rotational axes: 
x,y,z [a.u.] :     0.000000     0.000000    -0.000000 
x,y,z [Debye]:     0.000000     0.000000    -0.000000 

 

                           *** MDCI DENSITY ***

------------------------------------------------------------------------------
                       ORCA ELECTRIC PROPERTIES CALCULATION
------------------------------------------------------------------------------

Dipole Moment Calculation                       ... on
Quadrupole Moment Calculation                   ... off
Polarizability Calculation                      ... off
GBWName                                         ... 50_Sn.gbw
Electron density file                           ... 50_Sn.mdcip
The origin for moment calculation is the CENTER OF MASS  = ( 0.000000,  0.000000  0.000000)

-------------
DIPOLE MOMENT
-------------
                                X             Y             Z
Electronic contribution:      0.00000      -0.00000      -0.00000
Nuclear contribution   :      0.00000       0.00000       0.00000
                        -----------------------------------------
Total Dipole Moment    :      0.00000      -0.00000      -0.00000
                        -----------------------------------------
Magnitude (a.u.)       :      0.00000
Magnitude (Debye)      :      0.00000



--------------------
Rotational spectrum 
--------------------
 
Rotational constants in cm-1:     0.000000     0.000000     0.000000 
Rotational constants in MHz :     0.000000     0.000000     0.000000 

 Dipole components along the rotational axes: 
x,y,z [a.u.] :     0.000000    -0.000000    -0.000000 
x,y,z [Debye]:     0.000000    -0.000000    -0.000000 

 

Timings for individual modules:

Sum of individual times         ...       23.846 sec (=   0.397 min)
GTO integral calculation        ...        0.931 sec (=   0.016 min)   3.9 %
SCF iterations                  ...        6.560 sec (=   0.109 min)  27.5 %
MDCI module                     ...       16.355 sec (=   0.273 min)  68.6 %
                             ****ORCA TERMINATED NORMALLY****
TOTAL RUN TIME: 0 days 0 hours 0 minutes 24 seconds 587 msec
