
                                 *****************
                                 * O   R   C   A *
                                 *****************

           --- An Ab Initio, DFT and Semiempirical electronic structure package ---

                  #######################################################
                  #                        -***-                        #
                  #          Department of theory and spectroscopy      #
                  #               Directorship: Frank Neese             #
                  #        Max Planck Institute fuer Kohlenforschung    #
                  #                Kaiser Wilhelm Platz 1               #
                  #                 D-45470 Muelheim/Ruhr               #
                  #                      Germany                        #
                  #                                                     #
                  #                  All rights reserved                #
                  #                        -***-                        #
                  #######################################################


                         Program Version 4.2.0 -  RELEASE  -


 With contributions from (in alphabetic order):
   Daniel Aravena         : Magnetic Suceptibility
   Michael Atanasov       : Ab Initio Ligand Field Theory (pilot matlab implementation)
   Alexander A. Auer      : GIAO ZORA, VPT2
   Ute Becker             : Parallelization
   Giovanni Bistoni       : ED, misc. LED, open-shell LED, HFLED
   Martin Brehm           : Molecular dynamics
   Dmytro Bykov           : SCF Hessian
   Vijay G. Chilkuri      : MRCI spin determinant printing, contributions to CSF-ICE
   Dipayan Datta          : RHF DLPNO-CCSD density
   Achintya Kumar Dutta   : EOM-CC, STEOM-CC
   Dmitry Ganyushin       : Spin-Orbit,Spin-Spin,Magnetic field MRCI
   Miquel Garcia          : C-PCM Hessian, Gaussian charge scheme
   Yang Guo               : DLPNO-NEVPT2, CIM, IAO-localization
   Andreas Hansen         : Spin unrestricted coupled pair/coupled cluster methods
   Benjamin Helmich-Paris : CASSCF linear response (MC-RPA)
   Lee Huntington         : MR-EOM, pCC
   Robert Izsak           : Overlap fitted RIJCOSX, COSX-SCS-MP3, EOM
   Christian Kollmar      : KDIIS, OOCD, Brueckner-CCSD(T), CCSD density
   Simone Kossmann        : Meta GGA functionals, TD-DFT gradient, OOMP2, MP2 Hessian
   Martin Krupicka        : AUTO-CI
   Lucas Lang             : DCDCAS
   Dagmar Lenk            : GEPOL surface, SMD
   Dimitrios Liakos       : Extrapolation schemes; Compound Job, initial MDCI parallelization
   Dimitrios Manganas     : Further ROCIS development; embedding schemes
   Dimitrios Pantazis     : SARC Basis sets
   Taras Petrenko         : DFT Hessian,TD-DFT gradient, ASA, ECA, R-Raman, ABS, FL, XAS/XES, NRVS
   Peter Pinski           : DLPNO-MP2, DLPNO-MP2 Gradient
   Christoph Reimann      : Effective Core Potentials
   Marius Retegan         : Local ZFS, SOC
   Christoph Riplinger    : Optimizer, TS searches, QM/MM, DLPNO-CCSD(T), (RO)-DLPNO pert. Triples
   Tobias Risthaus        : Range-separated hybrids, TD-DFT gradient, RPA, STAB
   Michael Roemelt        : Original ROCIS implementation
   Masaaki Saitow         : Open-shell DLPNO-CCSD energy and density
   Barbara Sandhoefer     : DKH picture change effects
   Avijit Sen             : IP-ROCIS
   Kantharuban Sivalingam : CASSCF convergence, NEVPT2, FIC-MRCI
   Bernardo de Souza      : ESD, SOC TD-DFT
   Georgi Stoychev        : AutoAux, RI-MP2 NMR
   Willem Van den Heuvel  : Paramagnetic NMR
   Boris Wezisla          : Elementary symmetry handling
   Frank Wennmohs         : Technical directorship


 We gratefully acknowledge several colleagues who have allowed us to
 interface, adapt or use parts of their codes:
   Stefan Grimme, W. Hujo, H. Kruse,             : VdW corrections, initial TS optimization,
                  C. Bannwarth                     DFT functionals, gCP, sTDA/sTD-DF
   Ed Valeev, F. Pavosevic, A. Kumar             : LibInt (2-el integral package), F12 methods
   Garnet Chan, S. Sharma, J. Yang, R. Olivares  : DMRG
   Ulf Ekstrom                                   : XCFun DFT Library
   Mihaly Kallay                                 : mrcc  (arbitrary order and MRCC methods)
   Andreas Klamt, Michael Diedenhofen            : otool_cosmo (COSMO solvation model)
   Jiri Pittner, Ondrej Demel                    : Mk-CCSD
   Frank Weinhold                                : gennbo (NPA and NBO analysis)
   Christopher J. Cramer and Donald G. Truhlar   : smd solvation model
   Lars Goerigk                                  : TD-DFT with DH, B97 family of functionals
   V. Asgeirsson, H. Jonsson                     : NEB implementation
   FAccTs GmbH                                   : IRC, NEB, NEB-TS, Multilevel, MM, QM/MM, CI optimization
   S Lehtola, MJT Oliveira, MAL Marques          : LibXC Library


 Your calculation uses the libint2 library for the computation of 2-el integrals
 For citations please refer to: http://libint.valeyev.net

 Your ORCA version has been built with support for libXC version: 4.2.3
 For citations please refer to: https://tddft.org/programs/libxc/

 This ORCA versions uses:
   CBLAS   interface :  Fast vector & matrix operations
   LAPACKE interface :  Fast linear algebra routines
   SCALAPACK package :  Parallel linear algebra routines


----- Orbital basis set information -----
Your calculation utilizes the basis: def2-SVP
   F. Weigend and R. Ahlrichs, Phys. Chem. Chem. Phys. 7, 3297 (2005).

----- AuxJ basis set information -----
Your calculation utilizes the auxiliary basis: def2/J
   F. Weigend, Phys. Chem. Chem. Phys. 8, 1057 (2006).

================================================================================
                                        WARNINGS
                       Please study these warnings very carefully!
================================================================================


INFO   : the flag for use of LIBINT has been found!

================================================================================
                                       INPUT FILE
================================================================================
NAME = 51_Sb_atom51.inp
|  1> # input to generate an atomic fitting density for Sb
|  2> # this file is use internally by ORCA
|  3> #
|  4> # atomic ground state (S=4): 1s2 2s2 2p6 3s2 3p6 4s2 3d10 4p6 5s2 4d10 5p3 
|  5> #
|  6> ! RHF AllowRHF def2-SVP def2/J  NoMulliken NoLoewdin NoMayer NoPrintMOs 
|  7> 
|  8> %output print[p_atomdensfit] 2 end
|  9> 
| 10> %scf
| 11>   guess hcore
| 12>   maxiter 1000
| 13>   maxdisk 500000
| 14>   SCFMode Conventional
| 15>   lshift 1.000000
| 16>   hftyp rohf
| 17>   rohf_case sahf
| 18>   rohf_numop   2
| 19>   rohf_norb[1] 3
| 20>   rohf_nel[1]  3
| 21> end
| 22> 
| 23> %basis
| 24>   NewECP 51
| 25>     N_core 28
| 26>     lmax f
| 27>     s 4
| 28>       1      16.3308650000    281.0715810000  2
| 29>       2       8.5565420000     61.7166040000  2
| 30>       3      14.4449780000     15.3668010000  2
| 31>       4      14.4492950000     20.2961380000  2
| 32>     p 6
| 33>       1      14.4703370000     67.4573800000  2
| 34>       2      13.8161940000    134.9335030000  2
| 35>       3       8.4249240000     14.7163440000  2
| 36>       4       8.0927280000     29.5185120000  2
| 37>       5      14.4449780000     15.3668010000  2
| 38>       6      14.4492950000     20.2961380000  2
| 39>     d 6
| 40>       1      14.8863310000     35.4478150000  2
| 41>       2      15.1463190000     53.1434660000  2
| 42>       3       5.9082670000      9.1792230000  2
| 43>       4       5.5943220000     13.2402530000  2
| 44>       5      14.4449780000     15.3668010000  2
| 45>       6      14.4492950000     20.2961380000  2
| 46>     f 2
| 47>       1      14.4449780000    -15.3668010000  2
| 48>       2      14.4492950000    -20.2961380000  2
| 49>   end
| 50>   NewGTO 51
| 51>     s 9 
| 52>      1   12339.3165550000      0.0001062594
| 53>      2    1854.7043271000      0.0007636787
| 54>      3     418.4444177200      0.0030770599
| 55>      4      96.9651111090      0.0079471651
| 56>      5      28.5379602670     -0.1669386813
| 57>      6      17.8629071440      0.7715813479
| 58>      7       8.4541754812     -1.5092770049
| 59>      8       5.2813981306     -0.8362947252
| 60>      9       2.3194618632      1.8771593451
| 61>     s 1 
| 62>      1       1.2167512076      1.0000000000
| 63>     s 3 
| 64>      1      25.3362666010      0.0501016644
| 65>      2      12.4770433090     -0.3294267888
| 66>      3       3.0723142741      1.1909064315
| 67>     s 1 
| 68>      1       0.6017477470      1.0000000000
| 69>     s 1 
| 70>      1       0.2832393635      1.0000000000
| 71>     s 1 
| 72>      1       0.1322176573      1.0000000000
| 73>     s 1 
| 74>      1       0.0609867190      1.0000000000
| 75>     p 7 
| 76>      1     162.8930000000      0.0004035625
| 77>      2      30.3996000000     -0.0051634476
| 78>      3      19.0004000000      0.0588996771
| 79>      4       9.3225600000     -0.2747281280
| 80>      5       3.0166800000      0.3716832104
| 81>      6       1.8621900000      0.4356677749
| 82>      7       1.1033100000      0.3507463881
| 83>     p 3 
| 84>      1      12.6653261130     -0.0222287165
| 85>      2       3.3473442879      0.2887067805
| 86>      3       1.1722158971      0.7797103956
| 87>     p 1 
| 88>      1       0.5888674548      1.0000000000
| 89>     p 1 
| 90>      1       0.2501424961      1.0000000000
| 91>     p 1 
| 92>      1       0.1112016109      1.0000000000
| 93>     p 1 
| 94>      1       0.0482066854      1.0000000000
| 95>     s 1 
| 96>      1       0.0295385571      1.0000000000
| 97>   end
| 98>   NewAuxGTO 51
| 99>     S 1
|100>      1 1310.72 1.0
|101>     S 1
|102>      1  655.36 1.0
|103>     S 1
|104>      1  327.68 1.0
|105>     S 1
|106>      1  163.84 1.0
|107>     S 1
|108>      1   81.82 1.0
|109>     S 1
|110>      1   40.96 1.0
|111>     S 1
|112>      1   20.48 1.0
|113>     S 1
|114>      1   10.24 1.0
|115>     S 1
|116>      1    5.12 1.0
|117>     S 1
|118>      1    2.56 1.0
|119>     S 1
|120>      1    1.28 1.0
|121>     S 1
|122>      1    0.64 1.0
|123>     S 1
|124>      1    0.32 1.0
|125>     S 1
|126>      1    0.16 1.0
|127>     S 1
|128>      1    0.08 1.0
|129>     S 1
|130>      1    0.04 1.0
|131>     S 1
|132>      1    0.02 1.0
|133>     S 1
|134>      1    0.01 1.0
|135>   end
|136> end
|137> 
|138> * xyz 0 4
|139> 51  0.0 0.0 0.0
|140> *
|141> 
|142> 
|143>                          ****END OF INPUT****
================================================================================

                       ****************************
                       * Single Point Calculation *
                       ****************************

---------------------------------
CARTESIAN COORDINATES (ANGSTROEM)
---------------------------------
  Sb     0.000000    0.000000    0.000000

----------------------------
CARTESIAN COORDINATES (A.U.)
----------------------------
  NO LB      ZA    FRAG     MASS         X           Y           Z
   0 Sb   23.0000*   0   121.750    0.000000    0.000000    0.000000
* core charge reduced due to ECP

--------------------------------
INTERNAL COORDINATES (ANGSTROEM)
--------------------------------
 Sb     0   0   0     0.000000000000     0.00000000     0.00000000

---------------------------
INTERNAL COORDINATES (A.U.)
---------------------------
 Sb     0   0   0     0.000000000000     0.00000000     0.00000000

---------------------
BASIS SET INFORMATION
---------------------
There are 1 groups of distinct atoms

 Group   1 Type Sb  : 18s14p contracted to 8s6p pattern {91311111/731111}

Atom   0Sb   basis set group =>   1
---------------------------------
AUXILIARY/J BASIS SET INFORMATION
---------------------------------
There are 1 groups of distinct atoms

 Group   1 Type Sb  : 18s contracted to 18s pattern {111111111111111111}

Atom   0Sb   basis set group =>   1
-------------------------
ECP PARAMETER INFORMATION
-------------------------

 Group 1, Type Sb ECP (replacing 28 core electrons, lmax=3)

Atom   0Sb   ECP group =>   1

------------------------------------------------------------------------------
                           ORCA GTO INTEGRAL CALCULATION
------------------------------------------------------------------------------

                         BASIS SET STATISTICS AND STARTUP INFO

 # of primitive gaussian shells          ...   32
 # of primitive gaussian functions       ...   60
 # of contracted shells                  ...   14
 # of contracted basis functions         ...   26
 Highest angular momentum                ...    1
 Maximum contraction depth               ...    9
 Integral package used                   ... LIBINT
 Integral threshhold            Thresh   ...  1.000e-10
 Primitive cut-off              TCut     ...  1.000e-11
 Storage cut-off                TCutStore... -1.000e+00
 Buffer length                           ... 1048576 integrals/buffer
 Generate file with integrals 4 distinct ...false


------------------------------ INTEGRAL EVALUATION ----------------------------


 * One electron integrals 

   ECP integrals                         ... done
 Pre-screening matrix                    ... done
 Shell pair data                         ... done (   0.000 sec)
 Statistics run                          ... done
 Maximum amount of storage needed        ...     0 MB
 Maximum amount of storage dedicated     ... 500000 MB
 Beginning two electron integral evaluation:
 Starting repulsion integrals
  <ss|ss>  ...          666 b.         0 skpd (  0.0%)     0.000 s. (  0.000 ms/b)
  <ss|sp>  ...         1728 b.         0 skpd (  0.0%)     0.001 s. (  0.001 ms/b)
  <ss|pp>  ...          756 b.         0 skpd (  0.0%)     0.002 s. (  0.003 ms/b)
  <sp|sp>  ...         1176 b.         0 skpd (  0.0%)     0.003 s. (  0.002 ms/b)
  <sp|pp>  ...         1008 b.         0 skpd (  0.0%)     0.004 s. (  0.004 ms/b)
  <pp|pp>  ...          231 b.         0 skpd (  0.0%)     0.003 s. (  0.013 ms/b)


                                      INTEGRAL STATISTICS

Integral type statistics:
 Number of integrals retained            ...      61776 
 One   Center Integrals retained         ...      61776 (100.0%)
 Two   Center Integrals retained         ...          0 (  0.0%)
 Three Center Integrals retained         ...          0 (  0.0%)
 Four  Center Integrals retained         ...          0 (  0.0%)

Storage statistics:
 Number of char integrals                ...          0 (  0.0%)
 Number of short int integrals           ...          0 (  0.0%)
 Number of double/float integrals        ...      61776 (100.0%)
 Amount of memory used                   ...          0 MB
 Amount of memory estimated              ...          0 MB ( 96.4%)

Prescreening statistics:
 Total number of shell quadruples        ...       5565 
 Number of skipped shell quadruples      ...          0 (  0.0%)
 # of negligible batches done            ...          0 (  0.0%)

Timings:
 Total evaluation time               ...     0.178 sec (   0.003 min)
 One electron matrix time            ...     0.015 sec (   0.000 min) =  8.4%
 Schwartz matrix evaluation time     ...     0.076 sec (   0.001 min) = 42.5%
 Statistics run                      ...     0.001 sec (   0.000 min) =  0.3%
 Repulsion integral time             ...     0.014 sec (   0.000 min) =  7.9%

-------------------------------------------------------------------------------
                                 ORCA SCF
-------------------------------------------------------------------------------

------------
SCF SETTINGS
------------
Hamiltonian:
 Ab initio Hamiltonian  Method          .... Hartree-Fock(GTOs)


General Settings:
 Integral files         IntName         .... 51_Sb_atom51
 Hartree-Fock type      HFTyp           .... ROHF
 Total Charge           Charge          ....    0
 Multiplicity           Mult            ....    4
 Number of Electrons    NEL             ....   23
 Basis Dimension        Dim             ....   26
 Nuclear Repulsion      ENuc            ....      0.0000000000 Eh

Convergence Acceleration:
 DIIS                   CNVDIIS         .... on
   Start iteration      DIISMaxIt       ....    12
   Startup error        DIISStart       ....  0.200000
   # of expansion vecs  DIISMaxEq       ....     5
   Bias factor          DIISBfac        ....   1.050
   Max. coefficient     DIISMaxC        ....  10.000
 Newton-Raphson         CNVNR           .... off
 SOSCF                  CNVSOSCF        .... off
 Level Shifting         CNVShift        .... on
   Level shift para.    LevelShift      ....    1.0000
   Turn off err/grad.   ShiftErr        ....    0.0010
 Zerner damping         CNVZerner       .... off
 Static damping         CNVDamp         .... on
   Fraction old density DampFac         ....    0.7000
   Max. Damping (<1)    DampMax         ....    0.9800
   Min. Damping (>=0)   DampMin         ....    0.0000
   Turn off err/grad.   DampErr         ....    0.1000
 Fernandez-Rico         CNVRico         .... off

SCF Procedure:
 Maximum # iterations   MaxIter         ....  1000
 SCF integral mode      SCFMode         .... Conventional
 Integral Threshold     Thresh          ....  1.000e-10 Eh
 Primitive CutOff       TCut            ....  1.000e-11 Eh
 Integral Buffer length BufferLength    .... 1048576
 Integral index format  IndFormat       ....     0
 Integral value format  ValFormat       ....     0
 Integral Storage       Thresh          ....  1.000e-10 Eh

Convergence Tolerance:
 Convergence Check Mode ConvCheckMode   .... Total+1el-Energy
 Convergence forced     ConvForced      .... 0
 Energy Change          TolE            ....  1.000e-06 Eh
 1-El. energy change                    ....  1.000e-03 Eh
 DIIS Error             TolErr          ....  1.000e-06


Diagonalization of the overlap matrix:
Smallest eigenvalue                        ... 1.023e-03
Time for diagonalization                   ...    0.001 sec
Threshold for overlap eigenvalues          ... 1.000e-08
Number of eigenvalues below threshold      ... 0
Time for construction of square roots      ...    0.002 sec
Total time needed                          ...    0.003 sec

--------------------
INITIAL GUESS: HCORE
--------------------
AVERAGE-CONFIGURATION (SAHF) CASE FOUND

-------------------
FINAL ROHF SETTINGS
-------------------
Number of operators             ... 2
  operator   0:  10 orbitals  20 electrons n(mue)= 2.000
  operator   1:   3 orbitals   3 electrons n(mue)= 1.000
Vector coupling coefficients a and b (Zerner convention):
   1.000    1.000           1.000    1.000 
   1.000    1.000           1.000    2.000 

                      -----------------
                      INTIAL GUESS DONE 
                      -----------------

 InCore treatment chosen:
   Memory dedicated               ...    1024 MB
   Memory needed                  ...      0 MB
   Number of tiny    integrals    ...       0
   Number of small   integrals    ...       0
   Number of regular integrals    ...   61776

--------------
SCF ITERATIONS
--------------
ITER       Energy         Delta-E        Max-DP      RMS-DP      [F,P]     Damp
  0   -203.0606170998   0.00000000000010.66913379  0.58107655  2.8061129 0.7000
  1   -206.9892799392  -3.928662839368 7.44992997  0.48442837  0.6622214 0.7000
  2   -208.6240319800  -1.634752040824 5.80746287  0.39123547  0.4224198 0.7000
  3   -209.6588476929  -1.034815712914 4.44000494  0.29266364  0.2445751 0.7000
                            ****Activating DIIS****
  4   -210.3321623734  -0.673314680528 4.06125381  0.22753529  0.1509052 0.7000
  5   -210.8547022526  -0.522539879165 8.80946738  0.53144048  0.0850387 0.0000
  6   -211.8100989026  -0.955396650020 0.48279762  0.02652266  0.0525364 0.0000
  7   -211.8266611801  -0.016562277457 0.80126800  0.04873317  0.0356149 0.0000
  8   -211.8414841919  -0.014823011797 0.16313708  0.01021941  0.0239493 0.0000
  9   -211.8440236396  -0.002539447741 0.34672522  0.01781353  0.0188683 0.0000
 10   -211.8464066045  -0.002382964910 0.44746371  0.02126182  0.0120163 0.0000
 11   -211.8477360050  -0.001329400422 0.32581396  0.01490493  0.0049494 0.0000
 12   -211.8480619126  -0.000325907651 0.35421438  0.01604848  0.0037636 0.0000
 13   -211.8482404800  -0.000178567382 0.33553108  0.01491820  0.0029904 0.0000
 14   -211.8483372835  -0.000096803531 0.16595567  0.00714999  0.0021997 0.0000
 15   -211.8483677272  -0.000030443682 0.14000854  0.00592597  0.0017700 0.0000
 16   -211.8483870283  -0.000019301078 0.10177618  0.00428832  0.0013880 0.0000
 17   -211.8483977932  -0.000010764917 0.12109023  0.00509648  0.0011064 0.0000
 18   -211.8484073433  -0.000009550089 0.14069469  0.00591163  0.0007705 0.0000
 19   -211.8484141395  -0.000006796265 0.06654039  0.00278843  0.0003783 0.0000
 20   -211.8484157685  -0.000001628918 0.02441392  0.00101629  0.0001928 0.0000
                 **** Energy Check signals convergence ****

               *****************************************************
               *                     SUCCESS                       *
               *           SCF CONVERGED AFTER  21 CYCLES          *
               *****************************************************


----------------
TOTAL SCF ENERGY
----------------

Total Energy       :         -211.84841613 Eh           -5764.68847 eV

Components:
Nuclear Repulsion  :            0.00000000 Eh               0.00000 eV
Electronic Energy  :         -211.84841613 Eh           -5764.68847 eV
One Electron Energy:         -332.21376682 Eh           -9039.99618 eV
Two Electron Energy:          120.36535069 Eh            3275.30771 eV

Virial components:
Potential Energy   :         -272.17739020 Eh           -7406.32332 eV
Kinetic Energy     :           60.32897407 Eh            1641.63484 eV
Virial Ratio       :            4.51155344


---------------
SCF CONVERGENCE
---------------

  Last Energy change         ...   -3.5956e-07  Tolerance :   1.0000e-06
  Last MAX-Density change    ...    6.3676e-03  Tolerance :   1.0000e-05
  Last RMS-Density change    ...    2.6419e-04  Tolerance :   1.0000e-06
  Last DIIS Error            ...    1.2577e-04  Tolerance :   1.0000e-06

             **** THE GBW FILE WAS UPDATED (51_Sb_atom51.gbw) ****
             **** DENSITY FILE WAS UPDATED (51_Sb_atom51.scfp) ****
             **** ENERGY FILE WAS UPDATED (51_Sb_atom51.en.tmp) ****
             **** THE GBW FILE WAS UPDATED (51_Sb_atom51.gbw) ****
             **** DENSITY FILE WAS UPDATED (51_Sb_atom51.scfp) ****
----------------
ORBITAL ENERGIES
----------------

  NO   OCC          E(Eh)            E(eV) 
   0   2.0000     -10.708403      -291.3905 
   1   2.0000      -8.461412      -230.2467 
   2   2.0000      -8.461412      -230.2467 
   3   2.0000      -8.454374      -230.0552 
   4   2.0000      -2.730774       -74.3081 
   5   2.0000      -1.906049       -51.8662 
   6   2.0000      -1.906049       -51.8662 
   7   2.0000      -1.892949       -51.5098 
   8   2.0000      -0.529370       -14.4049 
   9   2.0000      -0.301307        -8.1990 
  10   1.0000      -0.350515        -9.5380 
  11   1.0000      -0.350515        -9.5380 
  12   1.0000      -0.077633        -2.1125 
  13   0.0000       0.140334         3.8187 
  14   0.0000       0.140334         3.8187 
  15   0.0000       0.159146         4.3306 
  16   0.0000       0.322250         8.7689 
  17   0.0000       0.954183        25.9646 
  18   0.0000       0.954183        25.9646 
  19   0.0000       0.979884        26.6640 
  20   0.0000       1.367343        37.2073 
  21   0.0000      10.896624       296.5122 
  22   0.0000      36.026007       980.3175 
  23   0.0000      36.026007       980.3175 
  24   0.0000      36.030945       980.4519 
  25   0.0000      71.084901      1934.3185 
CleanUpVectors: The p-vectors have cracked symmetry
CleanUpVectors: The p-vectors have cracked symmetry
CleanUpVectors: The p-vectors have cracked symmetry
CleanUpVectors: The p-vectors have cracked symmetry
CleanUpVectors: The p-vectors have cracked symmetry
CleanUpVectors: The p-vectors have cracked symmetry
CleanUpVectors: The p-vectors have cracked symmetry
CleanUpVectors: The p-vectors have cracked symmetry
CleanUpVectors: The p-vectors have cracked symmetry
CleanUpVectors: The p-vectors have cracked symmetry
CleanUpVectors: The p-vectors have cracked symmetry
CleanUpVectors: The p-vectors have cracked symmetry
CleanUpVectors: The p-vectors have cracked symmetry
CleanUpVectors: The p-vectors have cracked symmetry
CleanUpVectors: The p-vectors have cracked symmetry
CleanUpVectors: The p-vectors have cracked symmetry
CleanUpVectors: The p-vectors have cracked symmetry
--------------------------
ATOM BASIS FOR ELEMENT Sb
--------------------------
 NewGTO Sb
 S 18
    1      12339.316554999999        -0.000042660986
    2       1854.704327100000        -0.000306601450
    3        418.444417720000        -0.001235376901
    4         96.965111109000        -0.003190624985
    5         28.537960267000         0.067022481701
    6         17.862907144000        -0.309774201927
    7          8.454175481200         0.605943988863
    8          5.281398130600         0.335755305360
    9          2.319461863200        -0.753641258436
   10          1.216751207600        -0.764511401983
   11         25.336266601000        -0.004828147993
   12         12.477043309000         0.031745877274
   13          3.072314274100        -0.114764101478
   14          0.601747747000         0.228248824421
   15          0.283239363500        -0.164750900976
   16          0.132217657300         0.096795774483
   17          0.060986719000        -0.046020445458
   18          0.029538557100         0.013169867966
 P 32
    1        162.893000000000         0.000217939095
    2         30.399600000000        -0.002788458038
    3         19.000400000000         0.031808065224
    4          9.322560000000        -0.148363635328
    5          3.016680000000         0.200723066425
    6          1.862190000000         0.235277164191
    7          1.103310000000         0.189416386285
    8        162.893000000000        -0.000293086721
    9         30.399600000000         0.003749946847
   10         19.000400000000        -0.042775810959
   11          9.322560000000         0.199520931983
   12          3.016680000000        -0.269934429654
   13          1.862190000000        -0.316403133221
   14          1.103310000000        -0.254729090731
   15        162.893000000000         0.000187967273
   16         30.399600000000        -0.002404978572
   17         19.000400000000         0.027433697855
   18          9.322560000000        -0.127960098032
   19          3.016680000000         0.173118858946
   20          1.862190000000         0.202920944395
   21          1.103310000000         0.163367116911
   22         12.665326113000        -0.001178512998
   23          3.347344287900         0.015306537982
   24          1.172215897100         0.041338366783
   25         12.665326113000         0.001584876315
   26          3.347344287900        -0.020584388599
   27          1.172215897100        -0.055592257827
   28         12.665326113000        -0.001016439361
   29          3.347344287900         0.013201524055
   30          1.172215897100         0.035653355719
   31          0.588867454800        -0.116995989641
   32          0.588867454800         0.157337401715
 S 18
    1      12339.316554999999        -0.000028076273
    2       1854.704327100000        -0.000201782164
    3        418.444417720000        -0.000813032765
    4         96.965111109000        -0.002099830951
    5         28.537960267000         0.044109189318
    6         17.862907144000        -0.203870232374
    7          8.454175481200         0.398787055367
    8          5.281398130600         0.220969053261
    9          2.319461863200        -0.495990361780
   10          1.216751207600        -1.436364405477
   11         25.336266601000        -0.011614426555
   12         12.477043309000         0.076366789199
   13          3.072314274100        -0.276072570603
   14          0.601747747000         1.869375686473
   15          0.283239363500         0.115921853053
   16          0.132217657300         0.210424194123
   17          0.060986719000        -0.101935322243
   18          0.029538557100         0.029456066218
 P 32
    1        162.893000000000         0.000151393836
    2         30.399600000000        -0.001937033637
    3         19.000400000000         0.022095829106
    4          9.322560000000        -0.103062462577
    5          3.016680000000         0.139434528387
    6          1.862190000000         0.163437919784
    7          1.103310000000         0.131580216269
    8        162.893000000000        -0.000168156043
    9         30.399600000000         0.002151500495
   10         19.000400000000        -0.024542262122
   11          9.322560000000         0.114473458288
   12          3.016680000000        -0.154872610941
   13          1.862190000000        -0.181533639168
   14          1.103310000000        -0.146148675493
   15        162.893000000000        -0.000036824507
   16         30.399600000000         0.000471157289
   17         19.000400000000        -0.005374512217
   18          9.322560000000         0.025068553054
   19          3.016680000000        -0.033915567172
   20          1.862190000000        -0.039754068171
   21          1.103310000000        -0.032005111754
   22         12.665326113000        -0.006515733686
   23          3.347344287900         0.084626410843
   24          1.172215897100         0.228550545861
   25         12.665326113000         0.007237150653
   26          3.347344287900        -0.093996181244
   27          1.172215897100        -0.253855484570
   28         12.665326113000         0.001584864280
   29          3.347344287900        -0.020584232290
   30          1.172215897100        -0.055591835681
   31          0.588867454800        -0.904379721467
   32          0.588867454800         1.004511940952
 S 18
    1      12339.316554999999        -0.000005817685
    2       1854.704327100000        -0.000041811286
    3        418.444417720000        -0.000168468536
    4         96.965111109000        -0.000435106015
    5         28.537960267000         0.009139866028
    6         17.862907144000        -0.042243955055
    7          8.454175481200         0.082632673968
    8          5.281398130600         0.045787002084
    9          2.319461863200        -0.102774173094
   10          1.216751207600        -0.483680587072
   11         25.336266601000        -0.002662345177
   12         12.477043309000         0.017505363003
   13          3.072314274100        -0.063283406494
   14          0.601747747000         0.982752800306
   15          0.283239363500        -0.311460992460
   16          0.132217657300         0.502414989363
   17          0.060986719000        -2.893438006596
   18          0.029538557100         2.747035108804
 S 18
    1      12339.316554999999         0.000008908902
    2       1854.704327100000         0.000064027639
    3        418.444417720000         0.000257983995
    4         96.965111109000         0.000666298826
    5         28.537960267000        -0.013996317668
    6         17.862907144000         0.064690205815
    7          8.454175481200        -0.126539399047
    8          5.281398130600        -0.070115844612
    9          2.319461863200         0.157383048090
   10          1.216751207600         0.433955782626
   11         25.336266601000         0.007071803136
   12         12.477043309000        -0.046498283558
   13          3.072314274100         0.168095330512
   14          0.601747747000        -0.184763894679
   15          0.283239363500        -3.817876473178
   16          0.132217657300         8.699478913106
   17          0.060986719000        -8.411038247057
   18          0.029538557100         3.278430531999
 S 18
    1      12339.316554999999        -0.000027241290
    2       1854.704327100000        -0.000195781202
    3        418.444417720000        -0.000788853330
    4         96.965111109000        -0.002037382391
    5         28.537960267000         0.042797390683
    6         17.862907144000        -0.197807171669
    7          8.454175481200         0.386927206596
    8          5.281398130600         0.214397476979
    9          2.319461863200        -0.481239705751
   10          1.216751207600        -3.718624968813
   11         25.336266601000        -0.006465102917
   12         12.477043309000         0.042509128563
   13          3.072314274100        -0.153674188999
   14          0.601747747000        11.030306039088
   15          0.283239363500       -14.441088838706
   16          0.132217657300        11.579469563503
   17          0.060986719000        -6.035438902036
   18          0.029538557100         1.708904854237
 S 18
    1      12339.316554999999        -0.000011011461
    2       1854.704327100000        -0.000079138582
    3        418.444417720000        -0.000318869909
    4         96.965111109000        -0.000823549719
    5         28.537960267000         0.017299540446
    6         17.862907144000        -0.079957518720
    7          8.454175481200         0.156403527252
    8          5.281398130600         0.086663643863
    9          2.319461863200        -0.194526479787
   10          1.216751207600       -10.120352836298
   11         25.336266601000         0.213955395860
   12         12.477043309000        -1.406792366058
   13          3.072314274100         5.085676494696
   14          0.601747747000        11.774433491883
   15          0.283239363500        -8.777638566193
   16          0.132217657300         5.244725787382
   17          0.060986719000        -2.464968811727
   18          0.029538557100         0.694251031095
 S 18
    1      12339.316554999999        -0.000136527197
    2       1854.704327100000        -0.000981211188
    3        418.444417720000        -0.003953554814
    4         96.965111109000        -0.010210900620
    5         28.537960267000         0.214490860952
    6         17.862907144000        -0.991364891090
    7          8.454175481200         1.939191813877
    8          5.281398130600         1.074511756179
    9          2.319461863200        -2.411864769384
   10          1.216751207600         6.546043459746
   11         25.336266601000        -0.119847396190
   12         12.477043309000         0.788016592777
   13          3.072314274100        -2.848748372544
   14          0.601747747000        -5.851953011457
   15          0.283239363500         3.949991839962
   16          0.132217657300        -2.297580026582
   17          0.060986719000         1.078446955476
   18          0.029538557100        -0.305046507973
 P 32
    1        162.893000000000        -0.000172921195
    2         30.399600000000         0.002212469020
    3         19.000400000000        -0.025237732807
    4          9.322560000000         0.117717370116
    5          3.016680000000        -0.159261340887
    6          1.862190000000        -0.186677880707
    7          1.103310000000        -0.150290189379
    8        162.893000000000        -0.000148785898
    9         30.399600000000         0.001903665950
   10         19.000400000000        -0.021715202411
   11          9.322560000000         0.101287090208
   12          3.016680000000        -0.137032604322
   13          1.862190000000        -0.160622509017
   14          1.103310000000        -0.129313591987
   15        162.893000000000        -0.000031499538
   16         30.399600000000         0.000403026088
   17         19.000400000000        -0.004597336559
   18          9.322560000000         0.021443541437
   19          3.016680000000        -0.029011242429
   20          1.862190000000        -0.034005473163
   21          1.103310000000        -0.027377046398
   22         12.665326113000         0.007474345399
   23          3.347344287900        -0.097076868860
   24          1.172215897100        -0.262175497547
   25         12.665326113000         0.006431121388
   26          3.347344287900        -0.083527465519
   27          1.172215897100        -0.225582624247
   28         12.665326113000         0.001361535983
   29          3.347344287900        -0.017683642252
   30          1.172215897100        -0.047758212232
   31          0.588867454800         1.041156997906
   32          0.588867454800         0.895838589184
 P 32
    1        162.893000000000         0.000024535614
    2         30.399600000000        -0.000313924995
    3         19.000400000000         0.003580956427
    4          9.322560000000        -0.016702798794
    5          3.016680000000         0.022597430862
    6          1.862190000000         0.026487536016
    7          1.103310000000         0.021324523232
    8        162.893000000000        -0.000008810847
    9         30.399600000000         0.000112731847
   10         19.000400000000        -0.001285937207
   11          9.322560000000         0.005998048528
   12          3.016680000000        -0.008114836836
   13          1.862190000000        -0.009511790711
   14          1.103310000000        -0.007657730106
   15        162.893000000000        -0.000093074313
   16         30.399600000000         0.001190854795
   17         19.000400000000        -0.013584133762
   18          9.322560000000         0.063361020344
   19          3.016680000000        -0.085721937638
   20          1.862190000000        -0.100478807721
   21          1.103310000000        -0.080893242326
   22         12.665326113000        -0.001370905393
   23          3.347344287900         0.017805332229
   24          1.172215897100         0.048086860350
   25         12.665326113000         0.000492298158
   26          3.347344287900        -0.006393973135
   27          1.172215897100        -0.017268203102
   28         12.665326113000         0.005200443683
   29          3.347344287900        -0.067543411828
   30          1.172215897100        -0.182414490804
   31          0.588867454800        -0.230008121050
   32          0.588867454800         0.082596928152
 P 32
    1        162.893000000000        -0.000047388806
    2         30.399600000000         0.000606323973
    3         19.000400000000        -0.006916364607
    4          9.322560000000         0.032260277046
    5          3.016680000000        -0.043645342863
    6          1.862190000000        -0.051158806419
    7          1.103310000000        -0.041186811614
    8        162.893000000000        -0.000040774563
    9         30.399600000000         0.000521696933
   10         19.000400000000        -0.005951020187
   11          9.322560000000         0.027757582318
   12          3.016680000000        -0.037553589376
   13          1.862190000000        -0.044018369044
   14          1.103310000000        -0.035438205077
   15        162.893000000000        -0.000008632403
   16         30.399600000000         0.000110448723
   17         19.000400000000        -0.001259893514
   18          9.322560000000         0.005876571885
   19          3.016680000000        -0.007950489527
   20          1.862190000000        -0.009319151322
   21          1.103310000000        -0.007502640440
   22         12.665326113000         0.002526090021
   23          3.347344287900        -0.032808881127
   24          1.172215897100        -0.088606944522
   25         12.665326113000         0.002173513625
   26          3.347344287900        -0.028229615554
   27          1.172215897100        -0.076239722090
   28         12.665326113000         0.000460155676
   29          3.347344287900        -0.005976506282
   30          1.172215897100        -0.016140750380
   31          0.588867454800         0.368126002010
   32          0.588867454800         0.316745196879
 P 32
    1        162.893000000000        -0.000142743767
    2         30.399600000000         0.001826358899
    3         19.000400000000        -0.020833357433
    4          9.322560000000         0.097173865280
    5          3.016680000000        -0.131467769526
    6          1.862190000000        -0.154099698394
    7          1.103310000000        -0.124062222943
    8        162.893000000000        -0.000122820454
    9         30.399600000000         0.001571446749
   10         19.000400000000        -0.017925563165
   11          9.322560000000         0.083610923762
   12          3.016680000000        -0.113118291872
   13          1.862190000000        -0.132591392727
   14          1.103310000000        -0.106746366777
   15        162.893000000000        -0.000026002381
   16         30.399600000000         0.000332691791
   17         19.000400000000        -0.003795030104
   18          9.322560000000         0.017701311239
   19          3.016680000000        -0.023948331164
   20          1.862190000000        -0.028070991261
   21          1.103310000000        -0.022599327658
   22         12.665326113000         0.010592823631
   23          3.347344287900        -0.137579693674
   24          1.172215897100        -0.371561475609
   25         12.665326113000         0.009114341253
   26          3.347344287900        -0.118377150542
   27          1.172215897100        -0.319701167805
   28         12.665326113000         0.001929601827
   29          3.347344287900        -0.025061686811
   30          1.172215897100        -0.067684097006
   31          0.588867454800         2.483657386104
   32          0.588867454800         2.137003480953
 P 32
    1        162.893000000000        -0.001959247936
    2         30.399600000000         0.025067923929
    3         19.000400000000        -0.285950926468
    4          9.322560000000         1.333772383759
    5          3.016680000000        -1.804477776438
    6          1.862190000000        -2.115115226409
    7          1.103310000000        -1.702831994513
    8        162.893000000000        -0.001685787932
    9         30.399600000000         0.021569094384
   10         19.000400000000        -0.246039621775
   11          9.322560000000         1.147612483331
   12          3.016680000000        -1.552619657859
   13          1.862190000000        -1.819900207161
   14          1.103310000000        -1.465160980774
   15        162.893000000000        -0.000356899023
   16         30.399600000000         0.004566403971
   17         19.000400000000        -0.052089173795
   18          9.322560000000         0.242961624078
   19          3.016680000000        -0.328705899533
   20          1.862190000000        -0.385292000927
   21          1.103310000000        -0.310189978407
   22         12.665326113000        -0.125025970425
   23          3.347344287900         1.623838488393
   24          1.172215897100         4.385500569063
   25         12.665326113000        -0.107575599965
   26          3.347344287900         1.397192911537
   27          1.172215897100         3.773398864749
   28         12.665326113000        -0.022774885127
   29          3.347344287900         0.295800423808
   30          1.172215897100         0.798868197923
   31          0.588867454800        -1.141859251911
   32          0.588867454800        -0.982485428291
 end
  // -----------------------------------------------
  // The basis set
  // -----------------------------------------------
  BAS[ATNO] = new BFNGauss[NSH];
  // Basis function   1 L = s
  InitBFNGauss(BAS[ATNO][  0]);
  BAS[ATNO][  0].l  = 0;
  BAS[ATNO][  0].ng = 18;
  BAS[ATNO][  0].a[  0] =     12339.316554999999;     BAS[ATNO][  0].d[  0] =         0.000042660986;
  BAS[ATNO][  0].a[  1] =      1854.704327100000;     BAS[ATNO][  0].d[  1] =         0.000306601450;
  BAS[ATNO][  0].a[  2] =       418.444417720000;     BAS[ATNO][  0].d[  2] =         0.001235376901;
  BAS[ATNO][  0].a[  3] =        96.965111109000;     BAS[ATNO][  0].d[  3] =         0.003190624985;
  BAS[ATNO][  0].a[  4] =        28.537960267000;     BAS[ATNO][  0].d[  4] =        -0.067022481701;
  BAS[ATNO][  0].a[  5] =        17.862907144000;     BAS[ATNO][  0].d[  5] =         0.309774201927;
  BAS[ATNO][  0].a[  6] =         8.454175481200;     BAS[ATNO][  0].d[  6] =        -0.605943988863;
  BAS[ATNO][  0].a[  7] =         5.281398130600;     BAS[ATNO][  0].d[  7] =        -0.335755305360;
  BAS[ATNO][  0].a[  8] =         2.319461863200;     BAS[ATNO][  0].d[  8] =         0.753641258436;
  BAS[ATNO][  0].a[  9] =         1.216751207600;     BAS[ATNO][  0].d[  9] =         0.764511401983;
  BAS[ATNO][  0].a[ 10] =        25.336266601000;     BAS[ATNO][  0].d[ 10] =         0.004828147993;
  BAS[ATNO][  0].a[ 11] =        12.477043309000;     BAS[ATNO][  0].d[ 11] =        -0.031745877274;
  BAS[ATNO][  0].a[ 12] =         3.072314274100;     BAS[ATNO][  0].d[ 12] =         0.114764101478;
  BAS[ATNO][  0].a[ 13] =         0.601747747000;     BAS[ATNO][  0].d[ 13] =        -0.228248824421;
  BAS[ATNO][  0].a[ 14] =         0.283239363500;     BAS[ATNO][  0].d[ 14] =         0.164750900976;
  BAS[ATNO][  0].a[ 15] =         0.132217657300;     BAS[ATNO][  0].d[ 15] =        -0.096795774483;
  BAS[ATNO][  0].a[ 16] =         0.060986719000;     BAS[ATNO][  0].d[ 16] =         0.046020445458;
  BAS[ATNO][  0].a[ 17] =         0.029538557100;     BAS[ATNO][  0].d[ 17] =        -0.013169867966;

  // Basis function   2 L = p
  InitBFNGauss(BAS[ATNO][  1]);
  BAS[ATNO][  1].l  = 1;
  BAS[ATNO][  1].ng = 32;
  BAS[ATNO][  1].a[  0] =       162.893000000000;     BAS[ATNO][  1].d[  0] =        -0.000217939095;
  BAS[ATNO][  1].a[  1] =        30.399600000000;     BAS[ATNO][  1].d[  1] =         0.002788458038;
  BAS[ATNO][  1].a[  2] =        19.000400000000;     BAS[ATNO][  1].d[  2] =        -0.031808065224;
  BAS[ATNO][  1].a[  3] =         9.322560000000;     BAS[ATNO][  1].d[  3] =         0.148363635328;
  BAS[ATNO][  1].a[  4] =         3.016680000000;     BAS[ATNO][  1].d[  4] =        -0.200723066425;
  BAS[ATNO][  1].a[  5] =         1.862190000000;     BAS[ATNO][  1].d[  5] =        -0.235277164191;
  BAS[ATNO][  1].a[  6] =         1.103310000000;     BAS[ATNO][  1].d[  6] =        -0.189416386285;
  BAS[ATNO][  1].a[  7] =       162.893000000000;     BAS[ATNO][  1].d[  7] =         0.000293086721;
  BAS[ATNO][  1].a[  8] =        30.399600000000;     BAS[ATNO][  1].d[  8] =        -0.003749946847;
  BAS[ATNO][  1].a[  9] =        19.000400000000;     BAS[ATNO][  1].d[  9] =         0.042775810959;
  BAS[ATNO][  1].a[ 10] =         9.322560000000;     BAS[ATNO][  1].d[ 10] =        -0.199520931983;
  BAS[ATNO][  1].a[ 11] =         3.016680000000;     BAS[ATNO][  1].d[ 11] =         0.269934429654;
  BAS[ATNO][  1].a[ 12] =         1.862190000000;     BAS[ATNO][  1].d[ 12] =         0.316403133221;
  BAS[ATNO][  1].a[ 13] =         1.103310000000;     BAS[ATNO][  1].d[ 13] =         0.254729090731;
  BAS[ATNO][  1].a[ 14] =       162.893000000000;     BAS[ATNO][  1].d[ 14] =        -0.000187967273;
  BAS[ATNO][  1].a[ 15] =        30.399600000000;     BAS[ATNO][  1].d[ 15] =         0.002404978572;
  BAS[ATNO][  1].a[ 16] =        19.000400000000;     BAS[ATNO][  1].d[ 16] =        -0.027433697855;
  BAS[ATNO][  1].a[ 17] =         9.322560000000;     BAS[ATNO][  1].d[ 17] =         0.127960098032;
  BAS[ATNO][  1].a[ 18] =         3.016680000000;     BAS[ATNO][  1].d[ 18] =        -0.173118858946;
  BAS[ATNO][  1].a[ 19] =         1.862190000000;     BAS[ATNO][  1].d[ 19] =        -0.202920944395;
  BAS[ATNO][  1].a[ 20] =         1.103310000000;     BAS[ATNO][  1].d[ 20] =        -0.163367116911;
  BAS[ATNO][  1].a[ 21] =        12.665326113000;     BAS[ATNO][  1].d[ 21] =         0.001178512998;
  BAS[ATNO][  1].a[ 22] =         3.347344287900;     BAS[ATNO][  1].d[ 22] =        -0.015306537982;
  BAS[ATNO][  1].a[ 23] =         1.172215897100;     BAS[ATNO][  1].d[ 23] =        -0.041338366783;
  BAS[ATNO][  1].a[ 24] =        12.665326113000;     BAS[ATNO][  1].d[ 24] =        -0.001584876315;
  BAS[ATNO][  1].a[ 25] =         3.347344287900;     BAS[ATNO][  1].d[ 25] =         0.020584388599;
  BAS[ATNO][  1].a[ 26] =         1.172215897100;     BAS[ATNO][  1].d[ 26] =         0.055592257827;
  BAS[ATNO][  1].a[ 27] =        12.665326113000;     BAS[ATNO][  1].d[ 27] =         0.001016439361;
  BAS[ATNO][  1].a[ 28] =         3.347344287900;     BAS[ATNO][  1].d[ 28] =        -0.013201524055;
  BAS[ATNO][  1].a[ 29] =         1.172215897100;     BAS[ATNO][  1].d[ 29] =        -0.035653355719;
  BAS[ATNO][  1].a[ 30] =         0.588867454800;     BAS[ATNO][  1].d[ 30] =         0.116995989641;
  BAS[ATNO][  1].a[ 31] =         0.588867454800;     BAS[ATNO][  1].d[ 31] =        -0.157337401715;

  // Basis function   3 L = s
  InitBFNGauss(BAS[ATNO][  2]);
  BAS[ATNO][  2].l  = 0;
  BAS[ATNO][  2].ng = 18;
  BAS[ATNO][  2].a[  0] =     12339.316554999999;     BAS[ATNO][  2].d[  0] =        -0.000028076273;
  BAS[ATNO][  2].a[  1] =      1854.704327100000;     BAS[ATNO][  2].d[  1] =        -0.000201782164;
  BAS[ATNO][  2].a[  2] =       418.444417720000;     BAS[ATNO][  2].d[  2] =        -0.000813032765;
  BAS[ATNO][  2].a[  3] =        96.965111109000;     BAS[ATNO][  2].d[  3] =        -0.002099830951;
  BAS[ATNO][  2].a[  4] =        28.537960267000;     BAS[ATNO][  2].d[  4] =         0.044109189318;
  BAS[ATNO][  2].a[  5] =        17.862907144000;     BAS[ATNO][  2].d[  5] =        -0.203870232374;
  BAS[ATNO][  2].a[  6] =         8.454175481200;     BAS[ATNO][  2].d[  6] =         0.398787055367;
  BAS[ATNO][  2].a[  7] =         5.281398130600;     BAS[ATNO][  2].d[  7] =         0.220969053261;
  BAS[ATNO][  2].a[  8] =         2.319461863200;     BAS[ATNO][  2].d[  8] =        -0.495990361780;
  BAS[ATNO][  2].a[  9] =         1.216751207600;     BAS[ATNO][  2].d[  9] =        -1.436364405477;
  BAS[ATNO][  2].a[ 10] =        25.336266601000;     BAS[ATNO][  2].d[ 10] =        -0.011614426555;
  BAS[ATNO][  2].a[ 11] =        12.477043309000;     BAS[ATNO][  2].d[ 11] =         0.076366789199;
  BAS[ATNO][  2].a[ 12] =         3.072314274100;     BAS[ATNO][  2].d[ 12] =        -0.276072570603;
  BAS[ATNO][  2].a[ 13] =         0.601747747000;     BAS[ATNO][  2].d[ 13] =         1.869375686473;
  BAS[ATNO][  2].a[ 14] =         0.283239363500;     BAS[ATNO][  2].d[ 14] =         0.115921853053;
  BAS[ATNO][  2].a[ 15] =         0.132217657300;     BAS[ATNO][  2].d[ 15] =         0.210424194123;
  BAS[ATNO][  2].a[ 16] =         0.060986719000;     BAS[ATNO][  2].d[ 16] =        -0.101935322243;
  BAS[ATNO][  2].a[ 17] =         0.029538557100;     BAS[ATNO][  2].d[ 17] =         0.029456066218;

  // Basis function   4 L = p
  InitBFNGauss(BAS[ATNO][  3]);
  BAS[ATNO][  3].l  = 1;
  BAS[ATNO][  3].ng = 32;
  BAS[ATNO][  3].a[  0] =       162.893000000000;     BAS[ATNO][  3].d[  0] =         0.000151393836;
  BAS[ATNO][  3].a[  1] =        30.399600000000;     BAS[ATNO][  3].d[  1] =        -0.001937033637;
  BAS[ATNO][  3].a[  2] =        19.000400000000;     BAS[ATNO][  3].d[  2] =         0.022095829106;
  BAS[ATNO][  3].a[  3] =         9.322560000000;     BAS[ATNO][  3].d[  3] =        -0.103062462577;
  BAS[ATNO][  3].a[  4] =         3.016680000000;     BAS[ATNO][  3].d[  4] =         0.139434528387;
  BAS[ATNO][  3].a[  5] =         1.862190000000;     BAS[ATNO][  3].d[  5] =         0.163437919784;
  BAS[ATNO][  3].a[  6] =         1.103310000000;     BAS[ATNO][  3].d[  6] =         0.131580216269;
  BAS[ATNO][  3].a[  7] =       162.893000000000;     BAS[ATNO][  3].d[  7] =        -0.000168156043;
  BAS[ATNO][  3].a[  8] =        30.399600000000;     BAS[ATNO][  3].d[  8] =         0.002151500495;
  BAS[ATNO][  3].a[  9] =        19.000400000000;     BAS[ATNO][  3].d[  9] =        -0.024542262122;
  BAS[ATNO][  3].a[ 10] =         9.322560000000;     BAS[ATNO][  3].d[ 10] =         0.114473458288;
  BAS[ATNO][  3].a[ 11] =         3.016680000000;     BAS[ATNO][  3].d[ 11] =        -0.154872610941;
  BAS[ATNO][  3].a[ 12] =         1.862190000000;     BAS[ATNO][  3].d[ 12] =        -0.181533639168;
  BAS[ATNO][  3].a[ 13] =         1.103310000000;     BAS[ATNO][  3].d[ 13] =        -0.146148675493;
  BAS[ATNO][  3].a[ 14] =       162.893000000000;     BAS[ATNO][  3].d[ 14] =        -0.000036824507;
  BAS[ATNO][  3].a[ 15] =        30.399600000000;     BAS[ATNO][  3].d[ 15] =         0.000471157289;
  BAS[ATNO][  3].a[ 16] =        19.000400000000;     BAS[ATNO][  3].d[ 16] =        -0.005374512217;
  BAS[ATNO][  3].a[ 17] =         9.322560000000;     BAS[ATNO][  3].d[ 17] =         0.025068553054;
  BAS[ATNO][  3].a[ 18] =         3.016680000000;     BAS[ATNO][  3].d[ 18] =        -0.033915567172;
  BAS[ATNO][  3].a[ 19] =         1.862190000000;     BAS[ATNO][  3].d[ 19] =        -0.039754068171;
  BAS[ATNO][  3].a[ 20] =         1.103310000000;     BAS[ATNO][  3].d[ 20] =        -0.032005111754;
  BAS[ATNO][  3].a[ 21] =        12.665326113000;     BAS[ATNO][  3].d[ 21] =        -0.006515733686;
  BAS[ATNO][  3].a[ 22] =         3.347344287900;     BAS[ATNO][  3].d[ 22] =         0.084626410843;
  BAS[ATNO][  3].a[ 23] =         1.172215897100;     BAS[ATNO][  3].d[ 23] =         0.228550545861;
  BAS[ATNO][  3].a[ 24] =        12.665326113000;     BAS[ATNO][  3].d[ 24] =         0.007237150653;
  BAS[ATNO][  3].a[ 25] =         3.347344287900;     BAS[ATNO][  3].d[ 25] =        -0.093996181244;
  BAS[ATNO][  3].a[ 26] =         1.172215897100;     BAS[ATNO][  3].d[ 26] =        -0.253855484570;
  BAS[ATNO][  3].a[ 27] =        12.665326113000;     BAS[ATNO][  3].d[ 27] =         0.001584864280;
  BAS[ATNO][  3].a[ 28] =         3.347344287900;     BAS[ATNO][  3].d[ 28] =        -0.020584232290;
  BAS[ATNO][  3].a[ 29] =         1.172215897100;     BAS[ATNO][  3].d[ 29] =        -0.055591835681;
  BAS[ATNO][  3].a[ 30] =         0.588867454800;     BAS[ATNO][  3].d[ 30] =        -0.904379721467;
  BAS[ATNO][  3].a[ 31] =         0.588867454800;     BAS[ATNO][  3].d[ 31] =         1.004511940952;

  // Basis function   5 L = s
  InitBFNGauss(BAS[ATNO][  4]);
  BAS[ATNO][  4].l  = 0;
  BAS[ATNO][  4].ng = 18;
  BAS[ATNO][  4].a[  0] =     12339.316554999999;     BAS[ATNO][  4].d[  0] =         0.000005817685;
  BAS[ATNO][  4].a[  1] =      1854.704327100000;     BAS[ATNO][  4].d[  1] =         0.000041811286;
  BAS[ATNO][  4].a[  2] =       418.444417720000;     BAS[ATNO][  4].d[  2] =         0.000168468536;
  BAS[ATNO][  4].a[  3] =        96.965111109000;     BAS[ATNO][  4].d[  3] =         0.000435106015;
  BAS[ATNO][  4].a[  4] =        28.537960267000;     BAS[ATNO][  4].d[  4] =        -0.009139866028;
  BAS[ATNO][  4].a[  5] =        17.862907144000;     BAS[ATNO][  4].d[  5] =         0.042243955055;
  BAS[ATNO][  4].a[  6] =         8.454175481200;     BAS[ATNO][  4].d[  6] =        -0.082632673968;
  BAS[ATNO][  4].a[  7] =         5.281398130600;     BAS[ATNO][  4].d[  7] =        -0.045787002084;
  BAS[ATNO][  4].a[  8] =         2.319461863200;     BAS[ATNO][  4].d[  8] =         0.102774173094;
  BAS[ATNO][  4].a[  9] =         1.216751207600;     BAS[ATNO][  4].d[  9] =         0.483680587072;
  BAS[ATNO][  4].a[ 10] =        25.336266601000;     BAS[ATNO][  4].d[ 10] =         0.002662345177;
  BAS[ATNO][  4].a[ 11] =        12.477043309000;     BAS[ATNO][  4].d[ 11] =        -0.017505363003;
  BAS[ATNO][  4].a[ 12] =         3.072314274100;     BAS[ATNO][  4].d[ 12] =         0.063283406494;
  BAS[ATNO][  4].a[ 13] =         0.601747747000;     BAS[ATNO][  4].d[ 13] =        -0.982752800306;
  BAS[ATNO][  4].a[ 14] =         0.283239363500;     BAS[ATNO][  4].d[ 14] =         0.311460992460;
  BAS[ATNO][  4].a[ 15] =         0.132217657300;     BAS[ATNO][  4].d[ 15] =        -0.502414989363;
  BAS[ATNO][  4].a[ 16] =         0.060986719000;     BAS[ATNO][  4].d[ 16] =         2.893438006596;
  BAS[ATNO][  4].a[ 17] =         0.029538557100;     BAS[ATNO][  4].d[ 17] =        -2.747035108804;

  // Basis function   6 L = s
  InitBFNGauss(BAS[ATNO][  5]);
  BAS[ATNO][  5].l  = 0;
  BAS[ATNO][  5].ng = 18;
  BAS[ATNO][  5].a[  0] =     12339.316554999999;     BAS[ATNO][  5].d[  0] =         0.000008908902;
  BAS[ATNO][  5].a[  1] =      1854.704327100000;     BAS[ATNO][  5].d[  1] =         0.000064027639;
  BAS[ATNO][  5].a[  2] =       418.444417720000;     BAS[ATNO][  5].d[  2] =         0.000257983995;
  BAS[ATNO][  5].a[  3] =        96.965111109000;     BAS[ATNO][  5].d[  3] =         0.000666298826;
  BAS[ATNO][  5].a[  4] =        28.537960267000;     BAS[ATNO][  5].d[  4] =        -0.013996317668;
  BAS[ATNO][  5].a[  5] =        17.862907144000;     BAS[ATNO][  5].d[  5] =         0.064690205815;
  BAS[ATNO][  5].a[  6] =         8.454175481200;     BAS[ATNO][  5].d[  6] =        -0.126539399047;
  BAS[ATNO][  5].a[  7] =         5.281398130600;     BAS[ATNO][  5].d[  7] =        -0.070115844612;
  BAS[ATNO][  5].a[  8] =         2.319461863200;     BAS[ATNO][  5].d[  8] =         0.157383048090;
  BAS[ATNO][  5].a[  9] =         1.216751207600;     BAS[ATNO][  5].d[  9] =         0.433955782626;
  BAS[ATNO][  5].a[ 10] =        25.336266601000;     BAS[ATNO][  5].d[ 10] =         0.007071803136;
  BAS[ATNO][  5].a[ 11] =        12.477043309000;     BAS[ATNO][  5].d[ 11] =        -0.046498283558;
  BAS[ATNO][  5].a[ 12] =         3.072314274100;     BAS[ATNO][  5].d[ 12] =         0.168095330512;
  BAS[ATNO][  5].a[ 13] =         0.601747747000;     BAS[ATNO][  5].d[ 13] =        -0.184763894679;
  BAS[ATNO][  5].a[ 14] =         0.283239363500;     BAS[ATNO][  5].d[ 14] =        -3.817876473178;
  BAS[ATNO][  5].a[ 15] =         0.132217657300;     BAS[ATNO][  5].d[ 15] =         8.699478913106;
  BAS[ATNO][  5].a[ 16] =         0.060986719000;     BAS[ATNO][  5].d[ 16] =        -8.411038247057;
  BAS[ATNO][  5].a[ 17] =         0.029538557100;     BAS[ATNO][  5].d[ 17] =         3.278430531999;

  // Basis function   7 L = s
  InitBFNGauss(BAS[ATNO][  6]);
  BAS[ATNO][  6].l  = 0;
  BAS[ATNO][  6].ng = 18;
  BAS[ATNO][  6].a[  0] =     12339.316554999999;     BAS[ATNO][  6].d[  0] =         0.000027241290;
  BAS[ATNO][  6].a[  1] =      1854.704327100000;     BAS[ATNO][  6].d[  1] =         0.000195781202;
  BAS[ATNO][  6].a[  2] =       418.444417720000;     BAS[ATNO][  6].d[  2] =         0.000788853330;
  BAS[ATNO][  6].a[  3] =        96.965111109000;     BAS[ATNO][  6].d[  3] =         0.002037382391;
  BAS[ATNO][  6].a[  4] =        28.537960267000;     BAS[ATNO][  6].d[  4] =        -0.042797390683;
  BAS[ATNO][  6].a[  5] =        17.862907144000;     BAS[ATNO][  6].d[  5] =         0.197807171669;
  BAS[ATNO][  6].a[  6] =         8.454175481200;     BAS[ATNO][  6].d[  6] =        -0.386927206596;
  BAS[ATNO][  6].a[  7] =         5.281398130600;     BAS[ATNO][  6].d[  7] =        -0.214397476979;
  BAS[ATNO][  6].a[  8] =         2.319461863200;     BAS[ATNO][  6].d[  8] =         0.481239705751;
  BAS[ATNO][  6].a[  9] =         1.216751207600;     BAS[ATNO][  6].d[  9] =         3.718624968813;
  BAS[ATNO][  6].a[ 10] =        25.336266601000;     BAS[ATNO][  6].d[ 10] =         0.006465102917;
  BAS[ATNO][  6].a[ 11] =        12.477043309000;     BAS[ATNO][  6].d[ 11] =        -0.042509128563;
  BAS[ATNO][  6].a[ 12] =         3.072314274100;     BAS[ATNO][  6].d[ 12] =         0.153674188999;
  BAS[ATNO][  6].a[ 13] =         0.601747747000;     BAS[ATNO][  6].d[ 13] =       -11.030306039088;
  BAS[ATNO][  6].a[ 14] =         0.283239363500;     BAS[ATNO][  6].d[ 14] =        14.441088838706;
  BAS[ATNO][  6].a[ 15] =         0.132217657300;     BAS[ATNO][  6].d[ 15] =       -11.579469563503;
  BAS[ATNO][  6].a[ 16] =         0.060986719000;     BAS[ATNO][  6].d[ 16] =         6.035438902036;
  BAS[ATNO][  6].a[ 17] =         0.029538557100;     BAS[ATNO][  6].d[ 17] =        -1.708904854237;

  // Basis function   8 L = s
  InitBFNGauss(BAS[ATNO][  7]);
  BAS[ATNO][  7].l  = 0;
  BAS[ATNO][  7].ng = 18;
  BAS[ATNO][  7].a[  0] =     12339.316554999999;     BAS[ATNO][  7].d[  0] =        -0.000011011461;
  BAS[ATNO][  7].a[  1] =      1854.704327100000;     BAS[ATNO][  7].d[  1] =        -0.000079138582;
  BAS[ATNO][  7].a[  2] =       418.444417720000;     BAS[ATNO][  7].d[  2] =        -0.000318869909;
  BAS[ATNO][  7].a[  3] =        96.965111109000;     BAS[ATNO][  7].d[  3] =        -0.000823549719;
  BAS[ATNO][  7].a[  4] =        28.537960267000;     BAS[ATNO][  7].d[  4] =         0.017299540446;
  BAS[ATNO][  7].a[  5] =        17.862907144000;     BAS[ATNO][  7].d[  5] =        -0.079957518720;
  BAS[ATNO][  7].a[  6] =         8.454175481200;     BAS[ATNO][  7].d[  6] =         0.156403527252;
  BAS[ATNO][  7].a[  7] =         5.281398130600;     BAS[ATNO][  7].d[  7] =         0.086663643863;
  BAS[ATNO][  7].a[  8] =         2.319461863200;     BAS[ATNO][  7].d[  8] =        -0.194526479787;
  BAS[ATNO][  7].a[  9] =         1.216751207600;     BAS[ATNO][  7].d[  9] =       -10.120352836298;
  BAS[ATNO][  7].a[ 10] =        25.336266601000;     BAS[ATNO][  7].d[ 10] =         0.213955395860;
  BAS[ATNO][  7].a[ 11] =        12.477043309000;     BAS[ATNO][  7].d[ 11] =        -1.406792366058;
  BAS[ATNO][  7].a[ 12] =         3.072314274100;     BAS[ATNO][  7].d[ 12] =         5.085676494696;
  BAS[ATNO][  7].a[ 13] =         0.601747747000;     BAS[ATNO][  7].d[ 13] =        11.774433491883;
  BAS[ATNO][  7].a[ 14] =         0.283239363500;     BAS[ATNO][  7].d[ 14] =        -8.777638566193;
  BAS[ATNO][  7].a[ 15] =         0.132217657300;     BAS[ATNO][  7].d[ 15] =         5.244725787382;
  BAS[ATNO][  7].a[ 16] =         0.060986719000;     BAS[ATNO][  7].d[ 16] =        -2.464968811727;
  BAS[ATNO][  7].a[ 17] =         0.029538557100;     BAS[ATNO][  7].d[ 17] =         0.694251031095;

  // Basis function   9 L = s
  InitBFNGauss(BAS[ATNO][  8]);
  BAS[ATNO][  8].l  = 0;
  BAS[ATNO][  8].ng = 18;
  BAS[ATNO][  8].a[  0] =     12339.316554999999;     BAS[ATNO][  8].d[  0] =        -0.000136527197;
  BAS[ATNO][  8].a[  1] =      1854.704327100000;     BAS[ATNO][  8].d[  1] =        -0.000981211188;
  BAS[ATNO][  8].a[  2] =       418.444417720000;     BAS[ATNO][  8].d[  2] =        -0.003953554814;
  BAS[ATNO][  8].a[  3] =        96.965111109000;     BAS[ATNO][  8].d[  3] =        -0.010210900620;
  BAS[ATNO][  8].a[  4] =        28.537960267000;     BAS[ATNO][  8].d[  4] =         0.214490860952;
  BAS[ATNO][  8].a[  5] =        17.862907144000;     BAS[ATNO][  8].d[  5] =        -0.991364891090;
  BAS[ATNO][  8].a[  6] =         8.454175481200;     BAS[ATNO][  8].d[  6] =         1.939191813877;
  BAS[ATNO][  8].a[  7] =         5.281398130600;     BAS[ATNO][  8].d[  7] =         1.074511756179;
  BAS[ATNO][  8].a[  8] =         2.319461863200;     BAS[ATNO][  8].d[  8] =        -2.411864769384;
  BAS[ATNO][  8].a[  9] =         1.216751207600;     BAS[ATNO][  8].d[  9] =         6.546043459746;
  BAS[ATNO][  8].a[ 10] =        25.336266601000;     BAS[ATNO][  8].d[ 10] =        -0.119847396190;
  BAS[ATNO][  8].a[ 11] =        12.477043309000;     BAS[ATNO][  8].d[ 11] =         0.788016592777;
  BAS[ATNO][  8].a[ 12] =         3.072314274100;     BAS[ATNO][  8].d[ 12] =        -2.848748372544;
  BAS[ATNO][  8].a[ 13] =         0.601747747000;     BAS[ATNO][  8].d[ 13] =        -5.851953011457;
  BAS[ATNO][  8].a[ 14] =         0.283239363500;     BAS[ATNO][  8].d[ 14] =         3.949991839962;
  BAS[ATNO][  8].a[ 15] =         0.132217657300;     BAS[ATNO][  8].d[ 15] =        -2.297580026582;
  BAS[ATNO][  8].a[ 16] =         0.060986719000;     BAS[ATNO][  8].d[ 16] =         1.078446955476;
  BAS[ATNO][  8].a[ 17] =         0.029538557100;     BAS[ATNO][  8].d[ 17] =        -0.305046507973;

  // Basis function  10 L = p
  InitBFNGauss(BAS[ATNO][  9]);
  BAS[ATNO][  9].l  = 1;
  BAS[ATNO][  9].ng = 32;
  BAS[ATNO][  9].a[  0] =       162.893000000000;     BAS[ATNO][  9].d[  0] =        -0.000172921195;
  BAS[ATNO][  9].a[  1] =        30.399600000000;     BAS[ATNO][  9].d[  1] =         0.002212469020;
  BAS[ATNO][  9].a[  2] =        19.000400000000;     BAS[ATNO][  9].d[  2] =        -0.025237732807;
  BAS[ATNO][  9].a[  3] =         9.322560000000;     BAS[ATNO][  9].d[  3] =         0.117717370116;
  BAS[ATNO][  9].a[  4] =         3.016680000000;     BAS[ATNO][  9].d[  4] =        -0.159261340887;
  BAS[ATNO][  9].a[  5] =         1.862190000000;     BAS[ATNO][  9].d[  5] =        -0.186677880707;
  BAS[ATNO][  9].a[  6] =         1.103310000000;     BAS[ATNO][  9].d[  6] =        -0.150290189379;
  BAS[ATNO][  9].a[  7] =       162.893000000000;     BAS[ATNO][  9].d[  7] =        -0.000148785898;
  BAS[ATNO][  9].a[  8] =        30.399600000000;     BAS[ATNO][  9].d[  8] =         0.001903665950;
  BAS[ATNO][  9].a[  9] =        19.000400000000;     BAS[ATNO][  9].d[  9] =        -0.021715202411;
  BAS[ATNO][  9].a[ 10] =         9.322560000000;     BAS[ATNO][  9].d[ 10] =         0.101287090208;
  BAS[ATNO][  9].a[ 11] =         3.016680000000;     BAS[ATNO][  9].d[ 11] =        -0.137032604322;
  BAS[ATNO][  9].a[ 12] =         1.862190000000;     BAS[ATNO][  9].d[ 12] =        -0.160622509017;
  BAS[ATNO][  9].a[ 13] =         1.103310000000;     BAS[ATNO][  9].d[ 13] =        -0.129313591987;
  BAS[ATNO][  9].a[ 14] =       162.893000000000;     BAS[ATNO][  9].d[ 14] =        -0.000031499538;
  BAS[ATNO][  9].a[ 15] =        30.399600000000;     BAS[ATNO][  9].d[ 15] =         0.000403026088;
  BAS[ATNO][  9].a[ 16] =        19.000400000000;     BAS[ATNO][  9].d[ 16] =        -0.004597336559;
  BAS[ATNO][  9].a[ 17] =         9.322560000000;     BAS[ATNO][  9].d[ 17] =         0.021443541437;
  BAS[ATNO][  9].a[ 18] =         3.016680000000;     BAS[ATNO][  9].d[ 18] =        -0.029011242429;
  BAS[ATNO][  9].a[ 19] =         1.862190000000;     BAS[ATNO][  9].d[ 19] =        -0.034005473163;
  BAS[ATNO][  9].a[ 20] =         1.103310000000;     BAS[ATNO][  9].d[ 20] =        -0.027377046398;
  BAS[ATNO][  9].a[ 21] =        12.665326113000;     BAS[ATNO][  9].d[ 21] =         0.007474345399;
  BAS[ATNO][  9].a[ 22] =         3.347344287900;     BAS[ATNO][  9].d[ 22] =        -0.097076868860;
  BAS[ATNO][  9].a[ 23] =         1.172215897100;     BAS[ATNO][  9].d[ 23] =        -0.262175497547;
  BAS[ATNO][  9].a[ 24] =        12.665326113000;     BAS[ATNO][  9].d[ 24] =         0.006431121388;
  BAS[ATNO][  9].a[ 25] =         3.347344287900;     BAS[ATNO][  9].d[ 25] =        -0.083527465519;
  BAS[ATNO][  9].a[ 26] =         1.172215897100;     BAS[ATNO][  9].d[ 26] =        -0.225582624247;
  BAS[ATNO][  9].a[ 27] =        12.665326113000;     BAS[ATNO][  9].d[ 27] =         0.001361535983;
  BAS[ATNO][  9].a[ 28] =         3.347344287900;     BAS[ATNO][  9].d[ 28] =        -0.017683642252;
  BAS[ATNO][  9].a[ 29] =         1.172215897100;     BAS[ATNO][  9].d[ 29] =        -0.047758212232;
  BAS[ATNO][  9].a[ 30] =         0.588867454800;     BAS[ATNO][  9].d[ 30] =         1.041156997906;
  BAS[ATNO][  9].a[ 31] =         0.588867454800;     BAS[ATNO][  9].d[ 31] =         0.895838589184;

  // Basis function  11 L = p
  InitBFNGauss(BAS[ATNO][ 10]);
  BAS[ATNO][ 10].l  = 1;
  BAS[ATNO][ 10].ng = 32;
  BAS[ATNO][ 10].a[  0] =       162.893000000000;     BAS[ATNO][ 10].d[  0] =        -0.000024535614;
  BAS[ATNO][ 10].a[  1] =        30.399600000000;     BAS[ATNO][ 10].d[  1] =         0.000313924995;
  BAS[ATNO][ 10].a[  2] =        19.000400000000;     BAS[ATNO][ 10].d[  2] =        -0.003580956427;
  BAS[ATNO][ 10].a[  3] =         9.322560000000;     BAS[ATNO][ 10].d[  3] =         0.016702798794;
  BAS[ATNO][ 10].a[  4] =         3.016680000000;     BAS[ATNO][ 10].d[  4] =        -0.022597430862;
  BAS[ATNO][ 10].a[  5] =         1.862190000000;     BAS[ATNO][ 10].d[  5] =        -0.026487536016;
  BAS[ATNO][ 10].a[  6] =         1.103310000000;     BAS[ATNO][ 10].d[  6] =        -0.021324523232;
  BAS[ATNO][ 10].a[  7] =       162.893000000000;     BAS[ATNO][ 10].d[  7] =         0.000008810847;
  BAS[ATNO][ 10].a[  8] =        30.399600000000;     BAS[ATNO][ 10].d[  8] =        -0.000112731847;
  BAS[ATNO][ 10].a[  9] =        19.000400000000;     BAS[ATNO][ 10].d[  9] =         0.001285937207;
  BAS[ATNO][ 10].a[ 10] =         9.322560000000;     BAS[ATNO][ 10].d[ 10] =        -0.005998048528;
  BAS[ATNO][ 10].a[ 11] =         3.016680000000;     BAS[ATNO][ 10].d[ 11] =         0.008114836836;
  BAS[ATNO][ 10].a[ 12] =         1.862190000000;     BAS[ATNO][ 10].d[ 12] =         0.009511790711;
  BAS[ATNO][ 10].a[ 13] =         1.103310000000;     BAS[ATNO][ 10].d[ 13] =         0.007657730106;
  BAS[ATNO][ 10].a[ 14] =       162.893000000000;     BAS[ATNO][ 10].d[ 14] =         0.000093074313;
  BAS[ATNO][ 10].a[ 15] =        30.399600000000;     BAS[ATNO][ 10].d[ 15] =        -0.001190854795;
  BAS[ATNO][ 10].a[ 16] =        19.000400000000;     BAS[ATNO][ 10].d[ 16] =         0.013584133762;
  BAS[ATNO][ 10].a[ 17] =         9.322560000000;     BAS[ATNO][ 10].d[ 17] =        -0.063361020344;
  BAS[ATNO][ 10].a[ 18] =         3.016680000000;     BAS[ATNO][ 10].d[ 18] =         0.085721937638;
  BAS[ATNO][ 10].a[ 19] =         1.862190000000;     BAS[ATNO][ 10].d[ 19] =         0.100478807721;
  BAS[ATNO][ 10].a[ 20] =         1.103310000000;     BAS[ATNO][ 10].d[ 20] =         0.080893242326;
  BAS[ATNO][ 10].a[ 21] =        12.665326113000;     BAS[ATNO][ 10].d[ 21] =         0.001370905393;
  BAS[ATNO][ 10].a[ 22] =         3.347344287900;     BAS[ATNO][ 10].d[ 22] =        -0.017805332229;
  BAS[ATNO][ 10].a[ 23] =         1.172215897100;     BAS[ATNO][ 10].d[ 23] =        -0.048086860350;
  BAS[ATNO][ 10].a[ 24] =        12.665326113000;     BAS[ATNO][ 10].d[ 24] =        -0.000492298158;
  BAS[ATNO][ 10].a[ 25] =         3.347344287900;     BAS[ATNO][ 10].d[ 25] =         0.006393973135;
  BAS[ATNO][ 10].a[ 26] =         1.172215897100;     BAS[ATNO][ 10].d[ 26] =         0.017268203102;
  BAS[ATNO][ 10].a[ 27] =        12.665326113000;     BAS[ATNO][ 10].d[ 27] =        -0.005200443683;
  BAS[ATNO][ 10].a[ 28] =         3.347344287900;     BAS[ATNO][ 10].d[ 28] =         0.067543411828;
  BAS[ATNO][ 10].a[ 29] =         1.172215897100;     BAS[ATNO][ 10].d[ 29] =         0.182414490804;
  BAS[ATNO][ 10].a[ 30] =         0.588867454800;     BAS[ATNO][ 10].d[ 30] =         0.230008121050;
  BAS[ATNO][ 10].a[ 31] =         0.588867454800;     BAS[ATNO][ 10].d[ 31] =        -0.082596928152;

  // Basis function  12 L = p
  InitBFNGauss(BAS[ATNO][ 11]);
  BAS[ATNO][ 11].l  = 1;
  BAS[ATNO][ 11].ng = 32;
  BAS[ATNO][ 11].a[  0] =       162.893000000000;     BAS[ATNO][ 11].d[  0] =        -0.000047388806;
  BAS[ATNO][ 11].a[  1] =        30.399600000000;     BAS[ATNO][ 11].d[  1] =         0.000606323973;
  BAS[ATNO][ 11].a[  2] =        19.000400000000;     BAS[ATNO][ 11].d[  2] =        -0.006916364607;
  BAS[ATNO][ 11].a[  3] =         9.322560000000;     BAS[ATNO][ 11].d[  3] =         0.032260277046;
  BAS[ATNO][ 11].a[  4] =         3.016680000000;     BAS[ATNO][ 11].d[  4] =        -0.043645342863;
  BAS[ATNO][ 11].a[  5] =         1.862190000000;     BAS[ATNO][ 11].d[  5] =        -0.051158806419;
  BAS[ATNO][ 11].a[  6] =         1.103310000000;     BAS[ATNO][ 11].d[  6] =        -0.041186811614;
  BAS[ATNO][ 11].a[  7] =       162.893000000000;     BAS[ATNO][ 11].d[  7] =        -0.000040774563;
  BAS[ATNO][ 11].a[  8] =        30.399600000000;     BAS[ATNO][ 11].d[  8] =         0.000521696933;
  BAS[ATNO][ 11].a[  9] =        19.000400000000;     BAS[ATNO][ 11].d[  9] =        -0.005951020187;
  BAS[ATNO][ 11].a[ 10] =         9.322560000000;     BAS[ATNO][ 11].d[ 10] =         0.027757582318;
  BAS[ATNO][ 11].a[ 11] =         3.016680000000;     BAS[ATNO][ 11].d[ 11] =        -0.037553589376;
  BAS[ATNO][ 11].a[ 12] =         1.862190000000;     BAS[ATNO][ 11].d[ 12] =        -0.044018369044;
  BAS[ATNO][ 11].a[ 13] =         1.103310000000;     BAS[ATNO][ 11].d[ 13] =        -0.035438205077;
  BAS[ATNO][ 11].a[ 14] =       162.893000000000;     BAS[ATNO][ 11].d[ 14] =        -0.000008632403;
  BAS[ATNO][ 11].a[ 15] =        30.399600000000;     BAS[ATNO][ 11].d[ 15] =         0.000110448723;
  BAS[ATNO][ 11].a[ 16] =        19.000400000000;     BAS[ATNO][ 11].d[ 16] =        -0.001259893514;
  BAS[ATNO][ 11].a[ 17] =         9.322560000000;     BAS[ATNO][ 11].d[ 17] =         0.005876571885;
  BAS[ATNO][ 11].a[ 18] =         3.016680000000;     BAS[ATNO][ 11].d[ 18] =        -0.007950489527;
  BAS[ATNO][ 11].a[ 19] =         1.862190000000;     BAS[ATNO][ 11].d[ 19] =        -0.009319151322;
  BAS[ATNO][ 11].a[ 20] =         1.103310000000;     BAS[ATNO][ 11].d[ 20] =        -0.007502640440;
  BAS[ATNO][ 11].a[ 21] =        12.665326113000;     BAS[ATNO][ 11].d[ 21] =         0.002526090021;
  BAS[ATNO][ 11].a[ 22] =         3.347344287900;     BAS[ATNO][ 11].d[ 22] =        -0.032808881127;
  BAS[ATNO][ 11].a[ 23] =         1.172215897100;     BAS[ATNO][ 11].d[ 23] =        -0.088606944522;
  BAS[ATNO][ 11].a[ 24] =        12.665326113000;     BAS[ATNO][ 11].d[ 24] =         0.002173513625;
  BAS[ATNO][ 11].a[ 25] =         3.347344287900;     BAS[ATNO][ 11].d[ 25] =        -0.028229615554;
  BAS[ATNO][ 11].a[ 26] =         1.172215897100;     BAS[ATNO][ 11].d[ 26] =        -0.076239722090;
  BAS[ATNO][ 11].a[ 27] =        12.665326113000;     BAS[ATNO][ 11].d[ 27] =         0.000460155676;
  BAS[ATNO][ 11].a[ 28] =         3.347344287900;     BAS[ATNO][ 11].d[ 28] =        -0.005976506282;
  BAS[ATNO][ 11].a[ 29] =         1.172215897100;     BAS[ATNO][ 11].d[ 29] =        -0.016140750380;
  BAS[ATNO][ 11].a[ 30] =         0.588867454800;     BAS[ATNO][ 11].d[ 30] =         0.368126002010;
  BAS[ATNO][ 11].a[ 31] =         0.588867454800;     BAS[ATNO][ 11].d[ 31] =         0.316745196879;

  // Basis function  13 L = p
  InitBFNGauss(BAS[ATNO][ 12]);
  BAS[ATNO][ 12].l  = 1;
  BAS[ATNO][ 12].ng = 32;
  BAS[ATNO][ 12].a[  0] =       162.893000000000;     BAS[ATNO][ 12].d[  0] =        -0.000142743767;
  BAS[ATNO][ 12].a[  1] =        30.399600000000;     BAS[ATNO][ 12].d[  1] =         0.001826358899;
  BAS[ATNO][ 12].a[  2] =        19.000400000000;     BAS[ATNO][ 12].d[  2] =        -0.020833357433;
  BAS[ATNO][ 12].a[  3] =         9.322560000000;     BAS[ATNO][ 12].d[  3] =         0.097173865280;
  BAS[ATNO][ 12].a[  4] =         3.016680000000;     BAS[ATNO][ 12].d[  4] =        -0.131467769526;
  BAS[ATNO][ 12].a[  5] =         1.862190000000;     BAS[ATNO][ 12].d[  5] =        -0.154099698394;
  BAS[ATNO][ 12].a[  6] =         1.103310000000;     BAS[ATNO][ 12].d[  6] =        -0.124062222943;
  BAS[ATNO][ 12].a[  7] =       162.893000000000;     BAS[ATNO][ 12].d[  7] =        -0.000122820454;
  BAS[ATNO][ 12].a[  8] =        30.399600000000;     BAS[ATNO][ 12].d[  8] =         0.001571446749;
  BAS[ATNO][ 12].a[  9] =        19.000400000000;     BAS[ATNO][ 12].d[  9] =        -0.017925563165;
  BAS[ATNO][ 12].a[ 10] =         9.322560000000;     BAS[ATNO][ 12].d[ 10] =         0.083610923762;
  BAS[ATNO][ 12].a[ 11] =         3.016680000000;     BAS[ATNO][ 12].d[ 11] =        -0.113118291872;
  BAS[ATNO][ 12].a[ 12] =         1.862190000000;     BAS[ATNO][ 12].d[ 12] =        -0.132591392727;
  BAS[ATNO][ 12].a[ 13] =         1.103310000000;     BAS[ATNO][ 12].d[ 13] =        -0.106746366777;
  BAS[ATNO][ 12].a[ 14] =       162.893000000000;     BAS[ATNO][ 12].d[ 14] =        -0.000026002381;
  BAS[ATNO][ 12].a[ 15] =        30.399600000000;     BAS[ATNO][ 12].d[ 15] =         0.000332691791;
  BAS[ATNO][ 12].a[ 16] =        19.000400000000;     BAS[ATNO][ 12].d[ 16] =        -0.003795030104;
  BAS[ATNO][ 12].a[ 17] =         9.322560000000;     BAS[ATNO][ 12].d[ 17] =         0.017701311239;
  BAS[ATNO][ 12].a[ 18] =         3.016680000000;     BAS[ATNO][ 12].d[ 18] =        -0.023948331164;
  BAS[ATNO][ 12].a[ 19] =         1.862190000000;     BAS[ATNO][ 12].d[ 19] =        -0.028070991261;
  BAS[ATNO][ 12].a[ 20] =         1.103310000000;     BAS[ATNO][ 12].d[ 20] =        -0.022599327658;
  BAS[ATNO][ 12].a[ 21] =        12.665326113000;     BAS[ATNO][ 12].d[ 21] =         0.010592823631;
  BAS[ATNO][ 12].a[ 22] =         3.347344287900;     BAS[ATNO][ 12].d[ 22] =        -0.137579693674;
  BAS[ATNO][ 12].a[ 23] =         1.172215897100;     BAS[ATNO][ 12].d[ 23] =        -0.371561475609;
  BAS[ATNO][ 12].a[ 24] =        12.665326113000;     BAS[ATNO][ 12].d[ 24] =         0.009114341253;
  BAS[ATNO][ 12].a[ 25] =         3.347344287900;     BAS[ATNO][ 12].d[ 25] =        -0.118377150542;
  BAS[ATNO][ 12].a[ 26] =         1.172215897100;     BAS[ATNO][ 12].d[ 26] =        -0.319701167805;
  BAS[ATNO][ 12].a[ 27] =        12.665326113000;     BAS[ATNO][ 12].d[ 27] =         0.001929601827;
  BAS[ATNO][ 12].a[ 28] =         3.347344287900;     BAS[ATNO][ 12].d[ 28] =        -0.025061686811;
  BAS[ATNO][ 12].a[ 29] =         1.172215897100;     BAS[ATNO][ 12].d[ 29] =        -0.067684097006;
  BAS[ATNO][ 12].a[ 30] =         0.588867454800;     BAS[ATNO][ 12].d[ 30] =         2.483657386104;
  BAS[ATNO][ 12].a[ 31] =         0.588867454800;     BAS[ATNO][ 12].d[ 31] =         2.137003480953;

  // Basis function  14 L = p
  InitBFNGauss(BAS[ATNO][ 13]);
  BAS[ATNO][ 13].l  = 1;
  BAS[ATNO][ 13].ng = 32;
  BAS[ATNO][ 13].a[  0] =       162.893000000000;     BAS[ATNO][ 13].d[  0] =        -0.001959247936;
  BAS[ATNO][ 13].a[  1] =        30.399600000000;     BAS[ATNO][ 13].d[  1] =         0.025067923929;
  BAS[ATNO][ 13].a[  2] =        19.000400000000;     BAS[ATNO][ 13].d[  2] =        -0.285950926468;
  BAS[ATNO][ 13].a[  3] =         9.322560000000;     BAS[ATNO][ 13].d[  3] =         1.333772383759;
  BAS[ATNO][ 13].a[  4] =         3.016680000000;     BAS[ATNO][ 13].d[  4] =        -1.804477776438;
  BAS[ATNO][ 13].a[  5] =         1.862190000000;     BAS[ATNO][ 13].d[  5] =        -2.115115226409;
  BAS[ATNO][ 13].a[  6] =         1.103310000000;     BAS[ATNO][ 13].d[  6] =        -1.702831994513;
  BAS[ATNO][ 13].a[  7] =       162.893000000000;     BAS[ATNO][ 13].d[  7] =        -0.001685787932;
  BAS[ATNO][ 13].a[  8] =        30.399600000000;     BAS[ATNO][ 13].d[  8] =         0.021569094384;
  BAS[ATNO][ 13].a[  9] =        19.000400000000;     BAS[ATNO][ 13].d[  9] =        -0.246039621775;
  BAS[ATNO][ 13].a[ 10] =         9.322560000000;     BAS[ATNO][ 13].d[ 10] =         1.147612483331;
  BAS[ATNO][ 13].a[ 11] =         3.016680000000;     BAS[ATNO][ 13].d[ 11] =        -1.552619657859;
  BAS[ATNO][ 13].a[ 12] =         1.862190000000;     BAS[ATNO][ 13].d[ 12] =        -1.819900207161;
  BAS[ATNO][ 13].a[ 13] =         1.103310000000;     BAS[ATNO][ 13].d[ 13] =        -1.465160980774;
  BAS[ATNO][ 13].a[ 14] =       162.893000000000;     BAS[ATNO][ 13].d[ 14] =        -0.000356899023;
  BAS[ATNO][ 13].a[ 15] =        30.399600000000;     BAS[ATNO][ 13].d[ 15] =         0.004566403971;
  BAS[ATNO][ 13].a[ 16] =        19.000400000000;     BAS[ATNO][ 13].d[ 16] =        -0.052089173795;
  BAS[ATNO][ 13].a[ 17] =         9.322560000000;     BAS[ATNO][ 13].d[ 17] =         0.242961624078;
  BAS[ATNO][ 13].a[ 18] =         3.016680000000;     BAS[ATNO][ 13].d[ 18] =        -0.328705899533;
  BAS[ATNO][ 13].a[ 19] =         1.862190000000;     BAS[ATNO][ 13].d[ 19] =        -0.385292000927;
  BAS[ATNO][ 13].a[ 20] =         1.103310000000;     BAS[ATNO][ 13].d[ 20] =        -0.310189978407;
  BAS[ATNO][ 13].a[ 21] =        12.665326113000;     BAS[ATNO][ 13].d[ 21] =        -0.125025970425;
  BAS[ATNO][ 13].a[ 22] =         3.347344287900;     BAS[ATNO][ 13].d[ 22] =         1.623838488393;
  BAS[ATNO][ 13].a[ 23] =         1.172215897100;     BAS[ATNO][ 13].d[ 23] =         4.385500569063;
  BAS[ATNO][ 13].a[ 24] =        12.665326113000;     BAS[ATNO][ 13].d[ 24] =        -0.107575599965;
  BAS[ATNO][ 13].a[ 25] =         3.347344287900;     BAS[ATNO][ 13].d[ 25] =         1.397192911537;
  BAS[ATNO][ 13].a[ 26] =         1.172215897100;     BAS[ATNO][ 13].d[ 26] =         3.773398864749;
  BAS[ATNO][ 13].a[ 27] =        12.665326113000;     BAS[ATNO][ 13].d[ 27] =        -0.022774885127;
  BAS[ATNO][ 13].a[ 28] =         3.347344287900;     BAS[ATNO][ 13].d[ 28] =         0.295800423808;
  BAS[ATNO][ 13].a[ 29] =         1.172215897100;     BAS[ATNO][ 13].d[ 29] =         0.798868197923;
  BAS[ATNO][ 13].a[ 30] =         0.588867454800;     BAS[ATNO][ 13].d[ 30] =        -1.141859251911;
  BAS[ATNO][ 13].a[ 31] =         0.588867454800;     BAS[ATNO][ 13].d[ 31] =        -0.982485428291;

-------------------------------------------
RADIAL EXPECTATION VALUES <R**-3> TO <R**3>
-------------------------------------------
   0 :     0.000000     2.228636     1.423290     0.763364     0.631052     0.566249
   1 :     3.250760     1.977886     1.341514     0.813683     0.721964     0.714808
   2 :     3.250760     1.977886     1.341514     0.813683     0.721964     0.714808
   3 :     3.252569     1.978630     1.341780     0.813499     0.721646     0.714593
   4 :     0.000000     0.749969     0.757820     1.545133     2.634834     4.850865
   5 :     0.753552     0.595591     0.678275     1.713898     3.235423     6.634505
   6 :     0.753552     0.595591     0.678275     1.713898     3.235423     6.634505
   7 :     0.000000     0.192859     0.356650     3.365621    12.561914    50.871855
   8 :     0.000000     0.047262     0.166765     7.079961    54.022914   433.685162
   9 :     0.000000     0.107889     0.241889     5.676509    39.210484   310.270092
  10 :     0.000000     0.405478     0.477855     3.219180    14.671711    89.147108
  11 :     0.000000     3.634377     1.474117     1.214849     3.080938    14.924050
  12 :     0.000000    30.430645     4.398596     0.420602     0.621950     2.810409
  13 :     0.759581     0.599158     0.680434     1.707958     3.211802     6.559552
  14 :     0.126973     0.137260     0.303494     3.938435    17.297430    83.163779
  15 :     0.131285     0.140492     0.306676     3.899272    16.933298    80.360240
  16 :     0.131285     0.140492     0.306676     3.899272    16.933298    80.360240
  17 :     0.054890     0.068670     0.206413     5.921986    38.764271   269.620403
  18 :     0.054890     0.068670     0.206413     5.921986    38.764271   269.620403
  19 :     0.057276     0.070855     0.209178     5.879218    38.355298   266.432730
  20 :     0.425129     0.318611     0.427858     3.442300    15.580134    86.716153
  21 :     0.425129     0.318611     0.427858     3.442300    15.580134    86.716153
  22 :     0.419890     0.315529     0.425894     3.452022    15.648944    87.175783
  23 :    40.856102     9.741056     2.837816     0.465818     0.365311     0.662163
  24 :    40.856102     9.741056     2.837816     0.465818     0.365311     0.662163
  25 :    40.855433     9.740875     2.837773     0.465826     0.365281     0.661835
Making the total density                ... o.k.
o.k.
Initializing the integrals              ... done
Making exponents                        ... done
Making rho(0)                           ... done (         0.175977078)
Integral calculation                    ... Two index integrals                     ... done
Solving the equation system             ... done
atomic density will be written to file 51_Sb_atom51.adf

-------
TIMINGS
-------

Total SCF time: 0 days 0 hours 0 min 0 sec 

Total time                  ....       0.622 sec
Sum of individual times     ....       0.235 sec  ( 37.7%)

Fock matrix formation       ....       0.166 sec  ( 26.7%)
Diagonalization             ....       0.029 sec  (  4.7%)
Density matrix formation    ....       0.000 sec  (  0.1%)
Population analysis         ....       0.000 sec  (  0.0%)
Initial guess               ....       0.000 sec  (  0.1%)
Orbital Transformation      ....       0.000 sec  (  0.0%)
Orbital Orthonormalization  ....       0.000 sec  (  0.0%)
DIIS solution               ....       0.039 sec  (  6.2%)

-------------------------   --------------------
FINAL SINGLE POINT ENERGY      -211.848416128021
-------------------------   --------------------


                            ***************************************
                            *     ORCA property calculations      *
                            ***************************************

                                    ---------------------
                                    Active property flags
                                    ---------------------
   (+) Dipole Moment


------------------------------------------------------------------------------
                       ORCA ELECTRIC PROPERTIES CALCULATION
------------------------------------------------------------------------------

Dipole Moment Calculation                       ... on
Quadrupole Moment Calculation                   ... off
Polarizability Calculation                      ... off
GBWName                                         ... 51_Sb_atom51.gbw
Electron density file                           ... 51_Sb_atom51.scfp
The origin for moment calculation is the CENTER OF MASS  = ( 0.000000,  0.000000  0.000000)

-------------
DIPOLE MOMENT
-------------
                                X             Y             Z
Electronic contribution:      0.00000      -0.00000      -0.00000
Nuclear contribution   :      0.00000       0.00000       0.00000
                        -----------------------------------------
Total Dipole Moment    :      0.00000      -0.00000      -0.00000
                        -----------------------------------------
Magnitude (a.u.)       :      0.00000
Magnitude (Debye)      :      0.00000



--------------------
Rotational spectrum 
--------------------
 
Rotational constants in cm-1:     0.000000     0.000000     0.000000 
Rotational constants in MHz :     0.000000     0.000000     0.000000 

 Dipole components along the rotational axes: 
x,y,z [a.u.] :     0.000000    -0.000000    -0.000000 
x,y,z [Debye]:     0.000000    -0.000000    -0.000000 

 

Timings for individual modules:

Sum of individual times         ...        0.891 sec (=   0.015 min)
GTO integral calculation        ...        0.241 sec (=   0.004 min)  27.1 %
SCF iterations                  ...        0.650 sec (=   0.011 min)  72.9 %
                             ****ORCA TERMINATED NORMALLY****
TOTAL RUN TIME: 0 days 0 hours 0 minutes 1 seconds 113 msec
