
                                 *****************
                                 * O   R   C   A *
                                 *****************

           --- An Ab Initio, DFT and Semiempirical electronic structure package ---

                  #######################################################
                  #                        -***-                        #
                  #          Department of theory and spectroscopy      #
                  #               Directorship: Frank Neese             #
                  #        Max Planck Institute fuer Kohlenforschung    #
                  #                Kaiser Wilhelm Platz 1               #
                  #                 D-45470 Muelheim/Ruhr               #
                  #                      Germany                        #
                  #                                                     #
                  #                  All rights reserved                #
                  #                        -***-                        #
                  #######################################################


                         Program Version 4.2.0 -  RELEASE  -


 With contributions from (in alphabetic order):
   Daniel Aravena         : Magnetic Suceptibility
   Michael Atanasov       : Ab Initio Ligand Field Theory (pilot matlab implementation)
   Alexander A. Auer      : GIAO ZORA, VPT2
   Ute Becker             : Parallelization
   Giovanni Bistoni       : ED, misc. LED, open-shell LED, HFLED
   Martin Brehm           : Molecular dynamics
   Dmytro Bykov           : SCF Hessian
   Vijay G. Chilkuri      : MRCI spin determinant printing, contributions to CSF-ICE
   Dipayan Datta          : RHF DLPNO-CCSD density
   Achintya Kumar Dutta   : EOM-CC, STEOM-CC
   Dmitry Ganyushin       : Spin-Orbit,Spin-Spin,Magnetic field MRCI
   Miquel Garcia          : C-PCM Hessian, Gaussian charge scheme
   Yang Guo               : DLPNO-NEVPT2, CIM, IAO-localization
   Andreas Hansen         : Spin unrestricted coupled pair/coupled cluster methods
   Benjamin Helmich-Paris : CASSCF linear response (MC-RPA)
   Lee Huntington         : MR-EOM, pCC
   Robert Izsak           : Overlap fitted RIJCOSX, COSX-SCS-MP3, EOM
   Christian Kollmar      : KDIIS, OOCD, Brueckner-CCSD(T), CCSD density
   Simone Kossmann        : Meta GGA functionals, TD-DFT gradient, OOMP2, MP2 Hessian
   Martin Krupicka        : AUTO-CI
   Lucas Lang             : DCDCAS
   Dagmar Lenk            : GEPOL surface, SMD
   Dimitrios Liakos       : Extrapolation schemes; Compound Job, initial MDCI parallelization
   Dimitrios Manganas     : Further ROCIS development; embedding schemes
   Dimitrios Pantazis     : SARC Basis sets
   Taras Petrenko         : DFT Hessian,TD-DFT gradient, ASA, ECA, R-Raman, ABS, FL, XAS/XES, NRVS
   Peter Pinski           : DLPNO-MP2, DLPNO-MP2 Gradient
   Christoph Reimann      : Effective Core Potentials
   Marius Retegan         : Local ZFS, SOC
   Christoph Riplinger    : Optimizer, TS searches, QM/MM, DLPNO-CCSD(T), (RO)-DLPNO pert. Triples
   Tobias Risthaus        : Range-separated hybrids, TD-DFT gradient, RPA, STAB
   Michael Roemelt        : Original ROCIS implementation
   Masaaki Saitow         : Open-shell DLPNO-CCSD energy and density
   Barbara Sandhoefer     : DKH picture change effects
   Avijit Sen             : IP-ROCIS
   Kantharuban Sivalingam : CASSCF convergence, NEVPT2, FIC-MRCI
   Bernardo de Souza      : ESD, SOC TD-DFT
   Georgi Stoychev        : AutoAux, RI-MP2 NMR
   Willem Van den Heuvel  : Paramagnetic NMR
   Boris Wezisla          : Elementary symmetry handling
   Frank Wennmohs         : Technical directorship


 We gratefully acknowledge several colleagues who have allowed us to
 interface, adapt or use parts of their codes:
   Stefan Grimme, W. Hujo, H. Kruse,             : VdW corrections, initial TS optimization,
                  C. Bannwarth                     DFT functionals, gCP, sTDA/sTD-DF
   Ed Valeev, F. Pavosevic, A. Kumar             : LibInt (2-el integral package), F12 methods
   Garnet Chan, S. Sharma, J. Yang, R. Olivares  : DMRG
   Ulf Ekstrom                                   : XCFun DFT Library
   Mihaly Kallay                                 : mrcc  (arbitrary order and MRCC methods)
   Andreas Klamt, Michael Diedenhofen            : otool_cosmo (COSMO solvation model)
   Jiri Pittner, Ondrej Demel                    : Mk-CCSD
   Frank Weinhold                                : gennbo (NPA and NBO analysis)
   Christopher J. Cramer and Donald G. Truhlar   : smd solvation model
   Lars Goerigk                                  : TD-DFT with DH, B97 family of functionals
   V. Asgeirsson, H. Jonsson                     : NEB implementation
   FAccTs GmbH                                   : IRC, NEB, NEB-TS, Multilevel, MM, QM/MM, CI optimization
   S Lehtola, MJT Oliveira, MAL Marques          : LibXC Library


 Your calculation uses the libint2 library for the computation of 2-el integrals
 For citations please refer to: http://libint.valeyev.net

 Your ORCA version has been built with support for libXC version: 4.2.3
 For citations please refer to: https://tddft.org/programs/libxc/

 This ORCA versions uses:
   CBLAS   interface :  Fast vector & matrix operations
   LAPACKE interface :  Fast linear algebra routines
   SCALAPACK package :  Parallel linear algebra routines


----- Orbital basis set information -----
Your calculation utilizes the basis: def2-QZVPPD
   F. Weigend and R. Ahlrichs, Phys. Chem. Chem. Phys. 7, 3297 (2005).
   D. Rappoport and F. Furche, J. Chem. Phys. 133 134105 (2010).

cite the ECPs for Sb [Def2-ECP] as follows:
Ce-Yb(ecp-28): M. Dolg, H. Stoll, H.Preuss, J. Chem. Phys., 1989, 90, 1730-1734.
Y-Cd(ecp-28), Hf-Hg(ecp-46): D. Andrae,U. Haeussermann, M. Dolg, H. Stoll, H. Preuss, Theor. Chim. Acta, 1990, 77, 123-141.
In-Sb(ecp-28), Tl-Bi(ecp-46): B. Metz, H. Stoll, M. Dolg, J. Chem. Phys., 2000, 113, 2563-2569.
Te-Xe(ecp-28), Po-Rn(ecp-46): K. A. Peterson, D. Figgen, E. Goll, H. Stoll, M. Dolg, J. Chem. Phys., 2003, 119, 11113-11123.
Rb(ecp-28), Cs(ecp-46): T. Leininger, A. Nicklass, W. Kuechle, H. Stoll, M. Dolg, A. Bergner, Chem. Phys. Lett., 1996, 255, 274-280.
Sr(ecp-28), Ba(ecp-46): M. Kaupp, P. V. Schleyer, H. Stoll and H. Preuss, J. Chem. Phys., 1991, 94, 1360-1366.
La(ecp-46): M. Dolg, H. Stoll, A. Savin, H. Preuss, Theor. Chim. Acta, 1989, 75, 173-194.
Lu(ecp-28): X. Cao, M. Dolg, J. Chem. Phys., 2001, 115, 7348-7355.

ECP parameters for Sb [Def2-ECP] have been obtained from:
TURBOMOLE (7.0.2)

================================================================================
                                        WARNINGS
                       Please study these warnings very carefully!
================================================================================


WARNING: your system is open-shell and RHF/RKS was chosen
  ===> : WILL SWITCH to UHF/UKS


WARNING: MDCI localization with Augmented Hessian Foster-Boys
  ===> : Switching off randomization!

WARNING: Post HF methods need fully converged wavefunctions
  ===> : Setting SCFConvForced true
         You can overwrite this default with %scf ConvForced false 


INFO   : the flag for use of LIBINT has been found!

================================================================================
                                       INPUT FILE
================================================================================
NAME = 51_Sb.in
|  1> #
|  2> # 51_Sb CCSD(T)/Def2-QZVPPD
|  3> #
|  4> ! CCSD(T) Def2-QZVPPD tightscf
|  5> 
|  6> *xyz 0 4
|  7>  Sb 0.0 0.0 0.0
|  8> *
|  9> 
| 10> %maxcore 5000 
| 11> 
| 12> %pal
| 13> nprocs 24
| 14> end
| 15> 
| 16> 
| 17>                          ****END OF INPUT****
================================================================================

                       ****************************
                       * Single Point Calculation *
                       ****************************

---------------------------------
CARTESIAN COORDINATES (ANGSTROEM)
---------------------------------
  Sb     0.000000    0.000000    0.000000

----------------------------
CARTESIAN COORDINATES (A.U.)
----------------------------
  NO LB      ZA    FRAG     MASS         X           Y           Z
   0 Sb   23.0000*   0   121.750    0.000000    0.000000    0.000000
* core charge reduced due to ECP

--------------------------------
INTERNAL COORDINATES (ANGSTROEM)
--------------------------------
 Sb     0   0   0     0.000000000000     0.00000000     0.00000000

---------------------------
INTERNAL COORDINATES (A.U.)
---------------------------
 Sb     0   0   0     0.000000000000     0.00000000     0.00000000

---------------------
BASIS SET INFORMATION
---------------------
There are 1 groups of distinct atoms

 Group   1 Type Sb  : 18s14p12d4f1g contracted to 8s6p5d4f1g pattern {91311111/731111/81111/1111/1}

Atom   0Sb   basis set group =>   1
-------------------------
ECP PARAMETER INFORMATION
-------------------------

 Group 1, Type Sb ECP Def2-ECP (replacing 28 core electrons, lmax=3)

Atom   0Sb   ECP group =>   1



           ************************************************************
           *        Program running with 24 parallel MPI-processes    *
           *              working on a common directory               *
           ************************************************************
------------------------------------------------------------------------------
                           ORCA GTO INTEGRAL CALCULATION
------------------------------------------------------------------------------

                         BASIS SET STATISTICS AND STARTUP INFO

 # of primitive gaussian shells          ...   49
 # of primitive gaussian functions       ...  157
 # of contracted shells                  ...   24
 # of contracted basis functions         ...   88
 Highest angular momentum                ...    4
 Maximum contraction depth               ...    9
 Integral package used                   ... LIBINT
 Integral threshhold            Thresh   ...  2.500e-11
 Primitive cut-off              TCut     ...  2.500e-12


------------------------------ INTEGRAL EVALUATION ----------------------------


 * One electron integrals 

   ECP integrals                         ... done
 Pre-screening matrix                    ... done
 Shell pair data                         ... done (   0.000 sec)



           ************************************************************
           *        Program running with 24 parallel MPI-processes    *
           *              working on a common directory               *
           ************************************************************
-------------------------------------------------------------------------------
                                 ORCA SCF
-------------------------------------------------------------------------------

------------
SCF SETTINGS
------------
Hamiltonian:
 Ab initio Hamiltonian  Method          .... Hartree-Fock(GTOs)


General Settings:
 Integral files         IntName         .... 51_Sb
 Hartree-Fock type      HFTyp           .... UHF
 Total Charge           Charge          ....    0
 Multiplicity           Mult            ....    4
 Number of Electrons    NEL             ....   23
 Basis Dimension        Dim             ....   88
 Nuclear Repulsion      ENuc            ....      0.0000000000 Eh

Convergence Acceleration:
 DIIS                   CNVDIIS         .... on
   Start iteration      DIISMaxIt       ....    12
   Startup error        DIISStart       ....  0.200000
   # of expansion vecs  DIISMaxEq       ....     5
   Bias factor          DIISBfac        ....   1.050
   Max. coefficient     DIISMaxC        ....  10.000
 Newton-Raphson         CNVNR           .... off
 SOSCF                  CNVSOSCF        .... off
 Level Shifting         CNVShift        .... on
   Level shift para.    LevelShift      ....    0.2500
   Turn off err/grad.   ShiftErr        ....    0.0010
 Zerner damping         CNVZerner       .... off
 Static damping         CNVDamp         .... on
   Fraction old density DampFac         ....    0.7000
   Max. Damping (<1)    DampMax         ....    0.9800
   Min. Damping (>=0)   DampMin         ....    0.0000
   Turn off err/grad.   DampErr         ....    0.1000
 Fernandez-Rico         CNVRico         .... off

SCF Procedure:
 Maximum # iterations   MaxIter         ....   125
 SCF integral mode      SCFMode         .... Direct
   Integral package                     .... LIBINT
 Reset frequency        DirectResetFreq ....    20
 Integral Threshold     Thresh          ....  2.500e-11 Eh
 Primitive CutOff       TCut            ....  2.500e-12 Eh

Convergence Tolerance:
 Convergence Check Mode ConvCheckMode   .... Total+1el-Energy
 Convergence forced     ConvForced      .... 1
 Energy Change          TolE            ....  1.000e-08 Eh
 1-El. energy change                    ....  1.000e-05 Eh
 DIIS Error             TolErr          ....  5.000e-07


Diagonalization of the overlap matrix:
Smallest eigenvalue                        ... 1.023e-03
Time for diagonalization                   ...    0.003 sec
Threshold for overlap eigenvalues          ... 1.000e-08
Number of eigenvalues below threshold      ... 0
Time for construction of square roots      ...    0.011 sec
Total time needed                          ...    0.014 sec

-------------------
DFT GRID GENERATION
-------------------

General Integration Accuracy     IntAcc      ...  4.340
Radial Grid Type                 RadialGrid  ... Gauss-Chebyshev
Angular Grid (max. acc.)         AngularGrid ... Lebedev-110
Angular grid pruning method      GridPruning ... 3 (G Style)
Weight generation scheme         WeightScheme... Becke
Basis function cutoff            BFCut       ...    1.0000e-11
Integration weight cutoff        WCut        ...    1.0000e-14
Grids for H and He will be reduced by one unit

# of grid points (after initial pruning)     ...   3258 (   0.0 sec)
# of grid points (after weights+screening)   ...   3258 (   0.0 sec)
Grid point division into batches done        ...    0.0 sec
Reduced shell lists constructed in    0.0 sec

Total number of grid points                  ...     3258
Total number of batches                      ...       51
Average number of points per batch           ...       63
Average number of grid points per atom       ...     3258
Average number of shells per batch           ...     9.75 (40.62%)
Average number of basis functions per batch  ...    38.25 (43.47%)
Average number of large shells per batch     ...     7.50 (76.92%)
Average number of large basis fcns per batch ...    25.50 (66.67%)
Maximum spatial batch extension              ...  19.89, 29.99, 29.99 au
Average spatial batch extension              ...   1.15,  1.57,  1.76 au

Time for grid setup =    0.055 sec

------------------------------
INITIAL GUESS: MODEL POTENTIAL
------------------------------
Loading Hartree-Fock densities                     ... done
  calling /sw/apps/orca/orca_4_2_0_linux_x86-64_openmpi314/orca 51_Sb_atom51.inp > 51_Sb_atom51.out in order to generate an atomic fitting density for atom 0 (Sb with ECP) on-the-fly... 
    atom 0 (Sb), assumed electronic state with S=4: 1s2 2s2 2p6 3s2 3p6 4s2 3d10 4p6 5s2 4d10 5p3           ... done
Calculating cut-offs                               ... done
Setting up the integral package                    ... done
Initializing the effective Hamiltonian             ... done
Starting the Coulomb interaction                   ... done (   0.0 sec)
Reading the grid                                   ... done
Mapping shells                                     ... done
Starting the XC term evaluation                    ... done (   0.0 sec)
Transforming the Hamiltonian                       ... done (   0.0 sec)
Diagonalizing the Hamiltonian                      ... done (   0.0 sec)
Back transforming the eigenvectors                 ... done (   0.0 sec)
Now organizing SCF variables                       ... done
                      ------------------
                      INITIAL GUESS DONE (   1.3 sec)
                      ------------------
--------------
SCF ITERATIONS
--------------
ITER       Energy         Delta-E        Max-DP      RMS-DP      [F,P]     Damp
               ***  Starting incremental Fock matrix formation  ***
  0   -222.5492113545   0.000000000000 5.68844987  0.09997616  1.8090118 0.7000
  1   -225.5624592062  -3.013247851707 1.66402112  0.03258121  0.8437076 0.7000
  2   -229.5092257321  -3.946766525859 1.21040308  0.02330616  0.5718412 0.7000
  3   -232.3602613884  -2.851035656284 0.85087408  0.01633588  0.4071680 0.7000
  4   -234.3903244433  -2.030063054981 0.59578575  0.01143185  0.2995914 0.7000
  5   -235.8304661985  -1.440141755178 0.41655904  0.00800863  0.2211865 0.7000
                               ***Turning on DIIS***
  6   -236.8496783468  -1.019212148272 0.29091445  0.00561990  0.1635451 0.7000
  7   -237.2876378728  -0.437959525997 0.20232554  0.00398211  0.1210278 0.7000
  8   -237.8699046440  -0.582266771244 0.46814103  0.00939547  0.0874810 0.0000
  9   -239.2834432450  -1.413538600986 0.02047644  0.00029983  0.0100007 0.0000
 10   -239.2979353410  -0.014492096009 0.00722508  0.00012644  0.0037653 0.0000
 11   -239.2843931326   0.013542208380 0.00219555  0.00003919  0.0011409 0.0000
 12   -239.2792287975   0.005164335139 0.00103622  0.00001623  0.0003525 0.0000
 13   -239.2779621047   0.001266692855 0.00017980  0.00000316  0.0000244 0.0000
 14   -239.2780634243  -0.000101319678 0.00004657  0.00000086  0.0000127 0.0000
 15   -239.2779805356   0.000082888683 0.00001353  0.00000025  0.0000010 0.0000
                            ***DIIS convergence achieved***

               *****************************************************
               *                     SUCCESS                       *
               *           SCF CONVERGED AFTER  16 CYCLES          *
               *****************************************************


----------------
TOTAL SCF ENERGY
----------------

Total Energy       :         -239.27797806 Eh           -6511.08480 eV

Components:
Nuclear Repulsion  :            0.00000000 Eh               0.00000 eV
Electronic Energy  :         -239.27797806 Eh           -6511.08480 eV
One Electron Energy:         -419.62572987 Eh          -11418.59662 eV
Two Electron Energy:          180.34775181 Eh            4907.51182 eV

Virial components:
Potential Energy   :         -331.58880497 Eh           -9022.99010 eV
Kinetic Energy     :           92.31082691 Eh            2511.90530 eV
Virial Ratio       :            3.59209007


---------------
SCF CONVERGENCE
---------------

  Last Energy change         ...    2.4761e-06  Tolerance :   1.0000e-08
  Last MAX-Density change    ...    2.1613e-06  Tolerance :   1.0000e-07
  Last RMS-Density change    ...    4.3195e-08  Tolerance :   5.0000e-09
  Last DIIS Error            ...    1.0602e-07  Tolerance :   5.0000e-07

             **** THE GBW FILE WAS UPDATED (51_Sb.gbw) ****
             **** DENSITY FILE WAS UPDATED (51_Sb.scfp) ****
             **** ENERGY FILE WAS UPDATED (51_Sb.en.tmp) ****
----------------------
UHF SPIN CONTAMINATION
----------------------

Expectation value of <S**2>     :     3.752499
Ideal value S*(S+1) for S=1.5   :     3.750000
Deviation                       :     0.002499

             **** THE GBW FILE WAS UPDATED (51_Sb.gbw) ****
             **** DENSITY FILE WAS UPDATED (51_Sb.scfp) ****
----------------
ORBITAL ENERGIES
----------------
                 SPIN UP ORBITALS
  NO   OCC          E(Eh)            E(eV) 
   0   1.0000      -6.525209      -177.5600 
   1   1.0000      -4.592263      -124.9618 
   2   1.0000      -4.592263      -124.9618 
   3   1.0000      -4.592263      -124.9618 
   4   1.0000      -1.619460       -44.0677 
   5   1.0000      -1.619460       -44.0677 
   6   1.0000      -1.619460       -44.0677 
   7   1.0000      -1.619460       -44.0677 
   8   1.0000      -1.619460       -44.0677 
   9   1.0000      -0.731571       -19.9071 
  10   1.0000      -0.334285        -9.0964 
  11   1.0000      -0.334285        -9.0964 
  12   1.0000      -0.334285        -9.0964 
  13   0.0000       0.046670         1.2700 
  14   0.0000       0.111390         3.0311 
  15   0.0000       0.111390         3.0311 
  16   0.0000       0.111390         3.0311 
  17   0.0000       0.111390         3.0311 
  18   0.0000       0.111390         3.0311 
  19   0.0000       0.147383         4.0105 
  20   0.0000       0.147383         4.0105 
  21   0.0000       0.147383         4.0105 
  22   0.0000       0.256033         6.9670 
  23   0.0000       0.303020         8.2456 
  24   0.0000       0.303020         8.2456 
  25   0.0000       0.303020         8.2456 
  26   0.0000       0.303020         8.2456 
  27   0.0000       0.303020         8.2456 
  28   0.0000       0.665967        18.1219 
  29   0.0000       0.665967        18.1219 
  30   0.0000       0.665967        18.1219 
  31   0.0000       0.665967        18.1219 
  32   0.0000       0.665967        18.1219 
  33   0.0000       0.665967        18.1219 
  34   0.0000       0.665967        18.1219 
  35   0.0000       0.678546        18.4642 
  36   0.0000       0.678546        18.4642 
  37   0.0000       0.678546        18.4642 
  38   0.0000       0.865367        23.5478 
  39   0.0000       0.865367        23.5478 
  40   0.0000       0.865367        23.5478 
  41   0.0000       0.865367        23.5478 
  42   0.0000       0.865367        23.5478 
  43   0.0000       0.902876        24.5685 
  44   0.0000       1.484232        40.3880 
  45   0.0000       1.484232        40.3880 
  46   0.0000       1.484232        40.3880 
  47   0.0000       1.484232        40.3880 
  48   0.0000       1.484232        40.3880 
  49   0.0000       1.484232        40.3880 
  50   0.0000       1.484232        40.3880 
  51   0.0000       1.882952        51.2377 
  52   0.0000       1.882952        51.2377 
  53   0.0000       1.882952        51.2377 
  54   0.0000       1.882952        51.2377 
  55   0.0000       1.882952        51.2377 
  56   0.0000       1.882952        51.2377 
  57   0.0000       1.882952        51.2377 
  58   0.0000       1.882952        51.2377 
  59   0.0000       1.882952        51.2377 
  60   0.0000       2.367860        64.4327 
  61   0.0000       2.367860        64.4327 
  62   0.0000       2.367860        64.4327 
  63   0.0000       2.367860        64.4327 
  64   0.0000       2.367860        64.4327 
  65   0.0000       2.472748        67.2869 
  66   0.0000       2.472748        67.2869 
  67   0.0000       2.472748        67.2869 
  68   0.0000       2.925541        79.6080 
  69   0.0000       3.433768        93.4376 
  70   0.0000       3.433768        93.4376 
  71   0.0000       3.433768        93.4376 
  72   0.0000       3.433768        93.4376 
  73   0.0000       3.433768        93.4376 
  74   0.0000       3.433768        93.4376 
  75   0.0000       3.433768        93.4376 
  76   0.0000      10.836297       294.8706 
  77   0.0000      10.836297       294.8706 
  78   0.0000      10.836297       294.8706 
  79   0.0000      10.836297       294.8706 
  80   0.0000      10.836297       294.8706 
  81   0.0000      10.836297       294.8706 
  82   0.0000      10.836297       294.8706 
  83   0.0000      14.728249       400.7760 
  84   0.0000      41.070690      1117.5903 
  85   0.0000      41.070690      1117.5903 
  86   0.0000      41.070690      1117.5903 
  87   0.0000      76.117167      2071.2534 

                 SPIN DOWN ORBITALS
  NO   OCC          E(Eh)            E(eV) 
   0   1.0000      -6.512470      -177.2133 
   1   1.0000      -4.579464      -124.6135 
   2   1.0000      -4.579464      -124.6135 
   3   1.0000      -4.579464      -124.6135 
   4   1.0000      -1.607615       -43.7454 
   5   1.0000      -1.607615       -43.7454 
   6   1.0000      -1.607615       -43.7454 
   7   1.0000      -1.607615       -43.7454 
   8   1.0000      -1.607615       -43.7454 
   9   1.0000      -0.507566       -13.8116 
  10   0.0000       0.024530         0.6675 
  11   0.0000       0.024530         0.6675 
  12   0.0000       0.024530         0.6675 
  13   0.0000       0.055843         1.5196 
  14   0.0000       0.126702         3.4477 
  15   0.0000       0.126702         3.4477 
  16   0.0000       0.126702         3.4477 
  17   0.0000       0.126702         3.4477 
  18   0.0000       0.126702         3.4477 
  19   0.0000       0.189801         5.1648 
  20   0.0000       0.189801         5.1648 
  21   0.0000       0.189801         5.1648 
  22   0.0000       0.281909         7.6711 
  23   0.0000       0.366773         9.9804 
  24   0.0000       0.366773         9.9804 
  25   0.0000       0.366773         9.9804 
  26   0.0000       0.366773         9.9804 
  27   0.0000       0.366773         9.9804 
  28   0.0000       0.724716        19.7205 
  29   0.0000       0.724716        19.7205 
  30   0.0000       0.724716        19.7205 
  31   0.0000       0.724716        19.7205 
  32   0.0000       0.724716        19.7205 
  33   0.0000       0.724716        19.7205 
  34   0.0000       0.724716        19.7205 
  35   0.0000       0.729432        19.8489 
  36   0.0000       0.729432        19.8489 
  37   0.0000       0.729432        19.8489 
  38   0.0000       0.928259        25.2592 
  39   0.0000       0.928259        25.2592 
  40   0.0000       0.928259        25.2592 
  41   0.0000       0.928259        25.2592 
  42   0.0000       0.928259        25.2592 
  43   0.0000       0.938294        25.5323 
  44   0.0000       1.512810        41.1657 
  45   0.0000       1.512810        41.1657 
  46   0.0000       1.512810        41.1657 
  47   0.0000       1.512810        41.1657 
  48   0.0000       1.512810        41.1657 
  49   0.0000       1.512810        41.1657 
  50   0.0000       1.512810        41.1657 
  51   0.0000       1.930138        52.5217 
  52   0.0000       1.930138        52.5217 
  53   0.0000       1.930138        52.5217 
  54   0.0000       1.930138        52.5217 
  55   0.0000       1.930138        52.5217 
  56   0.0000       1.930138        52.5217 
  57   0.0000       1.930138        52.5217 
  58   0.0000       1.930138        52.5217 
  59   0.0000       1.930138        52.5217 
  60   0.0000       2.401610        65.3511 
  61   0.0000       2.401610        65.3511 
  62   0.0000       2.401610        65.3511 
  63   0.0000       2.401610        65.3511 
  64   0.0000       2.401610        65.3511 
  65   0.0000       2.506138        68.1955 
  66   0.0000       2.506138        68.1955 
  67   0.0000       2.506138        68.1955 
  68   0.0000       2.950106        80.2765 
  69   0.0000       3.448794        93.8465 
  70   0.0000       3.448794        93.8465 
  71   0.0000       3.448794        93.8465 
  72   0.0000       3.448794        93.8465 
  73   0.0000       3.448794        93.8465 
  74   0.0000       3.448794        93.8465 
  75   0.0000       3.448794        93.8465 
  76   0.0000      10.842864       295.0493 
  77   0.0000      10.842864       295.0493 
  78   0.0000      10.842864       295.0493 
  79   0.0000      10.842864       295.0493 
  80   0.0000      10.842864       295.0493 
  81   0.0000      10.842864       295.0493 
  82   0.0000      10.842864       295.0493 
  83   0.0000      14.737649       401.0318 
  84   0.0000      41.074511      1117.6943 
  85   0.0000      41.074511      1117.6943 
  86   0.0000      41.074511      1117.6943 
  87   0.0000      76.118938      2071.3016 

                    ********************************
                    * MULLIKEN POPULATION ANALYSIS *
                    ********************************

--------------------------------------------
MULLIKEN ATOMIC CHARGES AND SPIN POPULATIONS
--------------------------------------------
   0 Sb:   -0.000000    3.000000
Sum of atomic charges         :   -0.0000000
Sum of atomic spin populations:    3.0000000

-----------------------------------------------------
MULLIKEN REDUCED ORBITAL CHARGES AND SPIN POPULATIONS
-----------------------------------------------------
CHARGE
  0 Sbs       :     4.000000  s :     4.000000
      pz      :     3.000000  p :     9.000000
      px      :     3.000000
      py      :     3.000000
      dz2     :     2.000000  d :    10.000000
      dxz     :     2.000000
      dyz     :     2.000000
      dx2y2   :     2.000000
      dxy     :     2.000000
      f0      :     0.000000  f :     0.000000
      f+1     :     0.000000
      f-1     :     0.000000
      f+2     :     0.000000
      f-2     :     0.000000
      f+3     :     0.000000
      f-3     :     0.000000
      g0      :     0.000000  g :     0.000000
      g+1     :     0.000000
      g-1     :     0.000000
      g+2     :     0.000000
      g-2     :     0.000000
      g+3     :     0.000000
      g-3     :     0.000000
      g+4     :     0.000000
      g-4     :     0.000000

SPIN
  0 Sbs       :     0.000000  s :     0.000000
      pz      :     1.000000  p :     3.000000
      px      :     1.000000
      py      :     1.000000
      dz2     :    -0.000000  d :     0.000000
      dxz     :     0.000000
      dyz     :     0.000000
      dx2y2   :     0.000000
      dxy     :     0.000000
      f0      :     0.000000  f :     0.000000
      f+1     :     0.000000
      f-1     :     0.000000
      f+2     :     0.000000
      f-2     :     0.000000
      f+3     :     0.000000
      f-3     :     0.000000
      g0      :     0.000000  g :    -0.000000
      g+1     :    -0.000000
      g-1     :    -0.000000
      g+2     :    -0.000000
      g-2     :    -0.000000
      g+3     :    -0.000000
      g-3     :    -0.000000
      g+4     :     0.000000
      g-4     :    -0.000000


                     *******************************
                     * LOEWDIN POPULATION ANALYSIS *
                     *******************************

-------------------------------------------
LOEWDIN ATOMIC CHARGES AND SPIN POPULATIONS
-------------------------------------------
   0 Sb:   -0.000000    3.000000

----------------------------------------------------
LOEWDIN REDUCED ORBITAL CHARGES AND SPIN POPULATIONS
----------------------------------------------------
CHARGE
  0 Sbs       :     4.000000  s :     4.000000
      pz      :     3.000000  p :     9.000000
      px      :     3.000000
      py      :     3.000000
      dz2     :     2.000000  d :    10.000000
      dxz     :     2.000000
      dyz     :     2.000000
      dx2y2   :     2.000000
      dxy     :     2.000000
      f0      :     0.000000  f :     0.000000
      f+1     :     0.000000
      f-1     :     0.000000
      f+2     :     0.000000
      f-2     :     0.000000
      f+3     :     0.000000
      f-3     :     0.000000
      g0      :     0.000000  g :     0.000000
      g+1     :     0.000000
      g-1     :     0.000000
      g+2     :     0.000000
      g-2     :     0.000000
      g+3     :     0.000000
      g-3     :     0.000000
      g+4     :     0.000000
      g-4     :     0.000000

SPIN
  0 Sbs       :     0.000000  s :     0.000000
      pz      :     1.000000  p :     3.000000
      px      :     1.000000
      py      :     1.000000
      dz2     :    -0.000000  d :     0.000000
      dxz     :     0.000000
      dyz     :     0.000000
      dx2y2   :     0.000000
      dxy     :     0.000000
      f0      :     0.000000  f :     0.000000
      f+1     :     0.000000
      f-1     :     0.000000
      f+2     :     0.000000
      f-2     :     0.000000
      f+3     :     0.000000
      f-3     :     0.000000
      g0      :     0.000000  g :    -0.000000
      g+1     :    -0.000000
      g-1     :    -0.000000
      g+2     :    -0.000000
      g-2     :    -0.000000
      g+3     :    -0.000000
      g-3     :    -0.000000
      g+4     :     0.000000
      g-4     :    -0.000000


                      *****************************
                      * MAYER POPULATION ANALYSIS *
                      *****************************

  NA   - Mulliken gross atomic population
  ZA   - Total nuclear charge
  QA   - Mulliken gross atomic charge
  VA   - Mayer's total valence
  BVA  - Mayer's bonded valence
  FA   - Mayer's free valence

  ATOM       NA         ZA         QA         VA         BVA        FA
  0 Sb    23.0000    23.0000    -0.0000     3.0050     0.0000     3.0050

  Mayer bond orders larger than 0.100000


-------
TIMINGS
-------

Total SCF time: 0 days 0 hours 0 min 5 sec 

Total time                  ....       5.790 sec
Sum of individual times     ....       5.359 sec  ( 92.6%)

Fock matrix formation       ....       3.564 sec  ( 61.6%)
Diagonalization             ....       0.116 sec  (  2.0%)
Density matrix formation    ....       0.011 sec  (  0.2%)
Population analysis         ....       0.073 sec  (  1.3%)
Initial guess               ....       1.255 sec  ( 21.7%)
Orbital Transformation      ....       0.000 sec  (  0.0%)
Orbital Orthonormalization  ....       0.000 sec  (  0.0%)
DIIS solution               ....       0.285 sec  (  4.9%)


           ************************************************************
           *        Program running with 24 parallel MPI-processes    *
           *              working on a common directory               *
           ************************************************************


------------------------------------------------------------------------------- 
                              ORCA-MATRIX DRIVEN CI                            
------------------------------------------------------------------------------- 

--------------------------------
AUTOMATIC CHOICE OF INCORE LEVEL
--------------------------------

Memory available                           ...   2500.00 MB
Memory needed for S+T                      ...      5.79 MB
Memory needed for J+K                      ...     11.64 MB
Memory needed for DIIS                     ...     81.11 MB
Memory needed for 3-ext                    ...     28.97 MB
Memory needed for 4-ext                    ...    122.31 MB
Memory needed for triples                  ...     16.09 MB
 -> Final InCoreLevel    ... 5
 -> check shows that triples correction can be computed


Wavefunction type
-----------------
Correlation treatment                      ...      CCSD     
Single excitations                         ... ON
Orbital optimization                       ... OFF
Calculation of Z vector                    ... OFF
Calculation of Brueckner orbitals          ... OFF
Perturbative triple excitations            ... ON
Calculation of F12 correction              ... OFF
Frozen core treatment                      ... chemical core (8 el)
Reference Wavefunction                     ... UHF
  Alpha-MOs occ    :     4 ...   12 (  9 MO's/  9 electrons)
  Beta-MOs occ     :     4 ...    9 (  6 MO's/  6 electrons)
  Alpha-MOs virt   :    13 ...   87 ( 75 MO's              )
  Beta-MOs virt    :    10 ...   87 ( 78 MO's              )
Number of AO's                             ...     88
Number of electrons                        ...     23
Number of correlated electrons             ...     15

Algorithmic settings
--------------------
Integral transformation                    ... AO direct full transformation
K(C) Formation                             ... FULL-MO TRAFO
Maximum number of iterations               ...        50
Convergence tolerance (max. residuum)      ... 1.000e-05
Level shift for amplitude update           ... 2.000e-01
Maximum number of DIIS vectors             ...         7
DIIS turned on at iteration                ...         0
Damping before turning on DIIS             ...     0.500
Damping after turning on DIIS              ...     0.000
Pair specific amplitude update             ... OFF
Natural orbital iterations                 ... OFF
Perturbative natural orbital generation    ... OFF
Printlevel                                 ... 2

Memory handling:
----------------
Maximum memory for working arrays          ...   2500 MB
Data storage in matrix containers          ... UNCOMPRESSED
Data type for integral storage             ... DOUBLE
In-Core Storage of quantities:
   Amplitudes+Sigma Vector      ... YES
   J+K operators                ... YES
   DIIS vectors                 ... YES
   3-external integrals         ... YES
   4-external integrals         ... YES


Initializing the integral package          ... done
Warning: reference  - re-canonicalizations have been set to INT 1 VIRT 1

--------------------------
UNRESTRICTED FOCK OPERATOR
--------------------------

<ss|ss>:          666 b            0 skpd (  0.0%)    0.001 s ( 0.001 ms/b)
<ss|sp>:         1728 b            0 skpd (  0.0%)    0.002 s ( 0.001 ms/b)
<ss|sd>:         1440 b            0 skpd (  0.0%)    0.002 s ( 0.001 ms/b)
<ss|sf>:         1152 b            0 skpd (  0.0%)    0.000 s ( 0.000 ms/b)
<ss|sg>:          288 b            0 skpd (  0.0%)    0.000 s ( 0.001 ms/b)
<ss|pp>:          756 b            0 skpd (  0.0%)    0.002 s ( 0.003 ms/b)
<ss|pd>:         1080 b            0 skpd (  0.0%)    0.003 s ( 0.003 ms/b)
<ss|pf>:          864 b            0 skpd (  0.0%)    0.001 s ( 0.001 ms/b)
<ss|pg>:          216 b            0 skpd (  0.0%)    0.001 s ( 0.006 ms/b)
<ss|dd>:          540 b            0 skpd (  0.0%)    0.004 s ( 0.008 ms/b)
<ss|df>:          720 b            0 skpd (  0.0%)    0.001 s ( 0.001 ms/b)
<ss|dg>:          180 b            0 skpd (  0.0%)    0.001 s ( 0.004 ms/b)
<ss|ff>:          360 b            0 skpd (  0.0%)    0.000 s ( 0.001 ms/b)
<ss|fg>:          144 b            0 skpd (  0.0%)    0.000 s ( 0.002 ms/b)
<ss|gg>:           36 b            0 skpd (  0.0%)    0.000 s ( 0.011 ms/b)
<sp|sp>:         1176 b            0 skpd (  0.0%)    0.002 s ( 0.002 ms/b)
<sp|sd>:         1920 b            0 skpd (  0.0%)    0.002 s ( 0.001 ms/b)
<sp|sf>:         1536 b            0 skpd (  0.0%)    0.001 s ( 0.001 ms/b)
<sp|sg>:          384 b            0 skpd (  0.0%)    0.001 s ( 0.002 ms/b)
<sp|pp>:         1008 b            0 skpd (  0.0%)    0.002 s ( 0.002 ms/b)
<sp|pd>:         1440 b            0 skpd (  0.0%)    0.004 s ( 0.003 ms/b)
<sp|pf>:         1152 b            0 skpd (  0.0%)    0.001 s ( 0.001 ms/b)
<sp|pg>:          288 b            0 skpd (  0.0%)    0.001 s ( 0.005 ms/b)
<sp|dd>:          720 b            0 skpd (  0.0%)    0.006 s ( 0.008 ms/b)
<sp|df>:          960 b          370 skpd ( 38.5%)    0.001 s ( 0.002 ms/b)
<sp|dg>:          240 b          101 skpd ( 42.1%)    0.001 s ( 0.010 ms/b)
<sp|ff>:          480 b          171 skpd ( 35.6%)    0.000 s ( 0.002 ms/b)
<sp|fg>:          192 b          107 skpd ( 55.7%)    0.001 s ( 0.008 ms/b)
<sp|gg>:           48 b           20 skpd ( 41.7%)    0.001 s ( 0.021 ms/b)
<sd|sd>:          820 b            0 skpd (  0.0%)    0.003 s ( 0.004 ms/b)
<sd|sf>:         1280 b            0 skpd (  0.0%)    0.002 s ( 0.001 ms/b)
<sd|sg>:          320 b            0 skpd (  0.0%)    0.001 s ( 0.004 ms/b)
<sd|pp>:          840 b            0 skpd (  0.0%)    0.003 s ( 0.003 ms/b)
<sd|pd>:         1200 b           39 skpd (  3.2%)    0.007 s ( 0.006 ms/b)
<sd|pf>:          960 b          536 skpd ( 55.8%)    0.001 s ( 0.002 ms/b)
<sd|pg>:          240 b          154 skpd ( 64.2%)    0.000 s ( 0.006 ms/b)
<sd|dd>:          600 b            2 skpd (  0.3%)    0.012 s ( 0.020 ms/b)
<sd|df>:          800 b           32 skpd (  4.0%)    0.003 s ( 0.004 ms/b)
<sd|dg>:          200 b            4 skpd (  2.0%)    0.005 s ( 0.024 ms/b)
<sd|ff>:          400 b          189 skpd ( 47.2%)    0.001 s ( 0.004 ms/b)
<sd|fg>:          160 b          100 skpd ( 62.5%)    0.001 s ( 0.016 ms/b)
<sd|gg>:           40 b           13 skpd ( 32.5%)    0.002 s ( 0.059 ms/b)
<sf|sf>:          528 b            0 skpd (  0.0%)    0.001 s ( 0.001 ms/b)
<sf|sg>:          256 b            0 skpd (  0.0%)    0.001 s ( 0.004 ms/b)
<sf|pp>:          672 b            0 skpd (  0.0%)    0.002 s ( 0.003 ms/b)
<sf|pd>:          960 b          478 skpd ( 49.8%)    0.003 s ( 0.007 ms/b)
<sf|pf>:          768 b          572 skpd ( 74.5%)    0.001 s ( 0.003 ms/b)
<sf|pg>:          192 b          168 skpd ( 87.5%)    0.000 s ( 0.006 ms/b)
<sf|dd>:          480 b            0 skpd (  0.0%)    0.009 s ( 0.020 ms/b)
<sf|df>:          640 b          373 skpd ( 58.3%)    0.002 s ( 0.007 ms/b)
<sf|dg>:          160 b           92 skpd ( 57.5%)    0.002 s ( 0.025 ms/b)
<sf|ff>: done
<sf|fg>:          128 b          112 skpd ( 87.5%)    0.000 s ( 0.017 ms/b)
<sf|gg>:           32 b           19 skpd ( 59.4%)    0.001 s ( 0.063 ms/b)
<sg|sg>:           36 b            0 skpd (  0.0%)    0.000 s ( 0.008 ms/b)
<sg|pp>:          168 b            0 skpd (  0.0%)    0.001 s ( 0.006 ms/b)
<sg|pd>:          240 b          158 skpd ( 65.8%)    0.001 s ( 0.010 ms/b)
<sg|pf>:          192 b          163 skpd ( 84.9%)    0.000 s ( 0.003 ms/b)
<sg|pg>: done
<sg|dd>:          120 b            0 skpd (  0.0%)    0.005 s ( 0.038 ms/b)
<sg|df>:          160 b          110 skpd ( 68.8%)    0.000 s ( 0.009 ms/b)
<sg|dg>:           40 b           29 skpd ( 72.5%)    0.000 s ( 0.041 ms/b)
<sg|ff>:           80 b           65 skpd ( 81.2%)    0.000 s ( 0.007 ms/b)
<sg|fg>:           32 b           30 skpd ( 93.8%)    0.000 s ( 0.034 ms/b)
<sg|gg>:            8 b            6 skpd ( 75.0%)    0.000 s ( 0.090 ms/b)
<pp|pp>:          231 b            0 skpd (  0.0%)    0.002 s ( 0.008 ms/b)
<pp|pd>:          630 b            0 skpd (  0.0%)    0.004 s ( 0.007 ms/b)
<pp|pf>:          504 b            0 skpd (  0.0%)    0.001 s ( 0.002 ms/b)
<pp|pg>:          126 b            0 skpd (  0.0%)    0.001 s ( 0.012 ms/b)
<pp|dd>:          315 b            0 skpd (  0.0%)    0.008 s ( 0.025 ms/b)
<pp|df>:          420 b            0 skpd (  0.0%)    0.002 s ( 0.005 ms/b)
<pp|dg>:          105 b            0 skpd (  0.0%)    0.003 s ( 0.029 ms/b)
<pp|ff>:          210 b            0 skpd (  0.0%)    0.001 s ( 0.004 ms/b)
<pp|fg>:           84 b            0 skpd (  0.0%)    0.001 s ( 0.013 ms/b)
<pp|gg>:           21 b            0 skpd (  0.0%)    0.001 s ( 0.069 ms/b)
<pd|pd>:          465 b            0 skpd (  0.0%)    0.011 s ( 0.024 ms/b)
<pd|pf>:          720 b            0 skpd (  0.0%)    0.003 s ( 0.004 ms/b)
<pd|pg>:          180 b            0 skpd (  0.0%)    0.005 s ( 0.025 ms/b)
<pd|dd>:          450 b            0 skpd (  0.0%)    0.023 s ( 0.051 ms/b)
<pd|df>:          600 b           18 skpd (  3.0%)    0.006 s ( 0.011 ms/b)
<pd|dg>:          150 b            2 skpd (  1.3%)    0.010 s ( 0.064 ms/b)
<pd|ff>:          300 b          135 skpd ( 45.0%)    0.002 s ( 0.011 ms/b)
<pd|fg>:          120 b           74 skpd ( 61.7%)    0.002 s ( 0.053 ms/b)
<pd|gg>:           30 b           22 skpd ( 73.3%)    0.002 s ( 0.281 ms/b)
<pf|pf>:          300 b            0 skpd (  0.0%)    0.002 s ( 0.006 ms/b)
<pf|pg>:          144 b            0 skpd (  0.0%)    0.003 s ( 0.023 ms/b)
<pf|dd>:          360 b            0 skpd (  0.0%)    0.015 s ( 0.042 ms/b)
<pf|df>:          480 b          312 skpd ( 65.0%)    0.002 s ( 0.013 ms/b)
<pf|dg>:          120 b           95 skpd ( 79.2%)    0.001 s ( 0.024 ms/b)
<pf|ff>:          240 b           89 skpd ( 37.1%)    0.002 s ( 0.011 ms/b)
<pf|fg>:           96 b           59 skpd ( 61.5%)    0.002 s ( 0.057 ms/b)
<pf|gg>:           24 b            8 skpd ( 33.3%)    0.003 s ( 0.178 ms/b)
<pg|pg>:           21 b            0 skpd (  0.0%)    0.001 s ( 0.035 ms/b)
<pg|dd>:           90 b            0 skpd (  0.0%)    0.008 s ( 0.087 ms/b)
<pg|df>:          120 b           90 skpd ( 75.0%)    0.001 s ( 0.023 ms/b)
<pg|dg>: done
<pg|ff>:           60 b           32 skpd ( 53.3%)    0.001 s ( 0.022 ms/b)
<pg|fg>:           24 b           19 skpd ( 79.2%)    0.001 s ( 0.101 ms/b)
<pg|gg>: done
<dd|dd>:          120 b            0 skpd (  0.0%)    0.029 s ( 0.239 ms/b)
<dd|df>:          300 b            1 skpd (  0.3%)    0.008 s ( 0.025 ms/b)
<dd|dg>:           75 b            0 skpd (  0.0%)    0.012 s ( 0.164 ms/b)
<dd|ff>:          150 b            0 skpd (  0.0%)    0.002 s ( 0.016 ms/b)
<dd|fg>:           60 b            0 skpd (  0.0%)    0.004 s ( 0.060 ms/b)
<dd|gg>:           15 b            0 skpd (  0.0%)    0.005 s ( 0.343 ms/b)
<df|df>:          210 b            9 skpd (  4.3%)    0.007 s ( 0.037 ms/b)
<df|dg>:          100 b            2 skpd (  2.0%)    0.012 s ( 0.119 ms/b)
<df|ff>: done
<df|fg>:           80 b           72 skpd ( 90.0%)    0.001 s ( 0.184 ms/b)
<df|gg>:           20 b           15 skpd ( 75.0%)    0.003 s ( 0.603 ms/b)
<dg|dg>:           15 b            0 skpd (  0.0%)    0.004 s ( 0.241 ms/b)
<dg|ff>:           50 b           42 skpd ( 84.0%)    0.001 s ( 0.089 ms/b)
<dg|fg>: done
<dg|gg>:            5 b            4 skpd ( 80.0%)    0.001 s ( 1.190 ms/b)
<ff|ff>: done
<ff|fg>: done
<ff|gg>: done
<fg|fg>: done
<fg|gg>: done
<gg|gg>: done
Recanonicalizing the internal orbitals
Recanonicalizing the virtual orbitals
Time needed for Fock operator              ...            0.384 sec
Reference energy                           ...   -239.277977767
Warning: for UHF the TrafoType has to be JK
Warning: for UHF the K(C)-option cannot be MO but must be AOX

-------------------------------
PARTIAL EXCHANGE TRANSFORMATION
-------------------------------

Transformation type                        ... two-operators
Generation of integrals (i,mue|j,nue)      ... ON
Generation of integrals (mue,kappa|nue,tau)... ON
Generation of integrals (i,mue|a,nue)      ... ON
Dimension of the basis                     ...   88
Number of internal alpha-MOs               ...    9 (   4-  12)
Number of internal beta-MOs                ...    6 (   4-   9)
Number of external alpha-MOs               ...   75 (  13-  87)
Number of external beta-MOs                ...   78 (  10-  87)
Pair cutoff                                ... 0.000e+00 Eh
Number of AO pairs in the trafo            ... 3916
Total Number of distinct AO pairs          ... 3916
Memory devoted for trafo                   ... 2500.0 MB 
Max. Number of MO pairs treated together   ... 42314      
Number Format for Storage                  ... Double (8 Byte)
Integral package used                      ... LIBINT

Starting integral evaluation:
    ... done with AO integral generation
Closing buffer AOK[aa] ( 0.00 GB; CompressionRatio= 0.98)
Closing buffer AOK[bb] ( 0.00 GB; CompressionRatio= 0.96)
Closing buffer AOK[ab] ( 0.00 GB; CompressionRatio= 0.97)
Closing buffer AOK[ba] ( 0.00 GB; CompressionRatio= 0.97)
Collecting buffer AOK 
Closing buffer IAAO1[aa] ( 0.00 GB; CompressionRatio= 1.00)
Closing buffer IAAO1[bb] ( 0.00 GB; CompressionRatio= 1.00)
Closing buffer IAAO1[ab] ( 0.00 GB; CompressionRatio= 1.00)
Closing buffer IAAO1[ba] ( 0.00 GB; CompressionRatio= 1.00)
Closing buffer IAAO2[aa] ( 0.00 GB; CompressionRatio= 1.00)
Closing buffer IAAO2[bb] ( 0.00 GB; CompressionRatio= 1.00)
Closing buffer IAAO2[ab] ( 0.00 GB; CompressionRatio= 1.00)
Closing buffer IAAO2[ba] ( 0.00 GB; CompressionRatio= 1.00)
Collecting buffer IAAO 
Closing buffer PRQS    ( 0.00 GB; CompressionRatio= 1.00)
Collecting buffer PRQS 
Number of alpha/alpha MO pairs in trafo    ...   45
Number of beta /beta  MO pairs in trafo    ...   21
Number of alpha/ beta MO pairs in trafo    ...   54
------------------------
SORTING OF (i,mue|j,nue)
------------------------

SORTING OF ALPHA/ALPHA PAIRS
IBATCH = 1 of  1
Closing buffer KAO[aa] ( 0.00 GB; CompressionRatio= 1.00)
Collecting buffer KAO 
SORTING OF BETA /BETA  PAIRS
IBATCH = 1 of  1
Closing buffer KAO[bb] ( 0.00 GB; CompressionRatio= 1.00)
Collecting buffer KAO 
SORTING OF ALPHA/BETA  PAIRS
IBATCH = 1 of  1
Closing buffer KAO[ab] ( 0.00 GB; CompressionRatio= 0.999806339165)
Collecting buffer KAO[ab] 
------------------------
SORTING OF (i,mue|a,nue)
------------------------

Number of alpha/alpha (i,a) pairs in trafo  ...  675
Number of beta /beta  (i,a) pairs in trafo  ...  468
Number of alpha/ beta (i,a) pairs in trafo  ...  702
Number of beta /alpha (i,a) pairs in trafo  ...  450
Setting up the alpha/alpha list             ... done
Setting up the beta /beta  list             ... done
Setting up the alpha/beta  list             ... done
Setting up the beta /alpha list             ... done
    ... Now sorting (i,mue|a,nue)integrals
    ... Integrals (i,b|a,c) will be made on the fly
SORTING OF ALPHA/ALPHA PAIRS
IBATCH = 1 of  1
Closing buffer IPAQ[aa]  0.00 GB; CompressionRatio= 1.00)
SORTING OF BETA /BETA  PAIRS
IBATCH = 1 of  1
Closing buffer IPAQ[bb]( 0.00 GB; CompressionRatio= 1.00)
SORTING OF ALPHA/BETA  PAIRS (NMatSort_ab=30)
IBATCH = 1 of  1
Closing buffer IPAQ[ab]( 0.00 GB; CompressionRatio= 1.00)
SORTING OF BETA/ALPHA  PAIRS
IBATCH = 1 of  1
Closing buffer IPAQ[ba]( 0.00 GB; CompressionRatio= 1.00)
N(AO-Batches) Done                         ...       576 
N(AO-Batches) Skipped                      ...         0 
N(IJ)-pairs Skipped                        ...         0 
TOTAL TIME for half transformation         ...     6.165 sec
AO-integral generation                     ...     0.012 sec
Half transformation                        ...     0.102 sec
K-integral sorting                         ...     1.258 sec
<ss|**>: 
------------------------------
PARTIAL COULOMB TRANSFORMATION
------------------------------

Transformation type                        ... two-operators
Dimension of the basis                     ...   88
Number of internal alpha-MOs               ...    9 (4-12)
Number of internal beta-MOs                ...    6 (4-9)
Pair cutoff                                ... 0.000e+00 Eh
Number of AO pairs included in the trafo   ... 3916
Total Number of distinct AO pairs          ... 3916
Memory devoted for trafo                   ... 2500.0 MB 
Max. Number of MO pairs treated together   ... 83677      
Max. Number of MOs treated per batch       ...  950      
Number Format for Storage                  ... Double (8 Byte)
AO-integral source                         ... DIRECT
Integral package used                      ... LIBINT

Starting integral evaluation:
<sp|**>:        10800 b        0 skpd     0.020 s (  0.002 ms/b)
<sd|**>:        14400 b        0 skpd     0.024 s (  0.002 ms/b)
       12000 b        0 skpd     0.053 s (  0.004 ms/b)
<sf|**>:         9600 b        0 skpd     0.055 s (  0.006 ms/b)
<sg|**>:         2400 b        0 skpd     0.027 s (  0.011 ms/b)
<pp|**>:         6300 b        0 skpd     0.035 s (  0.006 ms/b)
<pd|**>:         9000 b        0 skpd     0.110 s (  0.012 ms/b)
<pf|**>:         7200 b        0 skpd     0.084 s (  0.012 ms/b)
<pg|**>:         1800 b        0 skpd     0.064 s (  0.036 ms/b)
<dd|**>:         4500 b        0 skpd     0.182 s (  0.040 ms/b)
<df|**>:         6000 b        0 skpd     0.121 s (  0.020 ms/b)
<dg|**>:         1500 b        0 skpd     0.144 s (  0.096 ms/b)
<ff|**>:         3000 b        0 skpd     0.077 s (  0.026 ms/b)
<fg|**>:         1200 b        0 skpd     0.082 s (  0.068 ms/b)
<gg|**>:          300 b        0 skpd     0.063 s (  0.209 ms/b)
Closing buffer AOJ[aa] ( 0.00 GB; CompressionRatio= 0.97)
Closing buffer AOJ[bb] ( 0.00 GB; CompressionRatio= 0.00)
Collecting buffer AOJ 
    ... done with AO integral generation
Number of Alpha-MO pairs included          ...   45
Number of Beta-MO pairs included           ...   21
    ... Now sorting integrals
SORTING ALPHA/ALPHA PAIRS
IBATCH = 1 of  1
Closing buffer JAO[aa] ( 0.00 GB; CompressionRatio= 1.00)
SORTING BETA/BETA PAIRS
IBATCH = 1 of  1
Closing buffer JAO[bb] ( 0.00 GB; CompressionRatio= 1.00)
Collecting buffer JAO 
TOTAL TIME for half transformation         ...     1.315 sec
AO-integral generation                     ...     0.834 sec
Half transformation                        ...     0.314 sec
J-integral sorting                         ...     0.112 sec

-------------------------- SECOND HALF TRANSFORMATION -------------------------
Formation of (ij|kl),(ij|ka), (ij|ab)      ... ok (     0.153 sec)
Formation of (ik|jl),(ik|ja), (ia|jb)      ... ok (     0.246 sec)


-----------------------
SPIN UNRESTRICTED GUESS
-----------------------

Entering MDCI_UHF_Guess, Tailored=0
Spin-components of the MP2 energy:
EMP2(aa)=     -0.115865884
EMP2(bb)=     -0.083699282
EMP2(ab)=     -0.320520622

Initial guess performed in     0.017 sec
E(0)                                       ...   -239.277977767
E(MP2)                                     ...     -0.520085787
Initial E(tot)                             ...   -239.798063554
<T|T>                                      ...      0.107133079
Number of pairs included                   ... 105

------------------------------------------------
                  UHF COUPLED CLUSTER ITERATIONS
------------------------------------------------

Number of amplitudes to be optimized       ...       463333

Iter       E(tot)           E(Corr)          Delta-E          Residual     Time      <S|S>**1/2
  0   -239.798063554     -0.520085787     -0.000000000      0.017425898    0.78      0.000000219
                           *** Turning on DIIS ***
  1   -239.751734374     -0.473756607      0.046329180      0.002872642    0.65      0.022196352
  2   -239.759373621     -0.481395854     -0.007639247      0.001687628    0.68      0.025487679
  3   -239.760260319     -0.482282552     -0.000886698      0.000420597    0.68      0.028798707
  4   -239.760370855     -0.482393087     -0.000110535      0.000097152    0.67      0.029660723
  5   -239.760376588     -0.482398820     -0.000005733      0.000032997    0.66      0.029876656
  6   -239.760377342     -0.482399575     -0.000000755      0.000010090    0.68      0.029937760
  7   -239.760377521     -0.482399754     -0.000000179      0.000002340    0.70      0.029953056
               --- The Coupled-Cluster iterations have converged ---

----------------------
COUPLED CLUSTER ENERGY
----------------------

E(0)                                       ...   -239.277977767
E(CORR)                                    ...     -0.482399754
E(TOT)                                     ...   -239.760377521
Singles norm <S|S>**1/2                    ...      0.029953056 ( 0.020286195, 0.009666861)  
T1 diagnostic                              ...      0.007733846                              

------------------
LARGEST AMPLITUDES
------------------
  10a-> 25a   9b-> 12b       0.033492
  12a-> 27a   9b-> 10b       0.030481
  11a-> 26a   9b-> 10b       0.029117
  12a-> 26a   9b-> 11b       0.029117
  10a-> 24a   9b-> 10b       0.029117
  10a-> 23a   9b-> 11b       0.029117
  12a-> 24a   9b-> 12b       0.029117
  11a-> 23a   9b-> 12b       0.029117
  11a-> 27a   9b-> 11b       0.027529
  12a-> 27a  11a-> 26a       0.024133
  12a-> 26a  11a-> 27a       0.024133
  11a-> 25a  10a-> 23a       0.021963
  11a-> 23a  10a-> 25a       0.021963
  10a-> 18a   9b-> 12b       0.020834
  10a-> 25a   9b-> 21b       0.020752
  12a-> 25a  10a-> 24a       0.019836

----------------------
UHF TRIPLES CORRECTION (Algorithm 1)
----------------------

Multiplier for the singles contribution    ...      1.000000000

SPIN-CASE Alpha-Alpha-Alpha:
10% done
20% done
30% done
40% done
50% done
60% done
70% done
80% done
90% done


SPIN-CASE Beta-Beta-Beta:
10% done
20% done
30% done
40% done
50% done
60% done
70% done
80% done
90% done


SPIN-CASE Alpha-Alpha-Beta:
10% done
20% done
30% done
40% done
50% done
60% done
70% done
80% done
90% done


SPIN-CASE Beta-Beta-Alpha:
10% done
20% done
30% done
40% done
50% done
60% done
70% done
80% done
90% done


Triples Correction (T)                     ...     -0.010351054
    alpha-alpha-alpha ... -0.000821772 (  7.9%)
    alpha-alpha-beta  ... -0.006107980 ( 59.0%)
    alpha-beta -beta  ... -0.003193208 ( 30.8%)
    beta -beta -beta  ... -0.000228094 (  2.2%)
Scaling of triples based on CCSD energies (Peterson et al. Molecular Physics 113, 1551 (2015))
E(T*) = f*E(T) where f = E(F12-CCSD)/E(CCSD) 
f = CCSD (with F12)/ CCSD (without F12)    ...      1.000000000
Scaled triples correction (T)              ...     -0.010351054

Final correlation energy                   ...     -0.492750808
E(CCSD)                                    ...   -239.760377521
E(CCSD(T))                                 ...   -239.770728576



        !!!!!!!!!!!!!!!!!!!!!!!!!!!!!!!!!!!!!!!!!!!!!!!!!!!!!!!!!!!!!!!!!!!!!!!!!! 
        !  Warning: Densities are linearized densities                           !
        !!!!!!!!!!!!!!!!!!!!!!!!!!!!!!!!!!!!!!!!!!!!!!!!!!!!!!!!!!!!!!!!!!!!!!!!!! 

NORM  =      1.101640960 sqrt=     1.049590854
W(HF) =      0.907736764
------------------------------------------------------------------------------
                           ORCA POPULATION ANALYSIS
------------------------------------------------------------------------------
Input electron density              ... 51_Sb.mdcip
Input spin density                  ... 51_Sb.mdcir
BaseName (.gbw .S,...)              ... 51_Sb

                    ********************************
                    * MULLIKEN POPULATION ANALYSIS *
                    ********************************

------------------------------------------
MULLIKEN ATOMIC CHARGES AND SPIN DENSITIES
------------------------------------------
   0 Sb:   -0.000000    3.000000
Sum of atomic charges       :   -0.0000000
Sum of atomic spin densities:    3.0000000

---------------------------------------------------
MULLIKEN REDUCED ORBITAL CHARGES AND SPIN DENSITIES
---------------------------------------------------
CHARGE
  0 Sbs       :     3.956107  s :     3.956107
      pz      :     2.996232  p :     8.988697
      px      :     2.996232
      py      :     2.996232
      dz2     :     1.994248  d :     9.971240
      dxz     :     1.994248
      dyz     :     1.994248
      dx2y2   :     1.994248
      dxy     :     1.994248
      f0      :     0.011720  f :     0.082037
      f+1     :     0.011720
      f-1     :     0.011720
      f+2     :     0.011720
      f-2     :     0.011720
      f+3     :     0.011720
      f-3     :     0.011720
      g0      :     0.000213  g :     0.001919
      g+1     :     0.000213
      g-1     :     0.000213
      g+2     :     0.000213
      g-2     :     0.000213
      g+3     :     0.000213
      g-3     :     0.000213
      g+4     :     0.000213
      g-4     :     0.000213

SPIN
  0 Sbs       :     0.029831  s :     0.029831
      pz      :     0.974186  p :     2.922559
      px      :     0.974186
      py      :     0.974186
      dz2     :     0.008719  d :     0.043596
      dxz     :     0.008719
      dyz     :     0.008719
      dx2y2   :     0.008719
      dxy     :     0.008719
      f0      :     0.000511  f :     0.003579
      f+1     :     0.000511
      f-1     :     0.000511
      f+2     :     0.000511
      f-2     :     0.000511
      f+3     :     0.000511
      f-3     :     0.000511
      g0      :     0.000048  g :     0.000434
      g+1     :     0.000048
      g-1     :     0.000048
      g+2     :     0.000048
      g-2     :     0.000048
      g+3     :     0.000048
      g-3     :     0.000048
      g+4     :     0.000048
      g-4     :     0.000048


                     *******************************
                     * LOEWDIN POPULATION ANALYSIS *
                     *******************************

-----------------------------------------
LOEWDIN ATOMIC CHARGES AND SPIN DENSITIES
-----------------------------------------
   0 Sb:   -0.000000    3.000000

--------------------------------------------------
LOEWDIN REDUCED ORBITAL CHARGES AND SPIN DENSITIES
--------------------------------------------------
CHARGE
  0 Sbs       :     3.956107  s :     3.956107
      pz      :     2.996232  p :     8.988697
      px      :     2.996232
      py      :     2.996232
      dz2     :     1.994248  d :     9.971240
      dxz     :     1.994248
      dyz     :     1.994248
      dx2y2   :     1.994248
      dxy     :     1.994248
      f0      :     0.011720  f :     0.082037
      f+1     :     0.011720
      f-1     :     0.011720
      f+2     :     0.011720
      f-2     :     0.011720
      f+3     :     0.011720
      f-3     :     0.011720
      g0      :     0.000213  g :     0.001919
      g+1     :     0.000213
      g-1     :     0.000213
      g+2     :     0.000213
      g-2     :     0.000213
      g+3     :     0.000213
      g-3     :     0.000213
      g+4     :     0.000213
      g-4     :     0.000213

SPIN
  0 Sbs       :     0.029831  s :     0.029831
      pz      :     0.974186  p :     2.922559
      px      :     0.974186
      py      :     0.974186
      dz2     :     0.008719  d :     0.043596
      dxz     :     0.008719
      dyz     :     0.008719
      dx2y2   :     0.008719
      dxy     :     0.008719
      f0      :     0.000511  f :     0.003579
      f+1     :     0.000511
      f-1     :     0.000511
      f+2     :     0.000511
      f-2     :     0.000511
      f+3     :     0.000511
      f-3     :     0.000511
      g0      :     0.000048  g :     0.000434
      g+1     :     0.000048
      g-1     :     0.000048
      g+2     :     0.000048
      g-2     :     0.000048
      g+3     :     0.000048
      g-3     :     0.000048
      g+4     :     0.000048
      g-4     :     0.000048


                      *****************************
                      * MAYER POPULATION ANALYSIS *
                      *****************************

  NA   - Mulliken gross atomic population
  ZA   - Total nuclear charge
  QA   - Mulliken gross atomic charge
  VA   - Mayer's total valence
  BVA  - Mayer's bonded valence
  FA   - Mayer's free valence

  ATOM       NA         ZA         QA         VA         BVA        FA
  0 Sb    23.0000    23.0000    -0.0000     3.6285     0.0000     3.6285





------------------------------------------------------------------------------- 
                                     TIMINGS                                   
------------------------------------------------------------------------------- 


Total execution time                   ...       15.205 sec

Fock Matrix Formation                  ...        0.384 sec (  2.5%)
Initial Guess                          ...        0.017 sec (  0.1%)
DIIS Solver                            ...        0.264 sec (  1.7%)
State Vector Update                    ...        0.014 sec (  0.1%)
Sigma-vector construction              ...        5.235 sec ( 34.4%)
  <0|H|D>                              ...        0.001 sec (  0.0% of sigma)
  <D|H|D>(0-ext Fock)                  ...        0.005 sec (  0.1% of sigma)
  <D|H|D>(0-ext)                       ...        0.016 sec (  0.3% of sigma)
  <D|H|D>(2-ext Fock)                  ...        0.002 sec (  0.0% of sigma)
  <D|H|D>(2-ext)                       ...        0.069 sec (  1.3% of sigma)
  <D|H|D>(4-ext)                       ...        2.185 sec ( 41.7% of sigma)
  <S|H|0>                              ...        0.144 sec (  2.7% of sigma)
  <S|H|D>(1-ext)                       ...        0.002 sec (  0.0% of sigma)
  <D|H|S>(1-ext)                       ...        0.026 sec (  0.5% of sigma)
  Fock-dressing                        ...        1.777 sec ( 33.9% of sigma)
  (ik|jl)-dressing                     ...        0.020 sec (  0.4% of sigma)
  (ij|ab),(ia|jb)-dressing             ...        0.760 sec ( 14.5% of sigma)
  Pair energies                        ...        0.002 sec (  0.0% of sigma)
Total Time for computing (T)           ...        0.779 sec (  5.1% of ALL)
  I/O of integral and amplitudes       ...        0.192 sec ( 24.7% of (T))
  External N**7 contributions          ...        0.191 sec ( 24.5% of (T))
  Internal N**7 contributions          ...        0.104 sec ( 13.4% of (T))
  N**6 triples energy contributions    ...        0.267 sec ( 34.3% of (T))


-------------------------   --------------------
FINAL SINGLE POINT ENERGY      -239.770728575522
-------------------------   --------------------


                            ***************************************
                            *     ORCA property calculations      *
                            ***************************************

                                    ---------------------
                                    Active property flags
                                    ---------------------
   (+) Dipole Moment


------------------------------------------------------------------------------
                       ORCA ELECTRIC PROPERTIES CALCULATION
------------------------------------------------------------------------------

Dipole Moment Calculation                       ... on
Quadrupole Moment Calculation                   ... off
Polarizability Calculation                      ... off
GBWName                                         ... 51_Sb.gbw
Electron density file                           ... 51_Sb.scfp
The origin for moment calculation is the CENTER OF MASS  = ( 0.000000,  0.000000  0.000000)

-------------
DIPOLE MOMENT
-------------
                                X             Y             Z
Electronic contribution:      0.00000      -0.00000       0.00000
Nuclear contribution   :      0.00000       0.00000       0.00000
                        -----------------------------------------
Total Dipole Moment    :      0.00000      -0.00000       0.00000
                        -----------------------------------------
Magnitude (a.u.)       :      0.00000
Magnitude (Debye)      :      0.00000



--------------------
Rotational spectrum 
--------------------
 
Rotational constants in cm-1:     0.000000     0.000000     0.000000 
Rotational constants in MHz :     0.000000     0.000000     0.000000 

 Dipole components along the rotational axes: 
x,y,z [a.u.] :     0.000000    -0.000000     0.000000 
x,y,z [Debye]:     0.000000    -0.000000     0.000000 

 

                           *** MDCI DENSITY ***

------------------------------------------------------------------------------
                       ORCA ELECTRIC PROPERTIES CALCULATION
------------------------------------------------------------------------------

Dipole Moment Calculation                       ... on
Quadrupole Moment Calculation                   ... off
Polarizability Calculation                      ... off
GBWName                                         ... 51_Sb.gbw
Electron density file                           ... 51_Sb.mdcip
The origin for moment calculation is the CENTER OF MASS  = ( 0.000000,  0.000000  0.000000)

-------------
DIPOLE MOMENT
-------------
                                X             Y             Z
Electronic contribution:     -0.00000       0.00000      -0.00000
Nuclear contribution   :      0.00000       0.00000       0.00000
                        -----------------------------------------
Total Dipole Moment    :     -0.00000       0.00000      -0.00000
                        -----------------------------------------
Magnitude (a.u.)       :      0.00000
Magnitude (Debye)      :      0.00000



--------------------
Rotational spectrum 
--------------------
 
Rotational constants in cm-1:     0.000000     0.000000     0.000000 
Rotational constants in MHz :     0.000000     0.000000     0.000000 

 Dipole components along the rotational axes: 
x,y,z [a.u.] :    -0.000000     0.000000    -0.000000 
x,y,z [Debye]:    -0.000000     0.000000    -0.000000 

 

Timings for individual modules:

Sum of individual times         ...       22.836 sec (=   0.381 min)
GTO integral calculation        ...        0.826 sec (=   0.014 min)   3.6 %
SCF iterations                  ...        6.146 sec (=   0.102 min)  26.9 %
MDCI module                     ...       15.863 sec (=   0.264 min)  69.5 %
                             ****ORCA TERMINATED NORMALLY****
TOTAL RUN TIME: 0 days 0 hours 0 minutes 23 seconds 594 msec
