
                                 *****************
                                 * O   R   C   A *
                                 *****************

           --- An Ab Initio, DFT and Semiempirical electronic structure package ---

                  #######################################################
                  #                        -***-                        #
                  #          Department of theory and spectroscopy      #
                  #               Directorship: Frank Neese             #
                  #        Max Planck Institute fuer Kohlenforschung    #
                  #                Kaiser Wilhelm Platz 1               #
                  #                 D-45470 Muelheim/Ruhr               #
                  #                      Germany                        #
                  #                                                     #
                  #                  All rights reserved                #
                  #                        -***-                        #
                  #######################################################


                         Program Version 4.2.0 -  RELEASE  -


 With contributions from (in alphabetic order):
   Daniel Aravena         : Magnetic Suceptibility
   Michael Atanasov       : Ab Initio Ligand Field Theory (pilot matlab implementation)
   Alexander A. Auer      : GIAO ZORA, VPT2
   Ute Becker             : Parallelization
   Giovanni Bistoni       : ED, misc. LED, open-shell LED, HFLED
   Martin Brehm           : Molecular dynamics
   Dmytro Bykov           : SCF Hessian
   Vijay G. Chilkuri      : MRCI spin determinant printing, contributions to CSF-ICE
   Dipayan Datta          : RHF DLPNO-CCSD density
   Achintya Kumar Dutta   : EOM-CC, STEOM-CC
   Dmitry Ganyushin       : Spin-Orbit,Spin-Spin,Magnetic field MRCI
   Miquel Garcia          : C-PCM Hessian, Gaussian charge scheme
   Yang Guo               : DLPNO-NEVPT2, CIM, IAO-localization
   Andreas Hansen         : Spin unrestricted coupled pair/coupled cluster methods
   Benjamin Helmich-Paris : CASSCF linear response (MC-RPA)
   Lee Huntington         : MR-EOM, pCC
   Robert Izsak           : Overlap fitted RIJCOSX, COSX-SCS-MP3, EOM
   Christian Kollmar      : KDIIS, OOCD, Brueckner-CCSD(T), CCSD density
   Simone Kossmann        : Meta GGA functionals, TD-DFT gradient, OOMP2, MP2 Hessian
   Martin Krupicka        : AUTO-CI
   Lucas Lang             : DCDCAS
   Dagmar Lenk            : GEPOL surface, SMD
   Dimitrios Liakos       : Extrapolation schemes; Compound Job, initial MDCI parallelization
   Dimitrios Manganas     : Further ROCIS development; embedding schemes
   Dimitrios Pantazis     : SARC Basis sets
   Taras Petrenko         : DFT Hessian,TD-DFT gradient, ASA, ECA, R-Raman, ABS, FL, XAS/XES, NRVS
   Peter Pinski           : DLPNO-MP2, DLPNO-MP2 Gradient
   Christoph Reimann      : Effective Core Potentials
   Marius Retegan         : Local ZFS, SOC
   Christoph Riplinger    : Optimizer, TS searches, QM/MM, DLPNO-CCSD(T), (RO)-DLPNO pert. Triples
   Tobias Risthaus        : Range-separated hybrids, TD-DFT gradient, RPA, STAB
   Michael Roemelt        : Original ROCIS implementation
   Masaaki Saitow         : Open-shell DLPNO-CCSD energy and density
   Barbara Sandhoefer     : DKH picture change effects
   Avijit Sen             : IP-ROCIS
   Kantharuban Sivalingam : CASSCF convergence, NEVPT2, FIC-MRCI
   Bernardo de Souza      : ESD, SOC TD-DFT
   Georgi Stoychev        : AutoAux, RI-MP2 NMR
   Willem Van den Heuvel  : Paramagnetic NMR
   Boris Wezisla          : Elementary symmetry handling
   Frank Wennmohs         : Technical directorship


 We gratefully acknowledge several colleagues who have allowed us to
 interface, adapt or use parts of their codes:
   Stefan Grimme, W. Hujo, H. Kruse,             : VdW corrections, initial TS optimization,
                  C. Bannwarth                     DFT functionals, gCP, sTDA/sTD-DF
   Ed Valeev, F. Pavosevic, A. Kumar             : LibInt (2-el integral package), F12 methods
   Garnet Chan, S. Sharma, J. Yang, R. Olivares  : DMRG
   Ulf Ekstrom                                   : XCFun DFT Library
   Mihaly Kallay                                 : mrcc  (arbitrary order and MRCC methods)
   Andreas Klamt, Michael Diedenhofen            : otool_cosmo (COSMO solvation model)
   Jiri Pittner, Ondrej Demel                    : Mk-CCSD
   Frank Weinhold                                : gennbo (NPA and NBO analysis)
   Christopher J. Cramer and Donald G. Truhlar   : smd solvation model
   Lars Goerigk                                  : TD-DFT with DH, B97 family of functionals
   V. Asgeirsson, H. Jonsson                     : NEB implementation
   FAccTs GmbH                                   : IRC, NEB, NEB-TS, Multilevel, MM, QM/MM, CI optimization
   S Lehtola, MJT Oliveira, MAL Marques          : LibXC Library


 Your calculation uses the libint2 library for the computation of 2-el integrals
 For citations please refer to: http://libint.valeyev.net

 Your ORCA version has been built with support for libXC version: 4.2.3
 For citations please refer to: https://tddft.org/programs/libxc/

 This ORCA versions uses:
   CBLAS   interface :  Fast vector & matrix operations
   LAPACKE interface :  Fast linear algebra routines
   SCALAPACK package :  Parallel linear algebra routines


----- Orbital basis set information -----
Your calculation utilizes the basis: def2-SVP
   F. Weigend and R. Ahlrichs, Phys. Chem. Chem. Phys. 7, 3297 (2005).

----- AuxJ basis set information -----
Your calculation utilizes the auxiliary basis: def2/J
   F. Weigend, Phys. Chem. Chem. Phys. 8, 1057 (2006).

================================================================================
                                        WARNINGS
                       Please study these warnings very carefully!
================================================================================


INFO   : the flag for use of LIBINT has been found!

================================================================================
                                       INPUT FILE
================================================================================
NAME = 52_Te_atom52.inp
|  1> # input to generate an atomic fitting density for Te
|  2> # this file is use internally by ORCA
|  3> #
|  4> # atomic ground state (S=3): 1s2 2s2 2p6 3s2 3p6 4s2 3d10 4p6 5s2 4d10 5p4 
|  5> #
|  6> ! RHF AllowRHF def2-SVP def2/J  NoMulliken NoLoewdin NoMayer NoPrintMOs 
|  7> 
|  8> %output print[p_atomdensfit] 2 end
|  9> 
| 10> %scf
| 11>   guess hcore
| 12>   maxiter 1000
| 13>   maxdisk 500000
| 14>   SCFMode Conventional
| 15>   lshift 1.000000
| 16>   hftyp rohf
| 17>   rohf_case sahf
| 18>   rohf_numop   2
| 19>   rohf_norb[1] 3
| 20>   rohf_nel[1]  4
| 21> end
| 22> 
| 23> %basis
| 24>   NewECP 52
| 25>     N_core 28
| 26>     lmax f
| 27>     s 4
| 28>       1      16.8144730000    281.0458430000  2
| 29>       2       8.7935260000     61.6206560000  2
| 30>       3      15.2061680000     15.7454500000  2
| 31>       4      15.2017020000     20.7424480000  2
| 32>     p 6
| 33>       1      14.8778010000     67.4494640000  2
| 34>       2      14.2697310000    134.9043040000  2
| 35>       3       8.7244350000     14.6895470000  2
| 36>       4       8.2915150000     29.4150630000  2
| 37>       5      15.2061680000     15.7454500000  2
| 38>       6      15.2017020000     20.7424480000  2
| 39>     d 6
| 40>       1      15.2050080000     35.4320570000  2
| 41>       2      15.2258480000     53.1356870000  2
| 42>       3       6.0717690000      9.0698020000  2
| 43>       4       5.8047600000     13.1223040000  2
| 44>       5      15.2061680000     15.7454500000  2
| 45>       6      15.2017020000     20.7424480000  2
| 46>     f 2
| 47>       1      15.2061680000    -15.7454500000  2
| 48>       2      15.2017020000    -20.7424480000  2
| 49>   end
| 50>   NewGTO 52
| 51>     s 9 
| 52>      1   15746.3000000000      0.0001435055
| 53>      2    2369.2500000000      0.0010576887
| 54>      3     535.8600000000      0.0044167804
| 55>      4     141.8850000000      0.0096627038
| 56>      5      27.8197000000     -0.1552702952
| 57>      6      17.3879000000      0.9740303047
| 58>      7      10.8656000000     -1.0565964608
| 59>      8       6.5688500000     -1.3797123853
| 60>      9       2.4013900000      1.8274415778
| 61>     s 1 
| 62>      1       1.2865441585      1.0000000000
| 63>     s 3 
| 64>      1      29.3832530230      0.0651233222
| 65>      2      15.9464080030     -0.2951275416
| 66>      3       3.6679902632      1.1575836936
| 67>     s 1 
| 68>      1       0.6353359469      1.0000000000
| 69>     s 1 
| 70>      1       0.2980778621      1.0000000000
| 71>     s 1 
| 72>      1       0.1406124869      1.0000000000
| 73>     s 1 
| 74>      1       0.0656606559      1.0000000000
| 75>     p 7 
| 76>      1     750.2220000000      0.0000598114
| 77>      2     163.9610000000      0.0004715901
| 78>      3      16.9227000000      0.0959133768
| 79>      4      10.5755000000     -0.3085027477
| 80>      5       5.7046200000     -0.0263768400
| 81>      6       2.9802200000      0.5699891117
| 82>      7       1.5197000000      0.5918133818
| 83>     p 3 
| 84>      1      13.9254572580     -0.0237704969
| 85>      2       4.2323766654      0.2499275232
| 86>      3       1.4547630727      0.8154746457
| 87>     p 1 
| 88>      1       0.7552878369      1.0000000000
| 89>     p 1 
| 90>      1       0.3182945117      1.0000000000
| 91>     p 1 
| 92>      1       0.1372183092      1.0000000000
| 93>     p 1 
| 94>      1       0.0570991715      1.0000000000
| 95>     s 1 
| 96>      1       0.0306029104      1.0000000000
| 97>     p 1 
| 98>      1       0.0183906199      1.0000000000
| 99>   end
|100>   NewAuxGTO 52
|101>     S 1
|102>      1 1310.72 1.0
|103>     S 1
|104>      1  655.36 1.0
|105>     S 1
|106>      1  327.68 1.0
|107>     S 1
|108>      1  163.84 1.0
|109>     S 1
|110>      1   81.82 1.0
|111>     S 1
|112>      1   40.96 1.0
|113>     S 1
|114>      1   20.48 1.0
|115>     S 1
|116>      1   10.24 1.0
|117>     S 1
|118>      1    5.12 1.0
|119>     S 1
|120>      1    2.56 1.0
|121>     S 1
|122>      1    1.28 1.0
|123>     S 1
|124>      1    0.64 1.0
|125>     S 1
|126>      1    0.32 1.0
|127>     S 1
|128>      1    0.16 1.0
|129>     S 1
|130>      1    0.08 1.0
|131>     S 1
|132>      1    0.04 1.0
|133>     S 1
|134>      1    0.02 1.0
|135>     S 1
|136>      1    0.01 1.0
|137>   end
|138> end
|139> 
|140> * xyz 0 3
|141> 52  0.0 0.0 0.0
|142> *
|143> 
|144> 
|145>                          ****END OF INPUT****
================================================================================

                       ****************************
                       * Single Point Calculation *
                       ****************************

---------------------------------
CARTESIAN COORDINATES (ANGSTROEM)
---------------------------------
  Te     0.000000    0.000000    0.000000

----------------------------
CARTESIAN COORDINATES (A.U.)
----------------------------
  NO LB      ZA    FRAG     MASS         X           Y           Z
   0 Te   24.0000*   0   127.600    0.000000    0.000000    0.000000
* core charge reduced due to ECP

--------------------------------
INTERNAL COORDINATES (ANGSTROEM)
--------------------------------
 Te     0   0   0     0.000000000000     0.00000000     0.00000000

---------------------------
INTERNAL COORDINATES (A.U.)
---------------------------
 Te     0   0   0     0.000000000000     0.00000000     0.00000000

---------------------
BASIS SET INFORMATION
---------------------
There are 1 groups of distinct atoms

 Group   1 Type Te  : 18s15p contracted to 8s7p pattern {91311111/7311111}

Atom   0Te   basis set group =>   1
---------------------------------
AUXILIARY/J BASIS SET INFORMATION
---------------------------------
There are 1 groups of distinct atoms

 Group   1 Type Te  : 18s contracted to 18s pattern {111111111111111111}

Atom   0Te   basis set group =>   1
-------------------------
ECP PARAMETER INFORMATION
-------------------------

 Group 1, Type Te ECP (replacing 28 core electrons, lmax=3)

Atom   0Te   ECP group =>   1

------------------------------------------------------------------------------
                           ORCA GTO INTEGRAL CALCULATION
------------------------------------------------------------------------------

                         BASIS SET STATISTICS AND STARTUP INFO

 # of primitive gaussian shells          ...   33
 # of primitive gaussian functions       ...   63
 # of contracted shells                  ...   15
 # of contracted basis functions         ...   29
 Highest angular momentum                ...    1
 Maximum contraction depth               ...    9
 Integral package used                   ... LIBINT
 Integral threshhold            Thresh   ...  1.000e-10
 Primitive cut-off              TCut     ...  1.000e-11
 Storage cut-off                TCutStore... -1.000e+00
 Buffer length                           ... 1048576 integrals/buffer
 Generate file with integrals 4 distinct ...false


------------------------------ INTEGRAL EVALUATION ----------------------------


 * One electron integrals 

   ECP integrals                         ... done
 Pre-screening matrix                    ... done
 Shell pair data                         ... done (   0.000 sec)
 Statistics run                          ... done
 Maximum amount of storage needed        ...     1 MB
 Maximum amount of storage dedicated     ... 500000 MB
 Beginning two electron integral evaluation:
 Starting repulsion integrals
  <ss|ss>  ...          666 b.         0 skpd (  0.0%)     0.000 s. (  0.000 ms/b)
  <ss|sp>  ...         2016 b.         0 skpd (  0.0%)     0.001 s. (  0.001 ms/b)
  <ss|pp>  ...         1008 b.         0 skpd (  0.0%)     0.003 s. (  0.003 ms/b)
  <sp|sp>  ...         1596 b.         0 skpd (  0.0%)     0.003 s. (  0.002 ms/b)
  <sp|pp>  ...         1568 b.         0 skpd (  0.0%)     0.005 s. (  0.003 ms/b)
  <pp|pp>  ...          406 b.         0 skpd (  0.0%)     0.004 s. (  0.009 ms/b)


                                      INTEGRAL STATISTICS

Integral type statistics:
 Number of integrals retained            ...      94830 
 One   Center Integrals retained         ...      94830 (100.0%)
 Two   Center Integrals retained         ...          0 (  0.0%)
 Three Center Integrals retained         ...          0 (  0.0%)
 Four  Center Integrals retained         ...          0 (  0.0%)

Storage statistics:
 Number of char integrals                ...          0 (  0.0%)
 Number of short int integrals           ...          0 (  0.0%)
 Number of double/float integrals        ...      94830 (100.0%)
 Amount of memory used                   ...          1 MB
 Amount of memory estimated              ...          1 MB ( 96.6%)

Prescreening statistics:
 Total number of shell quadruples        ...       7260 
 Number of skipped shell quadruples      ...          0 (  0.0%)
 # of negligible batches done            ...          0 (  0.0%)

Timings:
 Total evaluation time               ...     0.179 sec (   0.003 min)
 One electron matrix time            ...     0.015 sec (   0.000 min) =  8.6%
 Schwartz matrix evaluation time     ...     0.074 sec (   0.001 min) = 41.3%
 Statistics run                      ...     0.001 sec (   0.000 min) =  0.5%
 Repulsion integral time             ...     0.017 sec (   0.000 min) =  9.3%

-------------------------------------------------------------------------------
                                 ORCA SCF
-------------------------------------------------------------------------------

------------
SCF SETTINGS
------------
Hamiltonian:
 Ab initio Hamiltonian  Method          .... Hartree-Fock(GTOs)


General Settings:
 Integral files         IntName         .... 52_Te_atom52
 Hartree-Fock type      HFTyp           .... ROHF
 Total Charge           Charge          ....    0
 Multiplicity           Mult            ....    3
 Number of Electrons    NEL             ....   24
 Basis Dimension        Dim             ....   29
 Nuclear Repulsion      ENuc            ....      0.0000000000 Eh

Convergence Acceleration:
 DIIS                   CNVDIIS         .... on
   Start iteration      DIISMaxIt       ....    12
   Startup error        DIISStart       ....  0.200000
   # of expansion vecs  DIISMaxEq       ....     5
   Bias factor          DIISBfac        ....   1.050
   Max. coefficient     DIISMaxC        ....  10.000
 Newton-Raphson         CNVNR           .... off
 SOSCF                  CNVSOSCF        .... off
 Level Shifting         CNVShift        .... on
   Level shift para.    LevelShift      ....    1.0000
   Turn off err/grad.   ShiftErr        ....    0.0010
 Zerner damping         CNVZerner       .... off
 Static damping         CNVDamp         .... on
   Fraction old density DampFac         ....    0.7000
   Max. Damping (<1)    DampMax         ....    0.9800
   Min. Damping (>=0)   DampMin         ....    0.0000
   Turn off err/grad.   DampErr         ....    0.1000
 Fernandez-Rico         CNVRico         .... off

SCF Procedure:
 Maximum # iterations   MaxIter         ....  1000
 SCF integral mode      SCFMode         .... Conventional
 Integral Threshold     Thresh          ....  1.000e-10 Eh
 Primitive CutOff       TCut            ....  1.000e-11 Eh
 Integral Buffer length BufferLength    .... 1048576
 Integral index format  IndFormat       ....     0
 Integral value format  ValFormat       ....     0
 Integral Storage       Thresh          ....  1.000e-10 Eh

Convergence Tolerance:
 Convergence Check Mode ConvCheckMode   .... Total+1el-Energy
 Convergence forced     ConvForced      .... 0
 Energy Change          TolE            ....  1.000e-06 Eh
 1-El. energy change                    ....  1.000e-03 Eh
 DIIS Error             TolErr          ....  1.000e-06


Diagonalization of the overlap matrix:
Smallest eigenvalue                        ... 1.012e-03
Time for diagonalization                   ...    0.001 sec
Threshold for overlap eigenvalues          ... 1.000e-08
Number of eigenvalues below threshold      ... 0
Time for construction of square roots      ...    0.002 sec
Total time needed                          ...    0.002 sec

--------------------
INITIAL GUESS: HCORE
--------------------
AVERAGE-CONFIGURATION (SAHF) CASE FOUND

-------------------
FINAL ROHF SETTINGS
-------------------
Number of operators             ... 2
  operator   0:  10 orbitals  20 electrons n(mue)= 2.000
  operator   1:   3 orbitals   4 electrons n(mue)= 1.333
Vector coupling coefficients a and b (Zerner convention):
   1.000    1.000           1.000    1.000 
   1.000    0.938           1.000    1.125 

                      -----------------
                      INTIAL GUESS DONE 
                      -----------------

 InCore treatment chosen:
   Memory dedicated               ...    1024 MB
   Memory needed                  ...      1 MB
   Number of tiny    integrals    ...       0
   Number of small   integrals    ...       0
   Number of regular integrals    ...   94830

--------------
SCF ITERATIONS
--------------
ITER       Energy         Delta-E        Max-DP      RMS-DP      [F,P]     Damp
  0   -222.0114730138   0.00000000000012.21696696  0.64831189  3.0399753 0.7000
  1   -227.4141007022  -5.402627688383 6.28548270  0.41406287  0.8479165 0.7000
  2   -229.9139758098  -2.499875107572 7.51112342  0.38950803  0.5748374 0.7000
  3   -231.3799914944  -1.466015684616 6.30364346  0.30671857  0.3489411 0.7000
  4   -232.2971994343  -0.917207939899 4.71200760  0.22307645  0.2071503 0.7000
                            ****Activating DIIS****
  5   -232.9148251832  -0.617625748877 4.04663406  0.16661999  0.1795665 0.7000
  6   -233.4165567819  -0.501731598695 9.18566245  0.40167605  0.0954256 0.0000
  7   -234.3870736456  -0.970516863693 0.69861786  0.02905270  0.0761684 0.0000
  8   -234.4115082840  -0.024434638493 0.46782991  0.02398325  0.0566737 0.0000
  9   -234.4276462094  -0.016137925315 0.11400276  0.00704170  0.0323551 0.0000
 10   -234.4320622312  -0.004416021810 0.19288613  0.00872727  0.0187069 0.0000
 11   -234.4342209536  -0.002158722396 0.09688810  0.00381341  0.0056207 0.0000
 12   -234.4345480164  -0.000327062846 0.03302989  0.00136980  0.0052649 0.0000
 13   -234.4346406798  -0.000092663348 0.01919147  0.00102891  0.0053005 0.0000
 14   -234.4347062889  -0.000065609130 0.01279284  0.00070849  0.0053320 0.0000
 15   -234.4347471113  -0.000040822395 0.00874794  0.00046831  0.0053665 0.0000
 16   -234.4347688420  -0.000021730719 0.00443440  0.00024916  0.0053971 0.0000
 17   -234.4347789228  -0.000010080794 0.00123748  0.00006100  0.0054171 0.0000
                 **** Energy Check signals convergence ****

               *****************************************************
               *                     SUCCESS                       *
               *           SCF CONVERGED AFTER  18 CYCLES          *
               *****************************************************


----------------
TOTAL SCF ENERGY
----------------

Total Energy       :         -234.43477945 Eh           -6379.29467 eV

Components:
Nuclear Repulsion  :            0.00000000 Eh               0.00000 eV
Electronic Energy  :         -234.43477945 Eh           -6379.29467 eV
One Electron Energy:         -366.84371705 Eh           -9982.32503 eV
Two Electron Energy:          132.40893760 Eh            3603.03037 eV

Virial components:
Potential Energy   :         -302.28396852 Eh           -8225.56496 eV
Kinetic Energy     :           67.84918908 Eh            1846.27030 eV
Virial Ratio       :            4.45523333


---------------
SCF CONVERGENCE
---------------

  Last Energy change         ...   -5.2507e-07  Tolerance :   1.0000e-06
  Last MAX-Density change    ...    2.1921e-03  Tolerance :   1.0000e-05
  Last RMS-Density change    ...    1.2007e-04  Tolerance :   1.0000e-06
  Last DIIS Error            ...    5.4197e-03  Tolerance :   1.0000e-06

             **** THE GBW FILE WAS UPDATED (52_Te_atom52.gbw) ****
             **** DENSITY FILE WAS UPDATED (52_Te_atom52.scfp) ****
             **** ENERGY FILE WAS UPDATED (52_Te_atom52.en.tmp) ****
             **** THE GBW FILE WAS UPDATED (52_Te_atom52.gbw) ****
             **** DENSITY FILE WAS UPDATED (52_Te_atom52.scfp) ****
----------------
ORBITAL ENERGIES
----------------

  NO   OCC          E(Eh)            E(eV) 
   0   2.0000     -11.648549      -316.9731 
   1   2.0000      -9.301165      -253.0976 
   2   2.0000      -9.299692      -253.0575 
   3   2.0000      -9.295448      -252.9420 
   4   2.0000      -3.099360       -84.3379 
   5   2.0000      -2.232608       -60.7524 
   6   2.0000      -2.229596       -60.6704 
   7   2.0000      -2.223081       -60.4931 
   8   2.0000      -0.666603       -18.1392 
   9   2.0000      -0.410604       -11.1731 
  10   1.3333      -0.424497       -11.5512 
  11   1.3333      -0.419087       -11.4039 
  12   1.3333      -0.065632        -1.7859 
  13   0.0000      -0.026550        -0.7225 
  14   0.0000      -0.005138        -0.1398 
  15   0.0000      -0.000947        -0.0258 
  16   0.0000       0.201216         5.4754 
  17   0.0000       0.211396         5.7524 
  18   0.0000       0.207903         5.6573 
  19   0.0000       0.256501         6.9798 
  20   0.0000       1.253423        34.1074 
  21   0.0000       1.258710        34.2512 
  22   0.0000       1.268879        34.5279 
  23   0.0000       1.275475        34.7074 
  24   0.0000      10.601721       288.4875 
  25   0.0000      35.965476       978.6703 
  26   0.0000      35.966051       978.6860 
  27   0.0000      35.969003       978.7663 
  28   0.0000      68.786760      1871.7829 
CleanUpVectors: The p-vectors have cracked symmetry
CleanUpVectors: The p-vectors have cracked symmetry
CleanUpVectors: The p-vectors have cracked symmetry
CleanUpVectors: The p-vectors have cracked symmetry
CleanUpVectors: The p-vectors have cracked symmetry
CleanUpVectors: The p-vectors have cracked symmetry
CleanUpVectors: The p-vectors have cracked symmetry
CleanUpVectors: The p-vectors have cracked symmetry
CleanUpVectors: The p-vectors have cracked symmetry
CleanUpVectors: The p-vectors have cracked symmetry
CleanUpVectors: The p-vectors have cracked symmetry
CleanUpVectors: The p-vectors have cracked symmetry
CleanUpVectors: The p-vectors have cracked symmetry
CleanUpVectors: The p-vectors have cracked symmetry
CleanUpVectors: The p-vectors have cracked symmetry
CleanUpVectors: The p-vectors have cracked symmetry
CleanUpVectors: The p-vectors have cracked symmetry
CleanUpVectors: The p-vectors have cracked symmetry
CleanUpVectors: The p-vectors have cracked symmetry
CleanUpVectors: The p-vectors have cracked symmetry
--------------------------
ATOM BASIS FOR ELEMENT Te
--------------------------
 NewGTO Te
 S 18
    1      15746.299999999999         0.000061308713
    2       2369.250000000000         0.000451867927
    3        535.860000000000         0.001886945946
    4        141.885000000000         0.004128120059
    5         27.819700000000        -0.066334892748
    6         17.387900000000         0.416127216816
    7         10.865600000000        -0.451401298716
    8          6.568850000000        -0.589443544139
    9          2.401390000000         0.780723324515
   10          1.286544158500         0.723804393099
   11         29.383253023000         0.006433843265
   12         15.946408003000        -0.029157055902
   13          3.667990263200         0.114363208133
   14          0.635335946900        -0.218226285178
   15          0.298077862100         0.160268719140
   16          0.140612486900        -0.095791073927
   17          0.065660655900         0.044165247036
   18          0.030602910400        -0.011832068639
 P 30
    1        750.222000000000        -0.000041807402
    2        163.961000000000        -0.000329635432
    3         16.922700000000        -0.067042220266
    4         10.575500000000         0.215639464004
    5          5.704620000000         0.018437072869
    6          2.980220000000        -0.398415078800
    7          1.519700000000        -0.413669963697
    8        750.222000000000         0.000040123344
    9        163.961000000000         0.000316357280
   10         16.922700000000         0.064341670821
   11         10.575500000000        -0.206953220731
   12          5.704620000000        -0.017694403150
   13          2.980220000000         0.382366391636
   14          1.519700000000         0.397006789561
   15         13.925457258000         0.001898569259
   16          4.232376665400        -0.019961918113
   17          1.454763072700        -0.065132634824
   18         13.925457258000        -0.001822092375
   19          4.232376665400         0.019157825608
   20          1.454763072700         0.062509006010
   21          0.755287836900         0.105940925027
   22          0.755287836900        -0.101673484225
   23          0.318294511700        -0.078673612642
   24          0.318294511700         0.075504535304
   25          0.137218309200         0.043726718506
   26          0.137218309200        -0.041965348359
   27          0.057099171500        -0.017907187550
   28          0.057099171500         0.017185862313
   29          0.018390619900         0.004415070533
   30          0.018390619900        -0.004237225643
 S 18
    1      15746.299999999999         0.000044078852
    2       2369.250000000000         0.000324877467
    3        535.860000000000         0.001356649104
    4        141.885000000000         0.002967976052
    5         27.819700000000        -0.047692501738
    6         17.387900000000         0.299181127591
    7         10.865600000000        -0.324541976801
    8          6.568850000000        -0.423789593808
    9          2.401390000000         0.561313163682
   10          1.286544158500         1.433481516531
   11         29.383253023000         0.016237708055
   12         15.946408003000        -0.073586461769
   13          3.667990263200         0.288629410024
   14          0.635335946900        -2.007802596520
   15          0.298077862100         0.016532194571
   16          0.140612486900        -0.253999477570
   17          0.065660655900         0.122442834020
   18          0.030602910400        -0.034190304425
 P 30
    1        750.222000000000        -0.000026446370
    2        163.961000000000        -0.000208519549
    3         16.922700000000        -0.042409317066
    4         10.575500000000         0.136408405996
    5          5.704620000000         0.011662854631
    6          2.980220000000        -0.252027921119
    7          1.519700000000        -0.261677799178
    8        750.222000000000         0.000025381075
    9        163.961000000000         0.000200120105
   10         16.922700000000         0.040701013592
   11         10.575500000000        -0.130913694692
   12          5.704620000000        -0.011193059396
   13          2.980220000000         0.241875902576
   14          1.519700000000         0.251137070764
   15         13.925457258000         0.007939042917
   16          4.232376665400        -0.083472606452
   17          1.454763072700        -0.272358135272
   18         13.925457258000        -0.007619247751
   19          4.232376665400         0.080110219282
   20          1.454763072700         0.261387188770
   21          0.755287836900         0.863614226683
   22          0.755287836900        -0.828826701540
   23          0.318294511700         0.232284149487
   24          0.318294511700        -0.222927436222
   25          0.137218309200         0.049920343323
   26          0.137218309200        -0.047909485761
   27          0.057099171500        -0.016674553701
   28          0.057099171500         0.016002880588
   29          0.018390619900         0.004571914695
   30          0.018390619900        -0.004387751914
 S 18
    1      15746.299999999999        -0.000008077802
    2       2369.250000000000        -0.000059536392
    3        535.860000000000        -0.000248616789
    4        141.885000000000        -0.000543905328
    5         27.819700000000         0.008740032042
    6         17.387900000000        -0.054827332311
    7         10.865600000000         0.059474910581
    8          6.568850000000         0.077662829460
    9          2.401390000000        -0.102865122555
   10          1.286544158500        -0.451325886881
   11         29.383253023000        -0.003186117643
   12         15.946408003000         0.014438929640
   13          3.667990263200        -0.056634055274
   14          0.635335946900         1.009461038794
   15          0.298077862100        -0.530879716108
   16          0.140612486900         0.742764214750
   17          0.065660655900        -2.846487046771
   18          0.030602910400         2.651179738676
 S 18
    1      15746.299999999999         0.000014924005
    2       2369.250000000000         0.000109995443
    3        535.860000000000         0.000459327700
    4        141.885000000000         0.001004882993
    5         27.819700000000        -0.016147496831
    6         17.387900000000         0.101295300807
    7         10.865600000000        -0.109881854612
    8          6.568850000000        -0.143484633303
    9          2.401390000000         0.190046699201
   10          1.286544158500         0.469763245347
   11         29.383253023000         0.009413547924
   12         15.946408003000        -0.042660557888
   13          3.667990263200         0.167328219870
   14          0.635335946900        -0.451198008376
   15          0.298077862100        -3.377436347557
   16          0.140612486900         8.377853312908
   17          0.065660655900        -8.051251245789
   18          0.030602910400         2.991301962415
 S 18
    1      15746.299999999999        -0.000038272390
    2       2369.250000000000        -0.000282081693
    3        535.860000000000        -0.001177939115
    4        141.885000000000        -0.002577007624
    5         27.819700000000         0.041410017605
    6         17.387900000000        -0.259770305798
    7         10.865600000000         0.281790396462
    8          6.568850000000         0.367964227102
    9          2.401390000000        -0.487371958760
   10          1.286544158500        -3.530713902740
   11         29.383253023000        -0.009189730574
   12         15.946408003000         0.041646256682
   13          3.667990263200        -0.163349809285
   14          0.635335946900        10.812759028223
   15          0.298077862100       -14.675317871549
   16          0.140612486900        12.107712027360
   17          0.065660655900        -6.209717824093
   18          0.030602910400         1.654404303841
 S 18
    1      15746.299999999999         0.000055262065
    2       2369.250000000000         0.000407301889
    3        535.860000000000         0.001700843548
    4        141.885000000000         0.003720979068
    5         27.819700000000        -0.059792531187
    6         17.387900000000         0.375086150866
    7         10.865600000000        -0.406881282428
    8          6.568850000000        -0.531308939165
    9          2.401390000000         0.703723512546
   10          1.286544158500       -10.115719023351
   11         29.383253023000         0.265922101228
   12         15.946408003000        -1.205112597780
   13          3.667990263200         4.726833302576
   14          0.635335946900        11.837724393626
   15          0.298077862100        -8.970454447147
   16          0.140612486900         5.438173068452
   17          0.065660655900        -2.479462417744
   18          0.030602910400         0.652592247075
 P 30
    1        750.222000000000        -0.000246934510
    2        163.961000000000        -0.001946984527
    3         16.922700000000        -0.395983419770
    4         10.575500000000         1.273669816646
    5          5.704620000000         0.108898170979
    6          2.980220000000        -2.353230020807
    7          1.519700000000        -2.443332667555
    8        750.222000000000         0.000236987661
    9        163.961000000000         0.001868557409
   10         16.922700000000         0.380032682617
   11         10.575500000000        -1.222364707768
   12          5.704620000000        -0.104511608272
   13          2.980220000000         2.258438795597
   14          1.519700000000         2.344911988273
   15         13.925457258000        -0.108483961752
   16          4.232376665400         1.140620996761
   17          1.454763072700         3.721668951473
   18         13.925457258000         0.104114083942
   19          4.232376665400        -1.094675270747
   20          1.454763072700        -3.571755191824
   21          0.755287836900        -0.495542106509
   22          0.755287836900         0.475581013456
   23          0.318294511700         0.027558463459
   24          0.318294511700        -0.026448372014
   25          0.137218309200         0.029827489168
   26          0.137218309200        -0.028625998358
   27          0.057099171500        -0.018803592237
   28          0.057099171500         0.018046158611
   29          0.018390619900         0.005233573729
   30          0.018390619900        -0.005022758440
 P 30
    1        750.222000000000        -0.000012056363
    2        163.961000000000        -0.000095059828
    3         16.922700000000        -0.019333546453
    4         10.575500000000         0.062185822274
    5          5.704620000000         0.005316858591
    6          2.980220000000        -0.114894411355
    7          1.519700000000        -0.119293594804
    8        750.222000000000         0.000011570717
    9        163.961000000000         0.000091230692
   10         16.922700000000         0.018554765589
   11         10.575500000000        -0.059680894971
   12          5.704620000000        -0.005102688483
   13          2.980220000000         0.110266312257
   14          1.519700000000         0.114488290769
   15         13.925457258000         0.004613605689
   16          4.232376665400        -0.048508327264
   17          1.454763072700        -0.158275129055
   18         13.925457258000        -0.004427763540
   19          4.232376665400         0.046554347579
   20          1.454763072700         0.151899597178
   21          0.755287836900         0.600388953011
   22          0.755287836900        -0.576204490605
   23          0.318294511700         0.155748501286
   24          0.318294511700        -0.149474745323
   25          0.137218309200        -0.626859122485
   26          0.137218309200         0.601608406587
   27          0.057099171500        -0.278344398460
   28          0.057099171500         0.267132317347
   29          0.018390619900         0.004755120063
   30          0.018390619900        -0.004563577527
 P 30
    1        750.222000000000        -0.000003211078
    2        163.961000000000        -0.000025318129
    3         16.922700000000        -0.005149275250
    4         10.575500000000         0.016562502710
    5          5.704620000000         0.001416086201
    6          2.980220000000        -0.030600849676
    7          1.519700000000        -0.031772523301
    8        750.222000000000         0.000003081732
    9        163.961000000000         0.000024298281
   10         16.922700000000         0.004941855621
   11         10.575500000000        -0.015895343159
   12          5.704620000000        -0.001359044373
   13          2.980220000000         0.029368206912
   14          1.519700000000         0.030492683971
   15         13.925457258000         0.001293665088
   16          4.232376665400        -0.013601840660
   17          1.454763072700        -0.044380691055
   18         13.925457258000        -0.001241554544
   19          4.232376665400         0.013053940499
   20          1.454763072700         0.042592978026
   21          0.755287836900         0.182254581476
   22          0.755287836900        -0.174913125489
   23          0.318294511700        -0.010480919679
   24          0.318294511700         0.010058734350
   25          0.137218309200        -0.082388573906
   26          0.137218309200         0.079069853003
   27          0.057099171500        -0.436403588035
   28          0.057099171500         0.418824673375
   29          0.018390619900         0.939860490958
   30          0.018390619900        -0.902001665284
 P 33
    1        750.222000000000        -0.000006691687
    2        163.961000000000        -0.000052761399
    3         16.922700000000        -0.010730767902
    4         10.575500000000         0.034515220851
    5          5.704620000000         0.002951035168
    6          2.980220000000        -0.063770258837
    7          1.519700000000        -0.066211953467
    8        750.222000000000        -0.000006972550
    9        163.961000000000        -0.000054975901
   10         16.922700000000        -0.011181159833
   11         10.575500000000         0.035963894151
   12          5.704620000000         0.003074896055
   13          2.980220000000        -0.066446824975
   14          1.519700000000        -0.068991002443
   15        750.222000000000         0.000005872888
   16        163.961000000000         0.000046305482
   17         16.922700000000         0.009417744599
   18         10.575500000000        -0.030291917382
   19          5.704620000000        -0.002589944706
   20          2.980220000000         0.055967291083
   21          1.519700000000         0.058110218469
   22         13.925457258000         0.002565157443
   23          4.232376665400        -0.026970552997
   24          1.454763072700        -0.088000720642
   25         13.925457258000         0.002672822265
   26          4.232376665400        -0.028102561400
   27          1.454763072700        -0.091694288039
   28         13.925457258000        -0.002251283214
   29          4.232376665400         0.023670419688
   30          1.454763072700         0.077232898808
   31          0.755287836900         0.289184384419
   32          0.755287836900         0.301322035182
   33          0.755287836900        -0.253799606820
 P 33
    1        750.222000000000        -0.000013768669
    2        163.961000000000        -0.000108560710
    3         16.922700000000        -0.022079395428
    4         10.575500000000         0.071017770247
    5          5.704620000000         0.006071985993
    6          2.980220000000        -0.131212302256
    7          1.519700000000        -0.136236280198
    8        750.222000000000        -0.000014346568
    9        163.961000000000        -0.000113117222
   10         16.922700000000        -0.023006112101
   11         10.575500000000         0.073998529027
   12          5.704620000000         0.006326839469
   13          2.980220000000        -0.136719546719
   14          1.519700000000        -0.141954391129
   15        750.222000000000        -0.000032721174
   16        163.961000000000        -0.000257993991
   17         16.922700000000        -0.052471574068
   18         10.575500000000         0.168773379856
   19          5.704620000000         0.014430044691
   20          2.980220000000        -0.311825387554
   21          1.519700000000        -0.323764846295
   22         13.925457258000         0.006917990542
   23          4.232376665400        -0.072737067674
   24          1.454763072700        -0.237329741565
   25         13.925457258000         0.007208352531
   26          4.232376665400        -0.075789988828
   27          1.454763072700        -0.247290948576
   28         13.925457258000         0.016440570318
   29          4.232376665400        -0.172859281692
   30          1.454763072700        -0.564012957393
   31          0.755287836900         1.340462543377
   32          0.755287836900         1.396724454747
   33          0.755287836900         3.185602606651
 P 33
    1        750.222000000000        -0.000202527659
    2        163.961000000000        -0.001596853427
    3         16.922700000000        -0.324772730413
    4         10.575500000000         1.044622586060
    5          5.704620000000         0.089314740366
    6          2.980220000000        -1.930042777023
    7          1.519700000000        -2.003942039317
    8        750.222000000000        -0.000211028153
    9        163.961000000000        -0.001663876580
   10         16.922700000000        -0.338404095807
   11         10.575500000000         1.088467499243
   12          5.704620000000         0.093063459845
   13          2.980220000000        -2.011050558328
   14          1.519700000000        -2.088051521449
   15        750.222000000000         0.000177746252
   16        163.961000000000         0.001401461471
   17         16.922700000000         0.285033341724
   18         10.575500000000        -0.916801931510
   19          5.704620000000        -0.078386134449
   20          2.980220000000         1.693881569749
   21          1.519700000000         1.758738473393
   22         13.925457258000        -0.088972407955
   23          4.232376665400         0.935472810973
   24          1.454763072700         3.052302320779
   25         13.925457258000        -0.092706759054
   26          4.232376665400         0.974736488333
   27          1.454763072700         3.180413594695
   28         13.925457258000         0.078085690040
   29          4.232376665400        -0.821007789243
   30          1.454763072700        -2.678820753623
   31          0.755287836900        -0.406263581176
   32          0.755287836900        -0.423315281650
   33          0.755287836900         0.356552922457
 end
  // -----------------------------------------------
  // The basis set
  // -----------------------------------------------
  BAS[ATNO] = new BFNGauss[NSH];
  // Basis function   1 L = s
  InitBFNGauss(BAS[ATNO][  0]);
  BAS[ATNO][  0].l  = 0;
  BAS[ATNO][  0].ng = 18;
  BAS[ATNO][  0].a[  0] =     15746.299999999999;     BAS[ATNO][  0].d[  0] =         0.000061308713;
  BAS[ATNO][  0].a[  1] =      2369.250000000000;     BAS[ATNO][  0].d[  1] =         0.000451867927;
  BAS[ATNO][  0].a[  2] =       535.860000000000;     BAS[ATNO][  0].d[  2] =         0.001886945946;
  BAS[ATNO][  0].a[  3] =       141.885000000000;     BAS[ATNO][  0].d[  3] =         0.004128120059;
  BAS[ATNO][  0].a[  4] =        27.819700000000;     BAS[ATNO][  0].d[  4] =        -0.066334892748;
  BAS[ATNO][  0].a[  5] =        17.387900000000;     BAS[ATNO][  0].d[  5] =         0.416127216816;
  BAS[ATNO][  0].a[  6] =        10.865600000000;     BAS[ATNO][  0].d[  6] =        -0.451401298716;
  BAS[ATNO][  0].a[  7] =         6.568850000000;     BAS[ATNO][  0].d[  7] =        -0.589443544139;
  BAS[ATNO][  0].a[  8] =         2.401390000000;     BAS[ATNO][  0].d[  8] =         0.780723324515;
  BAS[ATNO][  0].a[  9] =         1.286544158500;     BAS[ATNO][  0].d[  9] =         0.723804393099;
  BAS[ATNO][  0].a[ 10] =        29.383253023000;     BAS[ATNO][  0].d[ 10] =         0.006433843265;
  BAS[ATNO][  0].a[ 11] =        15.946408003000;     BAS[ATNO][  0].d[ 11] =        -0.029157055902;
  BAS[ATNO][  0].a[ 12] =         3.667990263200;     BAS[ATNO][  0].d[ 12] =         0.114363208133;
  BAS[ATNO][  0].a[ 13] =         0.635335946900;     BAS[ATNO][  0].d[ 13] =        -0.218226285178;
  BAS[ATNO][  0].a[ 14] =         0.298077862100;     BAS[ATNO][  0].d[ 14] =         0.160268719140;
  BAS[ATNO][  0].a[ 15] =         0.140612486900;     BAS[ATNO][  0].d[ 15] =        -0.095791073927;
  BAS[ATNO][  0].a[ 16] =         0.065660655900;     BAS[ATNO][  0].d[ 16] =         0.044165247036;
  BAS[ATNO][  0].a[ 17] =         0.030602910400;     BAS[ATNO][  0].d[ 17] =        -0.011832068639;

  // Basis function   2 L = p
  InitBFNGauss(BAS[ATNO][  1]);
  BAS[ATNO][  1].l  = 1;
  BAS[ATNO][  1].ng = 30;
  BAS[ATNO][  1].a[  0] =       750.222000000000;     BAS[ATNO][  1].d[  0] =         0.000041807402;
  BAS[ATNO][  1].a[  1] =       163.961000000000;     BAS[ATNO][  1].d[  1] =         0.000329635432;
  BAS[ATNO][  1].a[  2] =        16.922700000000;     BAS[ATNO][  1].d[  2] =         0.067042220266;
  BAS[ATNO][  1].a[  3] =        10.575500000000;     BAS[ATNO][  1].d[  3] =        -0.215639464004;
  BAS[ATNO][  1].a[  4] =         5.704620000000;     BAS[ATNO][  1].d[  4] =        -0.018437072869;
  BAS[ATNO][  1].a[  5] =         2.980220000000;     BAS[ATNO][  1].d[  5] =         0.398415078800;
  BAS[ATNO][  1].a[  6] =         1.519700000000;     BAS[ATNO][  1].d[  6] =         0.413669963697;
  BAS[ATNO][  1].a[  7] =       750.222000000000;     BAS[ATNO][  1].d[  7] =        -0.000040123344;
  BAS[ATNO][  1].a[  8] =       163.961000000000;     BAS[ATNO][  1].d[  8] =        -0.000316357280;
  BAS[ATNO][  1].a[  9] =        16.922700000000;     BAS[ATNO][  1].d[  9] =        -0.064341670821;
  BAS[ATNO][  1].a[ 10] =        10.575500000000;     BAS[ATNO][  1].d[ 10] =         0.206953220731;
  BAS[ATNO][  1].a[ 11] =         5.704620000000;     BAS[ATNO][  1].d[ 11] =         0.017694403150;
  BAS[ATNO][  1].a[ 12] =         2.980220000000;     BAS[ATNO][  1].d[ 12] =        -0.382366391636;
  BAS[ATNO][  1].a[ 13] =         1.519700000000;     BAS[ATNO][  1].d[ 13] =        -0.397006789561;
  BAS[ATNO][  1].a[ 14] =        13.925457258000;     BAS[ATNO][  1].d[ 14] =        -0.001898569259;
  BAS[ATNO][  1].a[ 15] =         4.232376665400;     BAS[ATNO][  1].d[ 15] =         0.019961918113;
  BAS[ATNO][  1].a[ 16] =         1.454763072700;     BAS[ATNO][  1].d[ 16] =         0.065132634824;
  BAS[ATNO][  1].a[ 17] =        13.925457258000;     BAS[ATNO][  1].d[ 17] =         0.001822092375;
  BAS[ATNO][  1].a[ 18] =         4.232376665400;     BAS[ATNO][  1].d[ 18] =        -0.019157825608;
  BAS[ATNO][  1].a[ 19] =         1.454763072700;     BAS[ATNO][  1].d[ 19] =        -0.062509006010;
  BAS[ATNO][  1].a[ 20] =         0.755287836900;     BAS[ATNO][  1].d[ 20] =        -0.105940925027;
  BAS[ATNO][  1].a[ 21] =         0.755287836900;     BAS[ATNO][  1].d[ 21] =         0.101673484225;
  BAS[ATNO][  1].a[ 22] =         0.318294511700;     BAS[ATNO][  1].d[ 22] =         0.078673612642;
  BAS[ATNO][  1].a[ 23] =         0.318294511700;     BAS[ATNO][  1].d[ 23] =        -0.075504535304;
  BAS[ATNO][  1].a[ 24] =         0.137218309200;     BAS[ATNO][  1].d[ 24] =        -0.043726718506;
  BAS[ATNO][  1].a[ 25] =         0.137218309200;     BAS[ATNO][  1].d[ 25] =         0.041965348359;
  BAS[ATNO][  1].a[ 26] =         0.057099171500;     BAS[ATNO][  1].d[ 26] =         0.017907187550;
  BAS[ATNO][  1].a[ 27] =         0.057099171500;     BAS[ATNO][  1].d[ 27] =        -0.017185862313;
  BAS[ATNO][  1].a[ 28] =         0.018390619900;     BAS[ATNO][  1].d[ 28] =        -0.004415070533;
  BAS[ATNO][  1].a[ 29] =         0.018390619900;     BAS[ATNO][  1].d[ 29] =         0.004237225643;

  // Basis function   3 L = s
  InitBFNGauss(BAS[ATNO][  2]);
  BAS[ATNO][  2].l  = 0;
  BAS[ATNO][  2].ng = 18;
  BAS[ATNO][  2].a[  0] =     15746.299999999999;     BAS[ATNO][  2].d[  0] =        -0.000044078852;
  BAS[ATNO][  2].a[  1] =      2369.250000000000;     BAS[ATNO][  2].d[  1] =        -0.000324877467;
  BAS[ATNO][  2].a[  2] =       535.860000000000;     BAS[ATNO][  2].d[  2] =        -0.001356649104;
  BAS[ATNO][  2].a[  3] =       141.885000000000;     BAS[ATNO][  2].d[  3] =        -0.002967976052;
  BAS[ATNO][  2].a[  4] =        27.819700000000;     BAS[ATNO][  2].d[  4] =         0.047692501738;
  BAS[ATNO][  2].a[  5] =        17.387900000000;     BAS[ATNO][  2].d[  5] =        -0.299181127591;
  BAS[ATNO][  2].a[  6] =        10.865600000000;     BAS[ATNO][  2].d[  6] =         0.324541976801;
  BAS[ATNO][  2].a[  7] =         6.568850000000;     BAS[ATNO][  2].d[  7] =         0.423789593808;
  BAS[ATNO][  2].a[  8] =         2.401390000000;     BAS[ATNO][  2].d[  8] =        -0.561313163682;
  BAS[ATNO][  2].a[  9] =         1.286544158500;     BAS[ATNO][  2].d[  9] =        -1.433481516531;
  BAS[ATNO][  2].a[ 10] =        29.383253023000;     BAS[ATNO][  2].d[ 10] =        -0.016237708055;
  BAS[ATNO][  2].a[ 11] =        15.946408003000;     BAS[ATNO][  2].d[ 11] =         0.073586461769;
  BAS[ATNO][  2].a[ 12] =         3.667990263200;     BAS[ATNO][  2].d[ 12] =        -0.288629410024;
  BAS[ATNO][  2].a[ 13] =         0.635335946900;     BAS[ATNO][  2].d[ 13] =         2.007802596520;
  BAS[ATNO][  2].a[ 14] =         0.298077862100;     BAS[ATNO][  2].d[ 14] =        -0.016532194571;
  BAS[ATNO][  2].a[ 15] =         0.140612486900;     BAS[ATNO][  2].d[ 15] =         0.253999477570;
  BAS[ATNO][  2].a[ 16] =         0.065660655900;     BAS[ATNO][  2].d[ 16] =        -0.122442834020;
  BAS[ATNO][  2].a[ 17] =         0.030602910400;     BAS[ATNO][  2].d[ 17] =         0.034190304425;

  // Basis function   4 L = p
  InitBFNGauss(BAS[ATNO][  3]);
  BAS[ATNO][  3].l  = 1;
  BAS[ATNO][  3].ng = 30;
  BAS[ATNO][  3].a[  0] =       750.222000000000;     BAS[ATNO][  3].d[  0] =        -0.000026446370;
  BAS[ATNO][  3].a[  1] =       163.961000000000;     BAS[ATNO][  3].d[  1] =        -0.000208519549;
  BAS[ATNO][  3].a[  2] =        16.922700000000;     BAS[ATNO][  3].d[  2] =        -0.042409317066;
  BAS[ATNO][  3].a[  3] =        10.575500000000;     BAS[ATNO][  3].d[  3] =         0.136408405996;
  BAS[ATNO][  3].a[  4] =         5.704620000000;     BAS[ATNO][  3].d[  4] =         0.011662854631;
  BAS[ATNO][  3].a[  5] =         2.980220000000;     BAS[ATNO][  3].d[  5] =        -0.252027921119;
  BAS[ATNO][  3].a[  6] =         1.519700000000;     BAS[ATNO][  3].d[  6] =        -0.261677799178;
  BAS[ATNO][  3].a[  7] =       750.222000000000;     BAS[ATNO][  3].d[  7] =         0.000025381075;
  BAS[ATNO][  3].a[  8] =       163.961000000000;     BAS[ATNO][  3].d[  8] =         0.000200120105;
  BAS[ATNO][  3].a[  9] =        16.922700000000;     BAS[ATNO][  3].d[  9] =         0.040701013592;
  BAS[ATNO][  3].a[ 10] =        10.575500000000;     BAS[ATNO][  3].d[ 10] =        -0.130913694692;
  BAS[ATNO][  3].a[ 11] =         5.704620000000;     BAS[ATNO][  3].d[ 11] =        -0.011193059396;
  BAS[ATNO][  3].a[ 12] =         2.980220000000;     BAS[ATNO][  3].d[ 12] =         0.241875902576;
  BAS[ATNO][  3].a[ 13] =         1.519700000000;     BAS[ATNO][  3].d[ 13] =         0.251137070764;
  BAS[ATNO][  3].a[ 14] =        13.925457258000;     BAS[ATNO][  3].d[ 14] =         0.007939042917;
  BAS[ATNO][  3].a[ 15] =         4.232376665400;     BAS[ATNO][  3].d[ 15] =        -0.083472606452;
  BAS[ATNO][  3].a[ 16] =         1.454763072700;     BAS[ATNO][  3].d[ 16] =        -0.272358135272;
  BAS[ATNO][  3].a[ 17] =        13.925457258000;     BAS[ATNO][  3].d[ 17] =        -0.007619247751;
  BAS[ATNO][  3].a[ 18] =         4.232376665400;     BAS[ATNO][  3].d[ 18] =         0.080110219282;
  BAS[ATNO][  3].a[ 19] =         1.454763072700;     BAS[ATNO][  3].d[ 19] =         0.261387188770;
  BAS[ATNO][  3].a[ 20] =         0.755287836900;     BAS[ATNO][  3].d[ 20] =         0.863614226683;
  BAS[ATNO][  3].a[ 21] =         0.755287836900;     BAS[ATNO][  3].d[ 21] =        -0.828826701540;
  BAS[ATNO][  3].a[ 22] =         0.318294511700;     BAS[ATNO][  3].d[ 22] =         0.232284149487;
  BAS[ATNO][  3].a[ 23] =         0.318294511700;     BAS[ATNO][  3].d[ 23] =        -0.222927436222;
  BAS[ATNO][  3].a[ 24] =         0.137218309200;     BAS[ATNO][  3].d[ 24] =         0.049920343323;
  BAS[ATNO][  3].a[ 25] =         0.137218309200;     BAS[ATNO][  3].d[ 25] =        -0.047909485761;
  BAS[ATNO][  3].a[ 26] =         0.057099171500;     BAS[ATNO][  3].d[ 26] =        -0.016674553701;
  BAS[ATNO][  3].a[ 27] =         0.057099171500;     BAS[ATNO][  3].d[ 27] =         0.016002880588;
  BAS[ATNO][  3].a[ 28] =         0.018390619900;     BAS[ATNO][  3].d[ 28] =         0.004571914695;
  BAS[ATNO][  3].a[ 29] =         0.018390619900;     BAS[ATNO][  3].d[ 29] =        -0.004387751914;

  // Basis function   5 L = s
  InitBFNGauss(BAS[ATNO][  4]);
  BAS[ATNO][  4].l  = 0;
  BAS[ATNO][  4].ng = 18;
  BAS[ATNO][  4].a[  0] =     15746.299999999999;     BAS[ATNO][  4].d[  0] =         0.000008077802;
  BAS[ATNO][  4].a[  1] =      2369.250000000000;     BAS[ATNO][  4].d[  1] =         0.000059536392;
  BAS[ATNO][  4].a[  2] =       535.860000000000;     BAS[ATNO][  4].d[  2] =         0.000248616789;
  BAS[ATNO][  4].a[  3] =       141.885000000000;     BAS[ATNO][  4].d[  3] =         0.000543905328;
  BAS[ATNO][  4].a[  4] =        27.819700000000;     BAS[ATNO][  4].d[  4] =        -0.008740032042;
  BAS[ATNO][  4].a[  5] =        17.387900000000;     BAS[ATNO][  4].d[  5] =         0.054827332311;
  BAS[ATNO][  4].a[  6] =        10.865600000000;     BAS[ATNO][  4].d[  6] =        -0.059474910581;
  BAS[ATNO][  4].a[  7] =         6.568850000000;     BAS[ATNO][  4].d[  7] =        -0.077662829460;
  BAS[ATNO][  4].a[  8] =         2.401390000000;     BAS[ATNO][  4].d[  8] =         0.102865122555;
  BAS[ATNO][  4].a[  9] =         1.286544158500;     BAS[ATNO][  4].d[  9] =         0.451325886881;
  BAS[ATNO][  4].a[ 10] =        29.383253023000;     BAS[ATNO][  4].d[ 10] =         0.003186117643;
  BAS[ATNO][  4].a[ 11] =        15.946408003000;     BAS[ATNO][  4].d[ 11] =        -0.014438929640;
  BAS[ATNO][  4].a[ 12] =         3.667990263200;     BAS[ATNO][  4].d[ 12] =         0.056634055274;
  BAS[ATNO][  4].a[ 13] =         0.635335946900;     BAS[ATNO][  4].d[ 13] =        -1.009461038794;
  BAS[ATNO][  4].a[ 14] =         0.298077862100;     BAS[ATNO][  4].d[ 14] =         0.530879716108;
  BAS[ATNO][  4].a[ 15] =         0.140612486900;     BAS[ATNO][  4].d[ 15] =        -0.742764214750;
  BAS[ATNO][  4].a[ 16] =         0.065660655900;     BAS[ATNO][  4].d[ 16] =         2.846487046771;
  BAS[ATNO][  4].a[ 17] =         0.030602910400;     BAS[ATNO][  4].d[ 17] =        -2.651179738676;

  // Basis function   6 L = s
  InitBFNGauss(BAS[ATNO][  5]);
  BAS[ATNO][  5].l  = 0;
  BAS[ATNO][  5].ng = 18;
  BAS[ATNO][  5].a[  0] =     15746.299999999999;     BAS[ATNO][  5].d[  0] =         0.000014924005;
  BAS[ATNO][  5].a[  1] =      2369.250000000000;     BAS[ATNO][  5].d[  1] =         0.000109995443;
  BAS[ATNO][  5].a[  2] =       535.860000000000;     BAS[ATNO][  5].d[  2] =         0.000459327700;
  BAS[ATNO][  5].a[  3] =       141.885000000000;     BAS[ATNO][  5].d[  3] =         0.001004882993;
  BAS[ATNO][  5].a[  4] =        27.819700000000;     BAS[ATNO][  5].d[  4] =        -0.016147496831;
  BAS[ATNO][  5].a[  5] =        17.387900000000;     BAS[ATNO][  5].d[  5] =         0.101295300807;
  BAS[ATNO][  5].a[  6] =        10.865600000000;     BAS[ATNO][  5].d[  6] =        -0.109881854612;
  BAS[ATNO][  5].a[  7] =         6.568850000000;     BAS[ATNO][  5].d[  7] =        -0.143484633303;
  BAS[ATNO][  5].a[  8] =         2.401390000000;     BAS[ATNO][  5].d[  8] =         0.190046699201;
  BAS[ATNO][  5].a[  9] =         1.286544158500;     BAS[ATNO][  5].d[  9] =         0.469763245347;
  BAS[ATNO][  5].a[ 10] =        29.383253023000;     BAS[ATNO][  5].d[ 10] =         0.009413547924;
  BAS[ATNO][  5].a[ 11] =        15.946408003000;     BAS[ATNO][  5].d[ 11] =        -0.042660557888;
  BAS[ATNO][  5].a[ 12] =         3.667990263200;     BAS[ATNO][  5].d[ 12] =         0.167328219870;
  BAS[ATNO][  5].a[ 13] =         0.635335946900;     BAS[ATNO][  5].d[ 13] =        -0.451198008376;
  BAS[ATNO][  5].a[ 14] =         0.298077862100;     BAS[ATNO][  5].d[ 14] =        -3.377436347557;
  BAS[ATNO][  5].a[ 15] =         0.140612486900;     BAS[ATNO][  5].d[ 15] =         8.377853312908;
  BAS[ATNO][  5].a[ 16] =         0.065660655900;     BAS[ATNO][  5].d[ 16] =        -8.051251245789;
  BAS[ATNO][  5].a[ 17] =         0.030602910400;     BAS[ATNO][  5].d[ 17] =         2.991301962415;

  // Basis function   7 L = s
  InitBFNGauss(BAS[ATNO][  6]);
  BAS[ATNO][  6].l  = 0;
  BAS[ATNO][  6].ng = 18;
  BAS[ATNO][  6].a[  0] =     15746.299999999999;     BAS[ATNO][  6].d[  0] =         0.000038272390;
  BAS[ATNO][  6].a[  1] =      2369.250000000000;     BAS[ATNO][  6].d[  1] =         0.000282081693;
  BAS[ATNO][  6].a[  2] =       535.860000000000;     BAS[ATNO][  6].d[  2] =         0.001177939115;
  BAS[ATNO][  6].a[  3] =       141.885000000000;     BAS[ATNO][  6].d[  3] =         0.002577007624;
  BAS[ATNO][  6].a[  4] =        27.819700000000;     BAS[ATNO][  6].d[  4] =        -0.041410017605;
  BAS[ATNO][  6].a[  5] =        17.387900000000;     BAS[ATNO][  6].d[  5] =         0.259770305798;
  BAS[ATNO][  6].a[  6] =        10.865600000000;     BAS[ATNO][  6].d[  6] =        -0.281790396462;
  BAS[ATNO][  6].a[  7] =         6.568850000000;     BAS[ATNO][  6].d[  7] =        -0.367964227102;
  BAS[ATNO][  6].a[  8] =         2.401390000000;     BAS[ATNO][  6].d[  8] =         0.487371958760;
  BAS[ATNO][  6].a[  9] =         1.286544158500;     BAS[ATNO][  6].d[  9] =         3.530713902740;
  BAS[ATNO][  6].a[ 10] =        29.383253023000;     BAS[ATNO][  6].d[ 10] =         0.009189730574;
  BAS[ATNO][  6].a[ 11] =        15.946408003000;     BAS[ATNO][  6].d[ 11] =        -0.041646256682;
  BAS[ATNO][  6].a[ 12] =         3.667990263200;     BAS[ATNO][  6].d[ 12] =         0.163349809285;
  BAS[ATNO][  6].a[ 13] =         0.635335946900;     BAS[ATNO][  6].d[ 13] =       -10.812759028223;
  BAS[ATNO][  6].a[ 14] =         0.298077862100;     BAS[ATNO][  6].d[ 14] =        14.675317871549;
  BAS[ATNO][  6].a[ 15] =         0.140612486900;     BAS[ATNO][  6].d[ 15] =       -12.107712027360;
  BAS[ATNO][  6].a[ 16] =         0.065660655900;     BAS[ATNO][  6].d[ 16] =         6.209717824093;
  BAS[ATNO][  6].a[ 17] =         0.030602910400;     BAS[ATNO][  6].d[ 17] =        -1.654404303841;

  // Basis function   8 L = s
  InitBFNGauss(BAS[ATNO][  7]);
  BAS[ATNO][  7].l  = 0;
  BAS[ATNO][  7].ng = 18;
  BAS[ATNO][  7].a[  0] =     15746.299999999999;     BAS[ATNO][  7].d[  0] =         0.000055262065;
  BAS[ATNO][  7].a[  1] =      2369.250000000000;     BAS[ATNO][  7].d[  1] =         0.000407301889;
  BAS[ATNO][  7].a[  2] =       535.860000000000;     BAS[ATNO][  7].d[  2] =         0.001700843548;
  BAS[ATNO][  7].a[  3] =       141.885000000000;     BAS[ATNO][  7].d[  3] =         0.003720979068;
  BAS[ATNO][  7].a[  4] =        27.819700000000;     BAS[ATNO][  7].d[  4] =        -0.059792531187;
  BAS[ATNO][  7].a[  5] =        17.387900000000;     BAS[ATNO][  7].d[  5] =         0.375086150866;
  BAS[ATNO][  7].a[  6] =        10.865600000000;     BAS[ATNO][  7].d[  6] =        -0.406881282428;
  BAS[ATNO][  7].a[  7] =         6.568850000000;     BAS[ATNO][  7].d[  7] =        -0.531308939165;
  BAS[ATNO][  7].a[  8] =         2.401390000000;     BAS[ATNO][  7].d[  8] =         0.703723512546;
  BAS[ATNO][  7].a[  9] =         1.286544158500;     BAS[ATNO][  7].d[  9] =       -10.115719023351;
  BAS[ATNO][  7].a[ 10] =        29.383253023000;     BAS[ATNO][  7].d[ 10] =         0.265922101228;
  BAS[ATNO][  7].a[ 11] =        15.946408003000;     BAS[ATNO][  7].d[ 11] =        -1.205112597780;
  BAS[ATNO][  7].a[ 12] =         3.667990263200;     BAS[ATNO][  7].d[ 12] =         4.726833302576;
  BAS[ATNO][  7].a[ 13] =         0.635335946900;     BAS[ATNO][  7].d[ 13] =        11.837724393626;
  BAS[ATNO][  7].a[ 14] =         0.298077862100;     BAS[ATNO][  7].d[ 14] =        -8.970454447147;
  BAS[ATNO][  7].a[ 15] =         0.140612486900;     BAS[ATNO][  7].d[ 15] =         5.438173068452;
  BAS[ATNO][  7].a[ 16] =         0.065660655900;     BAS[ATNO][  7].d[ 16] =        -2.479462417744;
  BAS[ATNO][  7].a[ 17] =         0.030602910400;     BAS[ATNO][  7].d[ 17] =         0.652592247075;

  // Basis function   9 L = p
  InitBFNGauss(BAS[ATNO][  8]);
  BAS[ATNO][  8].l  = 1;
  BAS[ATNO][  8].ng = 30;
  BAS[ATNO][  8].a[  0] =       750.222000000000;     BAS[ATNO][  8].d[  0] =        -0.000246934510;
  BAS[ATNO][  8].a[  1] =       163.961000000000;     BAS[ATNO][  8].d[  1] =        -0.001946984527;
  BAS[ATNO][  8].a[  2] =        16.922700000000;     BAS[ATNO][  8].d[  2] =        -0.395983419770;
  BAS[ATNO][  8].a[  3] =        10.575500000000;     BAS[ATNO][  8].d[  3] =         1.273669816646;
  BAS[ATNO][  8].a[  4] =         5.704620000000;     BAS[ATNO][  8].d[  4] =         0.108898170979;
  BAS[ATNO][  8].a[  5] =         2.980220000000;     BAS[ATNO][  8].d[  5] =        -2.353230020807;
  BAS[ATNO][  8].a[  6] =         1.519700000000;     BAS[ATNO][  8].d[  6] =        -2.443332667555;
  BAS[ATNO][  8].a[  7] =       750.222000000000;     BAS[ATNO][  8].d[  7] =         0.000236987661;
  BAS[ATNO][  8].a[  8] =       163.961000000000;     BAS[ATNO][  8].d[  8] =         0.001868557409;
  BAS[ATNO][  8].a[  9] =        16.922700000000;     BAS[ATNO][  8].d[  9] =         0.380032682617;
  BAS[ATNO][  8].a[ 10] =        10.575500000000;     BAS[ATNO][  8].d[ 10] =        -1.222364707768;
  BAS[ATNO][  8].a[ 11] =         5.704620000000;     BAS[ATNO][  8].d[ 11] =        -0.104511608272;
  BAS[ATNO][  8].a[ 12] =         2.980220000000;     BAS[ATNO][  8].d[ 12] =         2.258438795597;
  BAS[ATNO][  8].a[ 13] =         1.519700000000;     BAS[ATNO][  8].d[ 13] =         2.344911988273;
  BAS[ATNO][  8].a[ 14] =        13.925457258000;     BAS[ATNO][  8].d[ 14] =        -0.108483961752;
  BAS[ATNO][  8].a[ 15] =         4.232376665400;     BAS[ATNO][  8].d[ 15] =         1.140620996761;
  BAS[ATNO][  8].a[ 16] =         1.454763072700;     BAS[ATNO][  8].d[ 16] =         3.721668951473;
  BAS[ATNO][  8].a[ 17] =        13.925457258000;     BAS[ATNO][  8].d[ 17] =         0.104114083942;
  BAS[ATNO][  8].a[ 18] =         4.232376665400;     BAS[ATNO][  8].d[ 18] =        -1.094675270747;
  BAS[ATNO][  8].a[ 19] =         1.454763072700;     BAS[ATNO][  8].d[ 19] =        -3.571755191824;
  BAS[ATNO][  8].a[ 20] =         0.755287836900;     BAS[ATNO][  8].d[ 20] =        -0.495542106509;
  BAS[ATNO][  8].a[ 21] =         0.755287836900;     BAS[ATNO][  8].d[ 21] =         0.475581013456;
  BAS[ATNO][  8].a[ 22] =         0.318294511700;     BAS[ATNO][  8].d[ 22] =         0.027558463459;
  BAS[ATNO][  8].a[ 23] =         0.318294511700;     BAS[ATNO][  8].d[ 23] =        -0.026448372014;
  BAS[ATNO][  8].a[ 24] =         0.137218309200;     BAS[ATNO][  8].d[ 24] =         0.029827489168;
  BAS[ATNO][  8].a[ 25] =         0.137218309200;     BAS[ATNO][  8].d[ 25] =        -0.028625998358;
  BAS[ATNO][  8].a[ 26] =         0.057099171500;     BAS[ATNO][  8].d[ 26] =        -0.018803592237;
  BAS[ATNO][  8].a[ 27] =         0.057099171500;     BAS[ATNO][  8].d[ 27] =         0.018046158611;
  BAS[ATNO][  8].a[ 28] =         0.018390619900;     BAS[ATNO][  8].d[ 28] =         0.005233573729;
  BAS[ATNO][  8].a[ 29] =         0.018390619900;     BAS[ATNO][  8].d[ 29] =        -0.005022758440;

  // Basis function  10 L = p
  InitBFNGauss(BAS[ATNO][  9]);
  BAS[ATNO][  9].l  = 1;
  BAS[ATNO][  9].ng = 30;
  BAS[ATNO][  9].a[  0] =       750.222000000000;     BAS[ATNO][  9].d[  0] =         0.000012056363;
  BAS[ATNO][  9].a[  1] =       163.961000000000;     BAS[ATNO][  9].d[  1] =         0.000095059828;
  BAS[ATNO][  9].a[  2] =        16.922700000000;     BAS[ATNO][  9].d[  2] =         0.019333546453;
  BAS[ATNO][  9].a[  3] =        10.575500000000;     BAS[ATNO][  9].d[  3] =        -0.062185822274;
  BAS[ATNO][  9].a[  4] =         5.704620000000;     BAS[ATNO][  9].d[  4] =        -0.005316858591;
  BAS[ATNO][  9].a[  5] =         2.980220000000;     BAS[ATNO][  9].d[  5] =         0.114894411355;
  BAS[ATNO][  9].a[  6] =         1.519700000000;     BAS[ATNO][  9].d[  6] =         0.119293594804;
  BAS[ATNO][  9].a[  7] =       750.222000000000;     BAS[ATNO][  9].d[  7] =        -0.000011570717;
  BAS[ATNO][  9].a[  8] =       163.961000000000;     BAS[ATNO][  9].d[  8] =        -0.000091230692;
  BAS[ATNO][  9].a[  9] =        16.922700000000;     BAS[ATNO][  9].d[  9] =        -0.018554765589;
  BAS[ATNO][  9].a[ 10] =        10.575500000000;     BAS[ATNO][  9].d[ 10] =         0.059680894971;
  BAS[ATNO][  9].a[ 11] =         5.704620000000;     BAS[ATNO][  9].d[ 11] =         0.005102688483;
  BAS[ATNO][  9].a[ 12] =         2.980220000000;     BAS[ATNO][  9].d[ 12] =        -0.110266312257;
  BAS[ATNO][  9].a[ 13] =         1.519700000000;     BAS[ATNO][  9].d[ 13] =        -0.114488290769;
  BAS[ATNO][  9].a[ 14] =        13.925457258000;     BAS[ATNO][  9].d[ 14] =        -0.004613605689;
  BAS[ATNO][  9].a[ 15] =         4.232376665400;     BAS[ATNO][  9].d[ 15] =         0.048508327264;
  BAS[ATNO][  9].a[ 16] =         1.454763072700;     BAS[ATNO][  9].d[ 16] =         0.158275129055;
  BAS[ATNO][  9].a[ 17] =        13.925457258000;     BAS[ATNO][  9].d[ 17] =         0.004427763540;
  BAS[ATNO][  9].a[ 18] =         4.232376665400;     BAS[ATNO][  9].d[ 18] =        -0.046554347579;
  BAS[ATNO][  9].a[ 19] =         1.454763072700;     BAS[ATNO][  9].d[ 19] =        -0.151899597178;
  BAS[ATNO][  9].a[ 20] =         0.755287836900;     BAS[ATNO][  9].d[ 20] =        -0.600388953011;
  BAS[ATNO][  9].a[ 21] =         0.755287836900;     BAS[ATNO][  9].d[ 21] =         0.576204490605;
  BAS[ATNO][  9].a[ 22] =         0.318294511700;     BAS[ATNO][  9].d[ 22] =        -0.155748501286;
  BAS[ATNO][  9].a[ 23] =         0.318294511700;     BAS[ATNO][  9].d[ 23] =         0.149474745323;
  BAS[ATNO][  9].a[ 24] =         0.137218309200;     BAS[ATNO][  9].d[ 24] =         0.626859122485;
  BAS[ATNO][  9].a[ 25] =         0.137218309200;     BAS[ATNO][  9].d[ 25] =        -0.601608406587;
  BAS[ATNO][  9].a[ 26] =         0.057099171500;     BAS[ATNO][  9].d[ 26] =         0.278344398460;
  BAS[ATNO][  9].a[ 27] =         0.057099171500;     BAS[ATNO][  9].d[ 27] =        -0.267132317347;
  BAS[ATNO][  9].a[ 28] =         0.018390619900;     BAS[ATNO][  9].d[ 28] =        -0.004755120063;
  BAS[ATNO][  9].a[ 29] =         0.018390619900;     BAS[ATNO][  9].d[ 29] =         0.004563577527;

  // Basis function  11 L = p
  InitBFNGauss(BAS[ATNO][ 10]);
  BAS[ATNO][ 10].l  = 1;
  BAS[ATNO][ 10].ng = 30;
  BAS[ATNO][ 10].a[  0] =       750.222000000000;     BAS[ATNO][ 10].d[  0] =        -0.000003211078;
  BAS[ATNO][ 10].a[  1] =       163.961000000000;     BAS[ATNO][ 10].d[  1] =        -0.000025318129;
  BAS[ATNO][ 10].a[  2] =        16.922700000000;     BAS[ATNO][ 10].d[  2] =        -0.005149275250;
  BAS[ATNO][ 10].a[  3] =        10.575500000000;     BAS[ATNO][ 10].d[  3] =         0.016562502710;
  BAS[ATNO][ 10].a[  4] =         5.704620000000;     BAS[ATNO][ 10].d[  4] =         0.001416086201;
  BAS[ATNO][ 10].a[  5] =         2.980220000000;     BAS[ATNO][ 10].d[  5] =        -0.030600849676;
  BAS[ATNO][ 10].a[  6] =         1.519700000000;     BAS[ATNO][ 10].d[  6] =        -0.031772523301;
  BAS[ATNO][ 10].a[  7] =       750.222000000000;     BAS[ATNO][ 10].d[  7] =         0.000003081732;
  BAS[ATNO][ 10].a[  8] =       163.961000000000;     BAS[ATNO][ 10].d[  8] =         0.000024298281;
  BAS[ATNO][ 10].a[  9] =        16.922700000000;     BAS[ATNO][ 10].d[  9] =         0.004941855621;
  BAS[ATNO][ 10].a[ 10] =        10.575500000000;     BAS[ATNO][ 10].d[ 10] =        -0.015895343159;
  BAS[ATNO][ 10].a[ 11] =         5.704620000000;     BAS[ATNO][ 10].d[ 11] =        -0.001359044373;
  BAS[ATNO][ 10].a[ 12] =         2.980220000000;     BAS[ATNO][ 10].d[ 12] =         0.029368206912;
  BAS[ATNO][ 10].a[ 13] =         1.519700000000;     BAS[ATNO][ 10].d[ 13] =         0.030492683971;
  BAS[ATNO][ 10].a[ 14] =        13.925457258000;     BAS[ATNO][ 10].d[ 14] =         0.001293665088;
  BAS[ATNO][ 10].a[ 15] =         4.232376665400;     BAS[ATNO][ 10].d[ 15] =        -0.013601840660;
  BAS[ATNO][ 10].a[ 16] =         1.454763072700;     BAS[ATNO][ 10].d[ 16] =        -0.044380691055;
  BAS[ATNO][ 10].a[ 17] =        13.925457258000;     BAS[ATNO][ 10].d[ 17] =        -0.001241554544;
  BAS[ATNO][ 10].a[ 18] =         4.232376665400;     BAS[ATNO][ 10].d[ 18] =         0.013053940499;
  BAS[ATNO][ 10].a[ 19] =         1.454763072700;     BAS[ATNO][ 10].d[ 19] =         0.042592978026;
  BAS[ATNO][ 10].a[ 20] =         0.755287836900;     BAS[ATNO][ 10].d[ 20] =         0.182254581476;
  BAS[ATNO][ 10].a[ 21] =         0.755287836900;     BAS[ATNO][ 10].d[ 21] =        -0.174913125489;
  BAS[ATNO][ 10].a[ 22] =         0.318294511700;     BAS[ATNO][ 10].d[ 22] =        -0.010480919679;
  BAS[ATNO][ 10].a[ 23] =         0.318294511700;     BAS[ATNO][ 10].d[ 23] =         0.010058734350;
  BAS[ATNO][ 10].a[ 24] =         0.137218309200;     BAS[ATNO][ 10].d[ 24] =        -0.082388573906;
  BAS[ATNO][ 10].a[ 25] =         0.137218309200;     BAS[ATNO][ 10].d[ 25] =         0.079069853003;
  BAS[ATNO][ 10].a[ 26] =         0.057099171500;     BAS[ATNO][ 10].d[ 26] =        -0.436403588035;
  BAS[ATNO][ 10].a[ 27] =         0.057099171500;     BAS[ATNO][ 10].d[ 27] =         0.418824673375;
  BAS[ATNO][ 10].a[ 28] =         0.018390619900;     BAS[ATNO][ 10].d[ 28] =         0.939860490958;
  BAS[ATNO][ 10].a[ 29] =         0.018390619900;     BAS[ATNO][ 10].d[ 29] =        -0.902001665284;

  // Basis function  12 L = p
  InitBFNGauss(BAS[ATNO][ 11]);
  BAS[ATNO][ 11].l  = 1;
  BAS[ATNO][ 11].ng = 33;
  BAS[ATNO][ 11].a[  0] =       750.222000000000;     BAS[ATNO][ 11].d[  0] =        -0.000006691687;
  BAS[ATNO][ 11].a[  1] =       163.961000000000;     BAS[ATNO][ 11].d[  1] =        -0.000052761399;
  BAS[ATNO][ 11].a[  2] =        16.922700000000;     BAS[ATNO][ 11].d[  2] =        -0.010730767902;
  BAS[ATNO][ 11].a[  3] =        10.575500000000;     BAS[ATNO][ 11].d[  3] =         0.034515220851;
  BAS[ATNO][ 11].a[  4] =         5.704620000000;     BAS[ATNO][ 11].d[  4] =         0.002951035168;
  BAS[ATNO][ 11].a[  5] =         2.980220000000;     BAS[ATNO][ 11].d[  5] =        -0.063770258837;
  BAS[ATNO][ 11].a[  6] =         1.519700000000;     BAS[ATNO][ 11].d[  6] =        -0.066211953467;
  BAS[ATNO][ 11].a[  7] =       750.222000000000;     BAS[ATNO][ 11].d[  7] =        -0.000006972550;
  BAS[ATNO][ 11].a[  8] =       163.961000000000;     BAS[ATNO][ 11].d[  8] =        -0.000054975901;
  BAS[ATNO][ 11].a[  9] =        16.922700000000;     BAS[ATNO][ 11].d[  9] =        -0.011181159833;
  BAS[ATNO][ 11].a[ 10] =        10.575500000000;     BAS[ATNO][ 11].d[ 10] =         0.035963894151;
  BAS[ATNO][ 11].a[ 11] =         5.704620000000;     BAS[ATNO][ 11].d[ 11] =         0.003074896055;
  BAS[ATNO][ 11].a[ 12] =         2.980220000000;     BAS[ATNO][ 11].d[ 12] =        -0.066446824975;
  BAS[ATNO][ 11].a[ 13] =         1.519700000000;     BAS[ATNO][ 11].d[ 13] =        -0.068991002443;
  BAS[ATNO][ 11].a[ 14] =       750.222000000000;     BAS[ATNO][ 11].d[ 14] =         0.000005872888;
  BAS[ATNO][ 11].a[ 15] =       163.961000000000;     BAS[ATNO][ 11].d[ 15] =         0.000046305482;
  BAS[ATNO][ 11].a[ 16] =        16.922700000000;     BAS[ATNO][ 11].d[ 16] =         0.009417744599;
  BAS[ATNO][ 11].a[ 17] =        10.575500000000;     BAS[ATNO][ 11].d[ 17] =        -0.030291917382;
  BAS[ATNO][ 11].a[ 18] =         5.704620000000;     BAS[ATNO][ 11].d[ 18] =        -0.002589944706;
  BAS[ATNO][ 11].a[ 19] =         2.980220000000;     BAS[ATNO][ 11].d[ 19] =         0.055967291083;
  BAS[ATNO][ 11].a[ 20] =         1.519700000000;     BAS[ATNO][ 11].d[ 20] =         0.058110218469;
  BAS[ATNO][ 11].a[ 21] =        13.925457258000;     BAS[ATNO][ 11].d[ 21] =         0.002565157443;
  BAS[ATNO][ 11].a[ 22] =         4.232376665400;     BAS[ATNO][ 11].d[ 22] =        -0.026970552997;
  BAS[ATNO][ 11].a[ 23] =         1.454763072700;     BAS[ATNO][ 11].d[ 23] =        -0.088000720642;
  BAS[ATNO][ 11].a[ 24] =        13.925457258000;     BAS[ATNO][ 11].d[ 24] =         0.002672822265;
  BAS[ATNO][ 11].a[ 25] =         4.232376665400;     BAS[ATNO][ 11].d[ 25] =        -0.028102561400;
  BAS[ATNO][ 11].a[ 26] =         1.454763072700;     BAS[ATNO][ 11].d[ 26] =        -0.091694288039;
  BAS[ATNO][ 11].a[ 27] =        13.925457258000;     BAS[ATNO][ 11].d[ 27] =        -0.002251283214;
  BAS[ATNO][ 11].a[ 28] =         4.232376665400;     BAS[ATNO][ 11].d[ 28] =         0.023670419688;
  BAS[ATNO][ 11].a[ 29] =         1.454763072700;     BAS[ATNO][ 11].d[ 29] =         0.077232898808;
  BAS[ATNO][ 11].a[ 30] =         0.755287836900;     BAS[ATNO][ 11].d[ 30] =         0.289184384419;
  BAS[ATNO][ 11].a[ 31] =         0.755287836900;     BAS[ATNO][ 11].d[ 31] =         0.301322035182;
  BAS[ATNO][ 11].a[ 32] =         0.755287836900;     BAS[ATNO][ 11].d[ 32] =        -0.253799606820;

  // Basis function  13 L = p
  InitBFNGauss(BAS[ATNO][ 12]);
  BAS[ATNO][ 12].l  = 1;
  BAS[ATNO][ 12].ng = 33;
  BAS[ATNO][ 12].a[  0] =       750.222000000000;     BAS[ATNO][ 12].d[  0] =        -0.000013768669;
  BAS[ATNO][ 12].a[  1] =       163.961000000000;     BAS[ATNO][ 12].d[  1] =        -0.000108560710;
  BAS[ATNO][ 12].a[  2] =        16.922700000000;     BAS[ATNO][ 12].d[  2] =        -0.022079395428;
  BAS[ATNO][ 12].a[  3] =        10.575500000000;     BAS[ATNO][ 12].d[  3] =         0.071017770247;
  BAS[ATNO][ 12].a[  4] =         5.704620000000;     BAS[ATNO][ 12].d[  4] =         0.006071985993;
  BAS[ATNO][ 12].a[  5] =         2.980220000000;     BAS[ATNO][ 12].d[  5] =        -0.131212302256;
  BAS[ATNO][ 12].a[  6] =         1.519700000000;     BAS[ATNO][ 12].d[  6] =        -0.136236280198;
  BAS[ATNO][ 12].a[  7] =       750.222000000000;     BAS[ATNO][ 12].d[  7] =        -0.000014346568;
  BAS[ATNO][ 12].a[  8] =       163.961000000000;     BAS[ATNO][ 12].d[  8] =        -0.000113117222;
  BAS[ATNO][ 12].a[  9] =        16.922700000000;     BAS[ATNO][ 12].d[  9] =        -0.023006112101;
  BAS[ATNO][ 12].a[ 10] =        10.575500000000;     BAS[ATNO][ 12].d[ 10] =         0.073998529027;
  BAS[ATNO][ 12].a[ 11] =         5.704620000000;     BAS[ATNO][ 12].d[ 11] =         0.006326839469;
  BAS[ATNO][ 12].a[ 12] =         2.980220000000;     BAS[ATNO][ 12].d[ 12] =        -0.136719546719;
  BAS[ATNO][ 12].a[ 13] =         1.519700000000;     BAS[ATNO][ 12].d[ 13] =        -0.141954391129;
  BAS[ATNO][ 12].a[ 14] =       750.222000000000;     BAS[ATNO][ 12].d[ 14] =        -0.000032721174;
  BAS[ATNO][ 12].a[ 15] =       163.961000000000;     BAS[ATNO][ 12].d[ 15] =        -0.000257993991;
  BAS[ATNO][ 12].a[ 16] =        16.922700000000;     BAS[ATNO][ 12].d[ 16] =        -0.052471574068;
  BAS[ATNO][ 12].a[ 17] =        10.575500000000;     BAS[ATNO][ 12].d[ 17] =         0.168773379856;
  BAS[ATNO][ 12].a[ 18] =         5.704620000000;     BAS[ATNO][ 12].d[ 18] =         0.014430044691;
  BAS[ATNO][ 12].a[ 19] =         2.980220000000;     BAS[ATNO][ 12].d[ 19] =        -0.311825387554;
  BAS[ATNO][ 12].a[ 20] =         1.519700000000;     BAS[ATNO][ 12].d[ 20] =        -0.323764846295;
  BAS[ATNO][ 12].a[ 21] =        13.925457258000;     BAS[ATNO][ 12].d[ 21] =         0.006917990542;
  BAS[ATNO][ 12].a[ 22] =         4.232376665400;     BAS[ATNO][ 12].d[ 22] =        -0.072737067674;
  BAS[ATNO][ 12].a[ 23] =         1.454763072700;     BAS[ATNO][ 12].d[ 23] =        -0.237329741565;
  BAS[ATNO][ 12].a[ 24] =        13.925457258000;     BAS[ATNO][ 12].d[ 24] =         0.007208352531;
  BAS[ATNO][ 12].a[ 25] =         4.232376665400;     BAS[ATNO][ 12].d[ 25] =        -0.075789988828;
  BAS[ATNO][ 12].a[ 26] =         1.454763072700;     BAS[ATNO][ 12].d[ 26] =        -0.247290948576;
  BAS[ATNO][ 12].a[ 27] =        13.925457258000;     BAS[ATNO][ 12].d[ 27] =         0.016440570318;
  BAS[ATNO][ 12].a[ 28] =         4.232376665400;     BAS[ATNO][ 12].d[ 28] =        -0.172859281692;
  BAS[ATNO][ 12].a[ 29] =         1.454763072700;     BAS[ATNO][ 12].d[ 29] =        -0.564012957393;
  BAS[ATNO][ 12].a[ 30] =         0.755287836900;     BAS[ATNO][ 12].d[ 30] =         1.340462543377;
  BAS[ATNO][ 12].a[ 31] =         0.755287836900;     BAS[ATNO][ 12].d[ 31] =         1.396724454747;
  BAS[ATNO][ 12].a[ 32] =         0.755287836900;     BAS[ATNO][ 12].d[ 32] =         3.185602606651;

  // Basis function  14 L = p
  InitBFNGauss(BAS[ATNO][ 13]);
  BAS[ATNO][ 13].l  = 1;
  BAS[ATNO][ 13].ng = 33;
  BAS[ATNO][ 13].a[  0] =       750.222000000000;     BAS[ATNO][ 13].d[  0] =        -0.000202527659;
  BAS[ATNO][ 13].a[  1] =       163.961000000000;     BAS[ATNO][ 13].d[  1] =        -0.001596853427;
  BAS[ATNO][ 13].a[  2] =        16.922700000000;     BAS[ATNO][ 13].d[  2] =        -0.324772730413;
  BAS[ATNO][ 13].a[  3] =        10.575500000000;     BAS[ATNO][ 13].d[  3] =         1.044622586060;
  BAS[ATNO][ 13].a[  4] =         5.704620000000;     BAS[ATNO][ 13].d[  4] =         0.089314740366;
  BAS[ATNO][ 13].a[  5] =         2.980220000000;     BAS[ATNO][ 13].d[  5] =        -1.930042777023;
  BAS[ATNO][ 13].a[  6] =         1.519700000000;     BAS[ATNO][ 13].d[  6] =        -2.003942039317;
  BAS[ATNO][ 13].a[  7] =       750.222000000000;     BAS[ATNO][ 13].d[  7] =        -0.000211028153;
  BAS[ATNO][ 13].a[  8] =       163.961000000000;     BAS[ATNO][ 13].d[  8] =        -0.001663876580;
  BAS[ATNO][ 13].a[  9] =        16.922700000000;     BAS[ATNO][ 13].d[  9] =        -0.338404095807;
  BAS[ATNO][ 13].a[ 10] =        10.575500000000;     BAS[ATNO][ 13].d[ 10] =         1.088467499243;
  BAS[ATNO][ 13].a[ 11] =         5.704620000000;     BAS[ATNO][ 13].d[ 11] =         0.093063459845;
  BAS[ATNO][ 13].a[ 12] =         2.980220000000;     BAS[ATNO][ 13].d[ 12] =        -2.011050558328;
  BAS[ATNO][ 13].a[ 13] =         1.519700000000;     BAS[ATNO][ 13].d[ 13] =        -2.088051521449;
  BAS[ATNO][ 13].a[ 14] =       750.222000000000;     BAS[ATNO][ 13].d[ 14] =         0.000177746252;
  BAS[ATNO][ 13].a[ 15] =       163.961000000000;     BAS[ATNO][ 13].d[ 15] =         0.001401461471;
  BAS[ATNO][ 13].a[ 16] =        16.922700000000;     BAS[ATNO][ 13].d[ 16] =         0.285033341724;
  BAS[ATNO][ 13].a[ 17] =        10.575500000000;     BAS[ATNO][ 13].d[ 17] =        -0.916801931510;
  BAS[ATNO][ 13].a[ 18] =         5.704620000000;     BAS[ATNO][ 13].d[ 18] =        -0.078386134449;
  BAS[ATNO][ 13].a[ 19] =         2.980220000000;     BAS[ATNO][ 13].d[ 19] =         1.693881569749;
  BAS[ATNO][ 13].a[ 20] =         1.519700000000;     BAS[ATNO][ 13].d[ 20] =         1.758738473393;
  BAS[ATNO][ 13].a[ 21] =        13.925457258000;     BAS[ATNO][ 13].d[ 21] =        -0.088972407955;
  BAS[ATNO][ 13].a[ 22] =         4.232376665400;     BAS[ATNO][ 13].d[ 22] =         0.935472810973;
  BAS[ATNO][ 13].a[ 23] =         1.454763072700;     BAS[ATNO][ 13].d[ 23] =         3.052302320779;
  BAS[ATNO][ 13].a[ 24] =        13.925457258000;     BAS[ATNO][ 13].d[ 24] =        -0.092706759054;
  BAS[ATNO][ 13].a[ 25] =         4.232376665400;     BAS[ATNO][ 13].d[ 25] =         0.974736488333;
  BAS[ATNO][ 13].a[ 26] =         1.454763072700;     BAS[ATNO][ 13].d[ 26] =         3.180413594695;
  BAS[ATNO][ 13].a[ 27] =        13.925457258000;     BAS[ATNO][ 13].d[ 27] =         0.078085690040;
  BAS[ATNO][ 13].a[ 28] =         4.232376665400;     BAS[ATNO][ 13].d[ 28] =        -0.821007789243;
  BAS[ATNO][ 13].a[ 29] =         1.454763072700;     BAS[ATNO][ 13].d[ 29] =        -2.678820753623;
  BAS[ATNO][ 13].a[ 30] =         0.755287836900;     BAS[ATNO][ 13].d[ 30] =        -0.406263581176;
  BAS[ATNO][ 13].a[ 31] =         0.755287836900;     BAS[ATNO][ 13].d[ 31] =        -0.423315281650;
  BAS[ATNO][ 13].a[ 32] =         0.755287836900;     BAS[ATNO][ 13].d[ 32] =         0.356552922457;

-------------------------------------------
RADIAL EXPECTATION VALUES <R**-3> TO <R**3>
-------------------------------------------
   0 :     0.000000     2.433799     1.472906     0.738543     0.590799     0.512842
   1 :     3.707996     2.151567     1.398304     0.780727     0.663599     0.625226
   2 :     3.708468     2.151750     1.398366     0.780687     0.663524     0.625083
   3 :     3.710040     2.152358     1.398572     0.780557     0.663308     0.624986
   4 :     0.000000     0.851162     0.794931     1.476761     2.407884     4.241829
   5 :     0.965551     0.697306     0.729430     1.610124     2.868331     5.538452
   6 :     0.966856     0.698005     0.729816     1.609213     2.864833     5.526381
   7 :     0.000000     0.226799     0.381924     3.142179    10.922643    41.062379
   8 :     0.000000     0.045139     0.165441     6.975870    52.072759   408.135004
   9 :     0.000000     0.117383     0.249706     5.466122    36.279362   276.459564
  10 :     0.000000     0.429681     0.475742     3.234843    14.702025    88.246342
  11 :     0.000000     3.303914     1.475529     1.201679     2.987606    14.089372
  12 :    45.019106    10.451271     2.953730     0.425876     0.253387     0.243986
  13 :     0.972770     0.701206     0.731598     1.604911     2.848495     5.476737
  14 :     0.183599     0.173614     0.337111     3.571524    14.177056    61.206651
  15 :     0.186064     0.175052     0.338027     3.566399    14.136605    60.920168
  16 :     0.188788     0.176922     0.339673     3.554261    14.066961    60.715639
  17 :     0.019288     0.027598     0.131333     8.793323    83.403031   838.581340
  18 :     0.013765     0.022779     0.124033     9.057726    87.589513   893.127349
  19 :     0.013601     0.022586     0.123618     9.078947    87.949780   898.020293
  20 :     0.088003     0.090265     0.225275     6.043759    45.386973   405.555022
  21 :     0.088503     0.090791     0.226151     6.016195    44.975295   400.359215
  22 :     0.081869     0.084874     0.217345     6.311193    49.556426   459.505789
  23 :     0.708057     0.464285     0.515358     3.049305    13.638885    86.668858
  24 :     0.704447     0.462178     0.513911     3.059357    13.729113    87.480770
  25 :     0.701990     0.460980     0.513446     3.055877    13.669916    86.747025
  26 :    45.018828    10.451197     2.953712     0.425884     0.253405     0.244059
  27 :    45.018040    10.450989     2.953662     0.425904     0.253443     0.244154
  28 :     0.000000    29.204833     4.415769     0.413267     0.590505     2.577718
Making the total density                ... o.k.
o.k.
Initializing the integrals              ... done
Making exponents                        ... done
Making rho(0)                           ... done (         0.715263563)
Integral calculation                    ... Two index integrals                     ... done
Solving the equation system             ... done
atomic density will be written to file 52_Te_atom52.adf

-------
TIMINGS
-------

Total SCF time: 0 days 0 hours 0 min 0 sec 

Total time                  ....       0.578 sec
Sum of individual times     ....       0.201 sec  ( 34.7%)

Fock matrix formation       ....       0.140 sec  ( 24.3%)
Diagonalization             ....       0.027 sec  (  4.7%)
Density matrix formation    ....       0.000 sec  (  0.1%)
Population analysis         ....       0.000 sec  (  0.0%)
Initial guess               ....       0.000 sec  (  0.1%)
Orbital Transformation      ....       0.000 sec  (  0.0%)
Orbital Orthonormalization  ....       0.000 sec  (  0.0%)
DIIS solution               ....       0.033 sec  (  5.6%)

-------------------------   --------------------
FINAL SINGLE POINT ENERGY      -234.434779447877
-------------------------   --------------------


                            ***************************************
                            *     ORCA property calculations      *
                            ***************************************

                                    ---------------------
                                    Active property flags
                                    ---------------------
   (+) Dipole Moment


------------------------------------------------------------------------------
                       ORCA ELECTRIC PROPERTIES CALCULATION
------------------------------------------------------------------------------

Dipole Moment Calculation                       ... on
Quadrupole Moment Calculation                   ... off
Polarizability Calculation                      ... off
GBWName                                         ... 52_Te_atom52.gbw
Electron density file                           ... 52_Te_atom52.scfp
The origin for moment calculation is the CENTER OF MASS  = ( 0.000000,  0.000000  0.000000)

-------------
DIPOLE MOMENT
-------------
                                X             Y             Z
Electronic contribution:      0.00000       0.00000       0.00000
Nuclear contribution   :      0.00000       0.00000       0.00000
                        -----------------------------------------
Total Dipole Moment    :      0.00000       0.00000       0.00000
                        -----------------------------------------
Magnitude (a.u.)       :      0.00000
Magnitude (Debye)      :      0.00000



--------------------
Rotational spectrum 
--------------------
 
Rotational constants in cm-1:     0.000000     0.000000     0.000000 
Rotational constants in MHz :     0.000000     0.000000     0.000000 

 Dipole components along the rotational axes: 
x,y,z [a.u.] :     0.000000     0.000000     0.000000 
x,y,z [Debye]:     0.000000     0.000000     0.000000 

 

Timings for individual modules:

Sum of individual times         ...        0.850 sec (=   0.014 min)
GTO integral calculation        ...        0.244 sec (=   0.004 min)  28.7 %
SCF iterations                  ...        0.606 sec (=   0.010 min)  71.3 %
                             ****ORCA TERMINATED NORMALLY****
TOTAL RUN TIME: 0 days 0 hours 0 minutes 1 seconds 71 msec
