
                                 *****************
                                 * O   R   C   A *
                                 *****************

           --- An Ab Initio, DFT and Semiempirical electronic structure package ---

                  #######################################################
                  #                        -***-                        #
                  #          Department of theory and spectroscopy      #
                  #               Directorship: Frank Neese             #
                  #        Max Planck Institute fuer Kohlenforschung    #
                  #                Kaiser Wilhelm Platz 1               #
                  #                 D-45470 Muelheim/Ruhr               #
                  #                      Germany                        #
                  #                                                     #
                  #                  All rights reserved                #
                  #                        -***-                        #
                  #######################################################


                         Program Version 4.2.0 -  RELEASE  -


 With contributions from (in alphabetic order):
   Daniel Aravena         : Magnetic Suceptibility
   Michael Atanasov       : Ab Initio Ligand Field Theory (pilot matlab implementation)
   Alexander A. Auer      : GIAO ZORA, VPT2
   Ute Becker             : Parallelization
   Giovanni Bistoni       : ED, misc. LED, open-shell LED, HFLED
   Martin Brehm           : Molecular dynamics
   Dmytro Bykov           : SCF Hessian
   Vijay G. Chilkuri      : MRCI spin determinant printing, contributions to CSF-ICE
   Dipayan Datta          : RHF DLPNO-CCSD density
   Achintya Kumar Dutta   : EOM-CC, STEOM-CC
   Dmitry Ganyushin       : Spin-Orbit,Spin-Spin,Magnetic field MRCI
   Miquel Garcia          : C-PCM Hessian, Gaussian charge scheme
   Yang Guo               : DLPNO-NEVPT2, CIM, IAO-localization
   Andreas Hansen         : Spin unrestricted coupled pair/coupled cluster methods
   Benjamin Helmich-Paris : CASSCF linear response (MC-RPA)
   Lee Huntington         : MR-EOM, pCC
   Robert Izsak           : Overlap fitted RIJCOSX, COSX-SCS-MP3, EOM
   Christian Kollmar      : KDIIS, OOCD, Brueckner-CCSD(T), CCSD density
   Simone Kossmann        : Meta GGA functionals, TD-DFT gradient, OOMP2, MP2 Hessian
   Martin Krupicka        : AUTO-CI
   Lucas Lang             : DCDCAS
   Dagmar Lenk            : GEPOL surface, SMD
   Dimitrios Liakos       : Extrapolation schemes; Compound Job, initial MDCI parallelization
   Dimitrios Manganas     : Further ROCIS development; embedding schemes
   Dimitrios Pantazis     : SARC Basis sets
   Taras Petrenko         : DFT Hessian,TD-DFT gradient, ASA, ECA, R-Raman, ABS, FL, XAS/XES, NRVS
   Peter Pinski           : DLPNO-MP2, DLPNO-MP2 Gradient
   Christoph Reimann      : Effective Core Potentials
   Marius Retegan         : Local ZFS, SOC
   Christoph Riplinger    : Optimizer, TS searches, QM/MM, DLPNO-CCSD(T), (RO)-DLPNO pert. Triples
   Tobias Risthaus        : Range-separated hybrids, TD-DFT gradient, RPA, STAB
   Michael Roemelt        : Original ROCIS implementation
   Masaaki Saitow         : Open-shell DLPNO-CCSD energy and density
   Barbara Sandhoefer     : DKH picture change effects
   Avijit Sen             : IP-ROCIS
   Kantharuban Sivalingam : CASSCF convergence, NEVPT2, FIC-MRCI
   Bernardo de Souza      : ESD, SOC TD-DFT
   Georgi Stoychev        : AutoAux, RI-MP2 NMR
   Willem Van den Heuvel  : Paramagnetic NMR
   Boris Wezisla          : Elementary symmetry handling
   Frank Wennmohs         : Technical directorship


 We gratefully acknowledge several colleagues who have allowed us to
 interface, adapt or use parts of their codes:
   Stefan Grimme, W. Hujo, H. Kruse,             : VdW corrections, initial TS optimization,
                  C. Bannwarth                     DFT functionals, gCP, sTDA/sTD-DF
   Ed Valeev, F. Pavosevic, A. Kumar             : LibInt (2-el integral package), F12 methods
   Garnet Chan, S. Sharma, J. Yang, R. Olivares  : DMRG
   Ulf Ekstrom                                   : XCFun DFT Library
   Mihaly Kallay                                 : mrcc  (arbitrary order and MRCC methods)
   Andreas Klamt, Michael Diedenhofen            : otool_cosmo (COSMO solvation model)
   Jiri Pittner, Ondrej Demel                    : Mk-CCSD
   Frank Weinhold                                : gennbo (NPA and NBO analysis)
   Christopher J. Cramer and Donald G. Truhlar   : smd solvation model
   Lars Goerigk                                  : TD-DFT with DH, B97 family of functionals
   V. Asgeirsson, H. Jonsson                     : NEB implementation
   FAccTs GmbH                                   : IRC, NEB, NEB-TS, Multilevel, MM, QM/MM, CI optimization
   S Lehtola, MJT Oliveira, MAL Marques          : LibXC Library


 Your calculation uses the libint2 library for the computation of 2-el integrals
 For citations please refer to: http://libint.valeyev.net

 Your ORCA version has been built with support for libXC version: 4.2.3
 For citations please refer to: https://tddft.org/programs/libxc/

 This ORCA versions uses:
   CBLAS   interface :  Fast vector & matrix operations
   LAPACKE interface :  Fast linear algebra routines
   SCALAPACK package :  Parallel linear algebra routines


----- Orbital basis set information -----
Your calculation utilizes the basis: def2-SVP
   F. Weigend and R. Ahlrichs, Phys. Chem. Chem. Phys. 7, 3297 (2005).

----- AuxJ basis set information -----
Your calculation utilizes the auxiliary basis: def2/J
   F. Weigend, Phys. Chem. Chem. Phys. 8, 1057 (2006).

================================================================================
                                        WARNINGS
                       Please study these warnings very carefully!
================================================================================


INFO   : the flag for use of LIBINT has been found!

================================================================================
                                       INPUT FILE
================================================================================
NAME = 53_I_atom53.inp
|  1> # input to generate an atomic fitting density for I 
|  2> # this file is use internally by ORCA
|  3> #
|  4> # atomic ground state (S=2): 1s2 2s2 2p6 3s2 3p6 4s2 3d10 4p6 5s2 4d10 5p5 
|  5> #
|  6> ! RHF AllowRHF def2-SVP def2/J  NoMulliken NoLoewdin NoMayer NoPrintMOs 
|  7> 
|  8> %output print[p_atomdensfit] 2 end
|  9> 
| 10> %scf
| 11>   guess hcore
| 12>   maxiter 1000
| 13>   maxdisk 500000
| 14>   SCFMode Conventional
| 15>   lshift 1.000000
| 16>   hftyp rohf
| 17>   rohf_case sahf
| 18>   rohf_numop   2
| 19>   rohf_norb[1] 3
| 20>   rohf_nel[1]  5
| 21> end
| 22> 
| 23> %basis
| 24>   NewECP 53
| 25>     N_core 28
| 26>     lmax f
| 27>     s 7
| 28>       1      40.0158350000     49.9942930000  2
| 29>       2      17.4297470000    281.0253170000  2
| 30>       3       9.0054840000     61.5733260000  2
| 31>       4      19.4586090000     21.8420400000  2
| 32>       5      19.3492600000     28.4681910000  2
| 33>       6       4.8237670000      0.2437130000  2
| 34>       7       4.8843150000      0.3208040000  2
| 35>     p 8
| 36>       1      15.3554660000     67.4428410000  2
| 37>       2      14.9718330000    134.8811370000  2
| 38>       3       8.9601640000     14.6750510000  2
| 39>       4       8.2590960000     29.3756660000  2
| 40>       5      19.4586090000     21.8420400000  2
| 41>       6      19.3492600000     28.4681910000  2
| 42>       7       4.8237670000      0.2437130000  2
| 43>       8       4.8843150000      0.3208040000  2
| 44>     d 10
| 45>       1      15.0689080000     35.4395290000  2
| 46>       2      14.5553220000     53.1760570000  2
| 47>       3       6.7186470000      9.0671950000  2
| 48>       4       6.4563930000     13.2069370000  2
| 49>       5       1.1917790000      0.0893350000  2
| 50>       6       1.2911570000      0.0523800000  2
| 51>       7      19.4586090000     21.8420400000  2
| 52>       8      19.3492600000     28.4681910000  2
| 53>       9       4.8237670000      0.2437130000  2
| 54>      10       4.8843150000      0.3208040000  2
| 55>     f 4
| 56>       1      19.4586090000    -21.8420400000  2
| 57>       2      19.3492600000    -28.4681910000  2
| 58>       3       4.8237670000     -0.2437130000  2
| 59>       4       4.8843150000     -0.3208040000  2
| 60>   end
| 61>   NewGTO 53
| 62>     s 9 
| 63>      1   16788.4000000000      0.0001035868
| 64>      2    2526.6400000000      0.0007655317
| 65>      3     571.9840000000      0.0031505547
| 66>      4     150.4340000000      0.0067179832
| 67>      5      29.5405000000     -0.1343849292
| 68>      6      18.4571000000      0.8592550642
| 69>      7      11.5286000000     -0.8902275185
| 70>      8       7.0828900000     -1.3678132143
| 71>      9       2.5040500000      1.8083451524
| 72>     s 1 
| 73>      1       1.3540144781      1.0000000000
| 74>     s 3 
| 75>      1      25.0586179330      0.0886865792
| 76>      2      15.6219793720     -0.3094370527
| 77>      3       3.3536325162      1.1474877803
| 78>     s 1 
| 79>      1       0.6743047270      1.0000000000
| 80>     s 1 
| 81>      1       0.3272713695      1.0000000000
| 82>     s 1 
| 83>      1       0.1574936412      1.0000000000
| 84>     s 1 
| 85>      1       0.0743777278      1.0000000000
| 86>     p 7 
| 87>      1     656.2740000000      0.0001022631
| 88>      2     149.2320000000      0.0006888713
| 89>      3      19.0153000000      0.0673396998
| 90>      4      10.7378000000     -0.2801087878
| 91>      5       6.4420800000     -0.0049164959
| 92>      6       3.0920300000      0.5776169143
| 93>      7       1.5787400000      0.5699910077
| 94>     p 3 
| 95>      1      15.6605118930     -0.0244846280
| 96>      2       4.9250669812      0.2600416205
| 97>      3       1.6692319982      0.8088703667
| 98>     p 1 
| 99>      1       0.7781789818      1.0000000000
|100>     p 1 
|101>      1       0.3560884372      1.0000000000
|102>     p 1 
|103>      1       0.1549324265      1.0000000000
|104>     p 1 
|105>      1       0.0646662125      1.0000000000
|106>     s 1 
|107>      1       0.0355550486      1.0000000000
|108>     p 1 
|109>      1       0.0186676768      1.0000000000
|110>   end
|111>   NewAuxGTO 53
|112>     S 1
|113>      1 1310.72 1.0
|114>     S 1
|115>      1  655.36 1.0
|116>     S 1
|117>      1  327.68 1.0
|118>     S 1
|119>      1  163.84 1.0
|120>     S 1
|121>      1   81.82 1.0
|122>     S 1
|123>      1   40.96 1.0
|124>     S 1
|125>      1   20.48 1.0
|126>     S 1
|127>      1   10.24 1.0
|128>     S 1
|129>      1    5.12 1.0
|130>     S 1
|131>      1    2.56 1.0
|132>     S 1
|133>      1    1.28 1.0
|134>     S 1
|135>      1    0.64 1.0
|136>     S 1
|137>      1    0.32 1.0
|138>     S 1
|139>      1    0.16 1.0
|140>     S 1
|141>      1    0.08 1.0
|142>     S 1
|143>      1    0.04 1.0
|144>     S 1
|145>      1    0.02 1.0
|146>     S 1
|147>      1    0.01 1.0
|148>   end
|149> end
|150> 
|151> * xyz 0 2
|152> 53  0.0 0.0 0.0
|153> *
|154> 
|155> 
|156>                          ****END OF INPUT****
================================================================================

                       ****************************
                       * Single Point Calculation *
                       ****************************

---------------------------------
CARTESIAN COORDINATES (ANGSTROEM)
---------------------------------
  I      0.000000    0.000000    0.000000

----------------------------
CARTESIAN COORDINATES (A.U.)
----------------------------
  NO LB      ZA    FRAG     MASS         X           Y           Z
   0 I    25.0000*   0   126.900    0.000000    0.000000    0.000000
* core charge reduced due to ECP

--------------------------------
INTERNAL COORDINATES (ANGSTROEM)
--------------------------------
 I      0   0   0     0.000000000000     0.00000000     0.00000000

---------------------------
INTERNAL COORDINATES (A.U.)
---------------------------
 I      0   0   0     0.000000000000     0.00000000     0.00000000

---------------------
BASIS SET INFORMATION
---------------------
There are 1 groups of distinct atoms

 Group   1 Type I   : 18s15p contracted to 8s7p pattern {91311111/7311111}

Atom   0I    basis set group =>   1
---------------------------------
AUXILIARY/J BASIS SET INFORMATION
---------------------------------
There are 1 groups of distinct atoms

 Group   1 Type I   : 18s contracted to 18s pattern {111111111111111111}

Atom   0I    basis set group =>   1
-------------------------
ECP PARAMETER INFORMATION
-------------------------

 Group 1, Type I  ECP (replacing 28 core electrons, lmax=3)

Atom   0I    ECP group =>   1

------------------------------------------------------------------------------
                           ORCA GTO INTEGRAL CALCULATION
------------------------------------------------------------------------------

                         BASIS SET STATISTICS AND STARTUP INFO

 # of primitive gaussian shells          ...   33
 # of primitive gaussian functions       ...   63
 # of contracted shells                  ...   15
 # of contracted basis functions         ...   29
 Highest angular momentum                ...    1
 Maximum contraction depth               ...    9
 Integral package used                   ... LIBINT
 Integral threshhold            Thresh   ...  1.000e-10
 Primitive cut-off              TCut     ...  1.000e-11
 Storage cut-off                TCutStore... -1.000e+00
 Buffer length                           ... 1048576 integrals/buffer
 Generate file with integrals 4 distinct ...false


------------------------------ INTEGRAL EVALUATION ----------------------------


 * One electron integrals 

   ECP integrals                         ... done
 Pre-screening matrix                    ... done
 Shell pair data                         ... done (   0.000 sec)
 Statistics run                          ... done
 Maximum amount of storage needed        ...     1 MB
 Maximum amount of storage dedicated     ... 500000 MB
 Beginning two electron integral evaluation:
 Starting repulsion integrals
  <ss|ss>  ...          666 b.         0 skpd (  0.0%)     0.000 s. (  0.000 ms/b)
  <ss|sp>  ...         2016 b.         0 skpd (  0.0%)     0.001 s. (  0.001 ms/b)
  <ss|pp>  ...         1008 b.         0 skpd (  0.0%)     0.003 s. (  0.003 ms/b)
  <sp|sp>  ...         1596 b.         0 skpd (  0.0%)     0.003 s. (  0.002 ms/b)
  <sp|pp>  ...         1568 b.         0 skpd (  0.0%)     0.005 s. (  0.003 ms/b)
  <pp|pp>  ...          406 b.         0 skpd (  0.0%)     0.004 s. (  0.009 ms/b)


                                      INTEGRAL STATISTICS

Integral type statistics:
 Number of integrals retained            ...      94830 
 One   Center Integrals retained         ...      94830 (100.0%)
 Two   Center Integrals retained         ...          0 (  0.0%)
 Three Center Integrals retained         ...          0 (  0.0%)
 Four  Center Integrals retained         ...          0 (  0.0%)

Storage statistics:
 Number of char integrals                ...          0 (  0.0%)
 Number of short int integrals           ...          0 (  0.0%)
 Number of double/float integrals        ...      94830 (100.0%)
 Amount of memory used                   ...          1 MB
 Amount of memory estimated              ...          1 MB ( 96.6%)

Prescreening statistics:
 Total number of shell quadruples        ...       7260 
 Number of skipped shell quadruples      ...          0 (  0.0%)
 # of negligible batches done            ...          0 (  0.0%)

Timings:
 Total evaluation time               ...     0.182 sec (   0.003 min)
 One electron matrix time            ...     0.016 sec (   0.000 min) =  8.7%
 Schwartz matrix evaluation time     ...     0.075 sec (   0.001 min) = 41.0%
 Statistics run                      ...     0.001 sec (   0.000 min) =  0.5%
 Repulsion integral time             ...     0.017 sec (   0.000 min) =  9.2%

-------------------------------------------------------------------------------
                                 ORCA SCF
-------------------------------------------------------------------------------

------------
SCF SETTINGS
------------
Hamiltonian:
 Ab initio Hamiltonian  Method          .... Hartree-Fock(GTOs)


General Settings:
 Integral files         IntName         .... 53_I_atom53
 Hartree-Fock type      HFTyp           .... ROHF
 Total Charge           Charge          ....    0
 Multiplicity           Mult            ....    2
 Number of Electrons    NEL             ....   25
 Basis Dimension        Dim             ....   29
 Nuclear Repulsion      ENuc            ....      0.0000000000 Eh

Convergence Acceleration:
 DIIS                   CNVDIIS         .... on
   Start iteration      DIISMaxIt       ....    12
   Startup error        DIISStart       ....  0.200000
   # of expansion vecs  DIISMaxEq       ....     5
   Bias factor          DIISBfac        ....   1.050
   Max. coefficient     DIISMaxC        ....  10.000
 Newton-Raphson         CNVNR           .... off
 SOSCF                  CNVSOSCF        .... off
 Level Shifting         CNVShift        .... on
   Level shift para.    LevelShift      ....    1.0000
   Turn off err/grad.   ShiftErr        ....    0.0010
 Zerner damping         CNVZerner       .... off
 Static damping         CNVDamp         .... on
   Fraction old density DampFac         ....    0.7000
   Max. Damping (<1)    DampMax         ....    0.9800
   Min. Damping (>=0)   DampMin         ....    0.0000
   Turn off err/grad.   DampErr         ....    0.1000
 Fernandez-Rico         CNVRico         .... off

SCF Procedure:
 Maximum # iterations   MaxIter         ....  1000
 SCF integral mode      SCFMode         .... Conventional
 Integral Threshold     Thresh          ....  1.000e-10 Eh
 Primitive CutOff       TCut            ....  1.000e-11 Eh
 Integral Buffer length BufferLength    .... 1048576
 Integral index format  IndFormat       ....     0
 Integral value format  ValFormat       ....     0
 Integral Storage       Thresh          ....  1.000e-10 Eh

Convergence Tolerance:
 Convergence Check Mode ConvCheckMode   .... Total+1el-Energy
 Convergence forced     ConvForced      .... 0
 Energy Change          TolE            ....  1.000e-06 Eh
 1-El. energy change                    ....  1.000e-03 Eh
 DIIS Error             TolErr          ....  1.000e-06


Diagonalization of the overlap matrix:
Smallest eigenvalue                        ... 7.936e-04
Time for diagonalization                   ...    0.000 sec
Threshold for overlap eigenvalues          ... 1.000e-08
Number of eigenvalues below threshold      ... 0
Time for construction of square roots      ...    0.002 sec
Total time needed                          ...    0.002 sec

--------------------
INITIAL GUESS: HCORE
--------------------
AVERAGE-CONFIGURATION (SAHF) CASE FOUND

-------------------
FINAL ROHF SETTINGS
-------------------
Number of operators             ... 2
  operator   0:  10 orbitals  20 electrons n(mue)= 2.000
  operator   1:   3 orbitals   5 electrons n(mue)= 1.667
Vector coupling coefficients a and b (Zerner convention):
   1.000    1.000           1.000    1.000 
   1.000    0.960           1.000    0.960 

                      -----------------
                      INTIAL GUESS DONE 
                      -----------------

 InCore treatment chosen:
   Memory dedicated               ...    1024 MB
   Memory needed                  ...      1 MB
   Number of tiny    integrals    ...       0
   Number of small   integrals    ...       0
   Number of regular integrals    ...   94830

--------------
SCF ITERATIONS
--------------
ITER       Energy         Delta-E        Max-DP      RMS-DP      [F,P]     Damp
  0   -243.8627999696   0.00000000000019.28844177  0.92729724  3.0357041 0.7000
  1   -250.0809395837  -6.21813961412212.94388360  0.69136910  1.3568906 0.7000
  2   -253.1396118571  -3.058672273422 9.06577067  0.43736244  0.5226398 0.7000
  3   -254.7698854300  -1.630273572850 6.34934065  0.31612287  0.2648951 0.7000
                            ****Activating DIIS****
  4   -255.7153669989  -0.945481568915 4.44315108  0.22183215  0.1808778 0.7000
  5   -256.4506207952  -0.735253796296 3.10858690  0.15237505  0.1275536 0.7000
  6   -256.9531809809  -0.502560185777 7.25147989  0.34964583  0.0582562 0.0000
  7   -258.0473181396  -1.094137158633 0.35064329  0.01752505  0.0244072 0.0000
  8   -258.0515424108  -0.004224271207 0.29760551  0.01571027  0.0393978 0.0000
  9   -258.0578204220  -0.006278011253 0.41882735  0.02062199  0.0251492 0.0000
 10   -258.0627330202  -0.004912598176 0.23077359  0.01160275  0.0132122 0.0000
 11   -258.0638155211  -0.001082500896 0.04618598  0.00290536  0.0101243 0.0000
 12   -258.0645070351  -0.000691514033 0.07681848  0.00397716  0.0052093 0.0000
 13   -258.0649314294  -0.000424394227 0.06786559  0.00344830  0.0027203 0.0000
 14   -258.0650712698  -0.000139840423 0.01533084  0.00087532  0.0010454 0.0000
 15   -258.0650794898  -0.000008219999 0.01507201  0.00081821  0.0015406 0.0000
 16   -258.0650900656  -0.000010575843 0.01267482  0.00066401  0.0007823 0.0000
 17   -258.0650945430  -0.000004477351 0.00601314  0.00030489  0.0006628 0.0000
 18   -258.0650965234  -0.000001980434 0.00230472  0.00013864  0.0005199 0.0000
 19   -258.0650981160  -0.000001592549 0.00286451  0.00015860  0.0003589 0.0000
                 **** Energy Check signals convergence ****

               *****************************************************
               *                     SUCCESS                       *
               *           SCF CONVERGED AFTER  20 CYCLES          *
               *****************************************************


----------------
TOTAL SCF ENERGY
----------------

Total Energy       :         -258.06509901 Eh           -7022.30835 eV

Components:
Nuclear Repulsion  :            0.00000000 Eh               0.00000 eV
Electronic Energy  :         -258.06509901 Eh           -7022.30835 eV
One Electron Energy:         -402.14094532 Eh          -10942.81144 eV
Two Electron Energy:          144.07584631 Eh            3920.50309 eV

Virial components:
Potential Energy   :         -332.59771474 Eh           -9050.44393 eV
Kinetic Energy     :           74.53261573 Eh            2028.13558 eV
Virial Ratio       :            4.46244522


---------------
SCF CONVERGENCE
---------------

  Last Energy change         ...   -8.9484e-07  Tolerance :   1.0000e-06
  Last MAX-Density change    ...    1.6528e-03  Tolerance :   1.0000e-05
  Last RMS-Density change    ...    9.4450e-05  Tolerance :   1.0000e-06
  Last DIIS Error            ...    2.1536e-04  Tolerance :   1.0000e-06

             **** THE GBW FILE WAS UPDATED (53_I_atom53.gbw) ****
             **** DENSITY FILE WAS UPDATED (53_I_atom53.scfp) ****
             **** ENERGY FILE WAS UPDATED (53_I_atom53.en.tmp) ****
             **** THE GBW FILE WAS UPDATED (53_I_atom53.gbw) ****
             **** DENSITY FILE WAS UPDATED (53_I_atom53.scfp) ****
----------------
ORBITAL ENERGIES
----------------

  NO   OCC          E(Eh)            E(eV) 
   0   2.0000     -12.733719      -346.5021 
   1   2.0000     -10.257868      -279.1308 
   2   2.0000     -10.257868      -279.1308 
   3   2.0000     -10.252192      -278.9763 
   4   2.0000      -3.529623       -96.0459 
   5   2.0000      -2.598103       -70.6980 
   6   2.0000      -2.598103       -70.6980 
   7   2.0000      -2.587818       -70.4181 
   8   2.0000      -0.519570       -14.1382 
   9   2.0000      -0.070293        -1.9128 
  10   1.6667      -0.829930       -22.5836 
  11   1.6667      -0.539160       -14.6713 
  12   1.6667      -0.539160       -14.6713 
  13   0.0000      -0.050468        -1.3733 
  14   0.0000      -0.018036        -0.4908 
  15   0.0000      -0.018036        -0.4908 
  16   0.0000       0.182861         4.9759 
  17   0.0000       0.182861         4.9759 
  18   0.0000       0.200023         5.4429 
  19   0.0000       0.256464         6.9788 
  20   0.0000       1.260043        34.2875 
  21   0.0000       1.260043        34.2875 
  22   0.0000       1.278035        34.7771 
  23   0.0000       1.315605        35.7994 
  24   0.0000      10.334785       281.2238 
  25   0.0000      34.222431       931.2397 
  26   0.0000      34.222431       931.2397 
  27   0.0000      34.225240       931.3161 
  28   0.0000      73.160404      1990.7958 
CleanUpVectors: The p-vectors have cracked symmetry
CleanUpVectors: The p-vectors have cracked symmetry
CleanUpVectors: The p-vectors have cracked symmetry
CleanUpVectors: The p-vectors have cracked symmetry
CleanUpVectors: The p-vectors have cracked symmetry
CleanUpVectors: The p-vectors have cracked symmetry
CleanUpVectors: The p-vectors have cracked symmetry
CleanUpVectors: The p-vectors have cracked symmetry
CleanUpVectors: The p-vectors have cracked symmetry
CleanUpVectors: The p-vectors have cracked symmetry
CleanUpVectors: The p-vectors have cracked symmetry
CleanUpVectors: The p-vectors have cracked symmetry
CleanUpVectors: The p-vectors have cracked symmetry
CleanUpVectors: The p-vectors have cracked symmetry
CleanUpVectors: The p-vectors have cracked symmetry
CleanUpVectors: The p-vectors have cracked symmetry
CleanUpVectors: The p-vectors have cracked symmetry
CleanUpVectors: The p-vectors have cracked symmetry
CleanUpVectors: The p-vectors have cracked symmetry
CleanUpVectors: The p-vectors have cracked symmetry
--------------------------
ATOM BASIS FOR ELEMENT I 
--------------------------
 NewGTO I 
 S 18
    1      16788.400000000001         0.000045562297
    2       2526.640000000000         0.000336716481
    3        571.984000000000         0.001385760630
    4        150.434000000000         0.002954881764
    5         29.540500000000        -0.059108748100
    6         18.457100000000         0.377940379520
    7         11.528600000000        -0.391563506832
    8          7.082890000000        -0.601627929661
    9          2.504050000000         0.795394384830
   10          1.354014478100         0.663650375252
   11         25.058617933000         0.010501364389
   12         15.621979372000        -0.036640394467
   13          3.353632516200         0.135873853985
   14          0.674304727000        -0.206545688995
   15          0.327271369500         0.157431353966
   16          0.157493641200        -0.093366065660
   17          0.074377727800         0.042435967414
   18          0.035555048600        -0.011417742061
 P 33
    1        656.274000000000        -0.000000856858
    2        149.232000000000        -0.000005772024
    3         19.015300000000        -0.000564236499
    4         10.737800000000         0.002347019697
    5          6.442080000000         0.000041195111
    6          3.092030000000        -0.004839827718
    7          1.578740000000        -0.004775930569
    8        656.274000000000        -0.000006346901
    9        149.232000000000        -0.000042754404
   10         19.015300000000        -0.004179400003
   11         10.737800000000         0.017384791915
   12          6.442080000000         0.000305139510
   13          3.092030000000        -0.035849463849
   14          1.578740000000        -0.035376166311
   15        656.274000000000        -0.000100827171
   16        149.232000000000        -0.000679198501
   17         19.015300000000        -0.066394148170
   18         10.737800000000         0.276175635116
   19          6.442080000000         0.004847460833
   20          3.092030000000        -0.569506295799
   21          1.578740000000        -0.561987468507
   22         15.660511893000         0.000020277825
   23          4.925066981200        -0.000215362815
   24          1.669231998200        -0.000669895069
   25         15.660511893000         0.000150201451
   26          4.925066981200        -0.001595230637
   27          1.669231998200        -0.004962031801
   28         15.660511893000         0.002386107429
   29          4.925066981200        -0.025341910134
   30          1.669231998200        -0.078827074311
   31          0.778178981800         0.001434545298
   32          0.778178981800         0.010625931910
   33          0.778178981800         0.168804062090
 S 18
    1      16788.400000000001         0.000031559215
    2       2526.640000000000         0.000233230292
    3        571.984000000000         0.000959862007
    4        150.434000000000         0.002046730640
    5         29.540500000000        -0.040942310214
    6         18.457100000000         0.261784469440
    7         11.528600000000        -0.271220675119
    8          7.082890000000        -0.416724057288
    9          2.504050000000         0.550938476838
   10          1.354014478100         1.371637903884
   11         25.058617933000         0.028098399425
   12         15.621979372000        -0.098038350131
   13          3.353632516200         0.363556360799
   14          0.674304727000        -2.105354087276
   15          0.327271369500         0.141783480234
   16          0.157493641200        -0.308806045857
   17          0.074377727800         0.142218194685
   18          0.035555048600        -0.039736634317
 P 31
    1        656.274000000000        -0.000066133193
    2        149.232000000000        -0.000445490686
    3         19.015300000000        -0.043548350855
    4         10.737800000000         0.181145383853
    5          6.442080000000         0.003179480887
    6          3.092030000000        -0.373542859838
    7          1.578740000000        -0.368611212427
    8        656.274000000000        -0.000008498005
    9        149.232000000000        -0.000057244807
   10         19.015300000000        -0.005595890135
   11         10.737800000000         0.023276878380
   12          6.442080000000         0.000408557968
   13          3.092030000000        -0.047999631751
   14          1.578740000000        -0.047365923320
   15         10.737800000000         0.000000003967
   16         15.660511893000         0.009793879875
   17          4.925066981200        -0.104016952741
   18          1.669231998200        -0.323549093968
   19         15.660511893000         0.001258497158
   20          4.925066981200        -0.013366004184
   21          1.669231998200        -0.041575516583
   22          0.778178981800         1.242170347514
   23          0.778178981800         0.159616808840
   24          0.356088437200         0.192274484335
   25          0.356088437200         0.024706949150
   26          0.154932426500         0.121128290493
   27          0.154932426500         0.015564782421
   28          0.064666212500        -0.038916689960
   29          0.064666212500        -0.005000729469
   30          0.018667676800         0.009280375255
   31          0.018667676800         0.001192512673
 S 18
    1      16788.400000000001        -0.000006097670
    2       2526.640000000000        -0.000045063267
    3        571.984000000000        -0.000185458406
    4        150.434000000000        -0.000395456221
    5         29.540500000000         0.007910611670
    6         18.457100000000        -0.050580323096
    7         11.528600000000         0.052403526486
    8          7.082890000000         0.080516760619
    9          2.504050000000        -0.106448813500
   10          1.354014478100        -0.477032446451
   11         25.058617933000        -0.006227883739
   12         15.621979372000         0.021729758958
   13          3.353632516200        -0.080580630715
   14          0.674304727000         1.157985356201
   15          0.327271369500        -0.590247838801
   16          0.157493641200         0.563245733859
   17          0.074377727800        -2.689921633757
   18          0.035555048600         2.637297578495
 S 18
    1      16788.400000000001         0.000009922320
    2       2526.640000000000         0.000073328363
    3        571.984000000000         0.000301783740
    4        150.434000000000         0.000643498777
    5         29.540500000000        -0.012872395622
    6         18.457100000000         0.082305889450
    7         11.528600000000        -0.085272663235
    8          7.082890000000        -0.131019400286
    9          2.504050000000         0.173216850736
   10          1.354014478100         0.427472947718
   11         25.058617933000         0.016408016924
   12         15.621979372000        -0.057249343061
   13          3.353632516200         0.212298175088
   14          0.674304727000        -0.492768208541
   15          0.327271369500        -3.444766533200
   16          0.157493641200         8.754644650340
   17          0.074377727800        -8.622197066465
   18          0.035555048600         3.310626885223
 S 18
    1      16788.400000000001        -0.000027001601
    2       2526.640000000000        -0.000199548415
    3        571.984000000000        -0.000821243845
    4        150.434000000000        -0.001751152695
    5         29.540500000000         0.035029639690
    6         18.457100000000        -0.223978949724
    7         11.528600000000         0.232052428803
    8          7.082890000000         0.356542986968
    9          2.504050000000        -0.471374874409
   10          1.354014478100        -3.587944727647
   11         25.058617933000        -0.016131920296
   12         15.621979372000         0.056286012108
   13          3.353632516200        -0.208725847576
   14          0.674304727000        11.748783460875
   15          0.327271369500       -16.407071721052
   16          0.157493641200        13.571516599584
   17          0.074377727800        -6.994220298849
   18          0.035555048600         1.887335501126
 S 18
    1      16788.400000000001        -0.000002756582
    2       2526.640000000000        -0.000020371814
    3        571.984000000000        -0.000083840438
    4        150.434000000000        -0.000178774440
    5         29.540500000000         0.003576161139
    6         18.457100000000        -0.022865916496
    7         11.528600000000         0.023690134570
    8          7.082890000000         0.036399323139
    9          2.504050000000        -0.048122462088
   10          1.354014478100        11.415405594301
   11         25.058617933000        -0.408533318650
   12         15.621979372000         1.425416869081
   13          3.353632516200        -5.285884236656
   14          0.674304727000       -13.869476813823
   15          0.327271369500        10.835136763026
   16          0.157493641200        -6.483263499317
   17          0.074377727800         2.918335924846
   18          0.035555048600        -0.769494927210
 P 33
    1        656.274000000000        -0.000526255306
    2        149.232000000000        -0.003544994987
    3         19.015300000000        -0.346536280748
    4         10.737800000000         1.441465551784
    5          6.442080000000         0.025300739513
    6          3.092030000000        -2.972469698757
    7          1.578740000000        -2.933226082906
    8        656.274000000000        -0.000078638654
    9        149.232000000000        -0.000529730779
   10         19.015300000000        -0.051783129305
   11         10.737800000000         0.215399082878
   12          6.442080000000         0.003780705047
   13          3.092030000000        -0.444177973038
   14          1.578740000000        -0.438313775415
   15        656.274000000000        -0.000178085796
   16        149.232000000000        -0.001199633040
   17         19.015300000000        -0.117268535884
   18         10.737800000000         0.487794681756
   19          6.442080000000         0.008561818327
   20          3.092030000000        -1.005889394263
   21          1.578740000000        -0.992609280089
   22         15.660511893000        -0.125895787361
   23          4.925066981200         1.337089726646
   24          1.669231998200         4.159073672219
   25         15.660511893000        -0.018812684842
   26          4.925066981200         0.199802139211
   27          1.669231998200         0.621492933710
   28         15.660511893000        -0.042603373667
   29          4.925066981200         0.452473704197
   30          1.669231998200         1.407438433634
   31          0.778178981800         0.273297641967
   32          0.778178981800         0.040839034523
   33          0.778178981800         0.092484441354
 P 33
    1        656.274000000000         0.000001182555
    2        149.232000000000         0.000007966002
    3         19.015300000000         0.000778705947
    4         10.737800000000        -0.003239135004
    5          6.442080000000        -0.000056853604
    6          3.092030000000         0.006679473289
    7          1.578740000000         0.006591288476
    8        656.274000000000        -0.000009202881
    9        149.232000000000        -0.000061993041
   10         19.015300000000        -0.006060047475
   11         10.737800000000         0.025207604983
   12          6.442080000000         0.000442446264
   13          3.092030000000        -0.051981014668
   14          1.578740000000        -0.051294742585
   15        656.274000000000         0.000000569256
   16        149.232000000000         0.000003834660
   17         19.015300000000         0.000374852135
   18         10.737800000000        -0.001559249262
   19          6.442080000000        -0.000027368090
   20          3.092030000000         0.003215353415
   21          1.578740000000         0.003172903161
   22         15.660511893000        -0.000233741088
   23          4.925066981200         0.002482472318
   24          1.669231998200         0.007721834259
   25         15.660511893000         0.001819020510
   26          4.925066981200        -0.019319102633
   27          1.669231998200        -0.060092878982
   28         15.660511893000        -0.000112517885
   29          4.925066981200         0.001195008274
   30          1.669231998200         0.003717123355
   31          0.778178981800        -0.038368424198
   32          0.778178981800         0.298590852332
   33          0.778178981800        -0.018469726351
 P 30
    1        656.274000000000        -0.000008434028
    2        149.232000000000        -0.000056813844
    3         19.015300000000        -0.005553761959
    4         10.737800000000         0.023101640411
    5          6.442080000000         0.000405482174
    6          3.092030000000        -0.047638270667
    7          1.578740000000        -0.047009333055
    8        656.274000000000        -0.000001083758
    9        149.232000000000        -0.000007300484
   10         19.015300000000        -0.000713649095
   11         10.737800000000         0.002968522037
   12          6.442080000000         0.000052103779
   13          3.092030000000        -0.006121437862
   14          1.578740000000        -0.006040620434
   15         15.660511893000         0.001660942969
   16          4.925066981200        -0.017640223133
   17          1.669231998200        -0.054870653885
   18         15.660511893000         0.000213428385
   19          4.925066981200        -0.002266739079
   20          1.669231998200        -0.007050786973
   21          0.778178981800         0.276716699396
   22          0.778178981800         0.035557631650
   23          0.356088437200        -0.011236386710
   24          0.356088437200        -0.001443856842
   25          0.154932426500        -0.254193899896
   26          0.154932426500        -0.032663489699
   27          0.064666212500        -0.330271879040
   28          0.064666212500        -0.042439382390
   29          0.018667676800         1.168971022141
   30          0.018667676800         0.150210815269
 P 30
    1        656.274000000000        -0.000019849673
    2        149.232000000000        -0.000133712648
    3         19.015300000000        -0.013070902484
    4         10.737800000000         0.054370225308
    5          6.442080000000         0.000954311330
    6          3.092030000000        -0.112117731182
    7          1.578740000000        -0.110637512502
    8        656.274000000000        -0.000002550650
    9        149.232000000000        -0.000017181851
   10         19.015300000000        -0.001679589055
   11         10.737800000000         0.006986482798
   12          6.442080000000         0.000122627406
   13          3.092030000000        -0.014406940487
   14          1.578740000000        -0.014216734868
   15         15.660511893000         0.003846115660
   16          4.925066981200        -0.040848084315
   17          1.669231998200        -0.127059679429
   18         15.660511893000         0.000494219414
   19          4.925066981200        -0.005248910351
   20          1.669231998200        -0.016326955786
   21          0.778178981800         0.517402173461
   22          0.778178981800         0.066485311843
   23          0.356088437200         0.662158366327
   24          0.356088437200         0.085086239938
   25          0.154932426500        -2.584940643812
   26          0.154932426500        -0.332160538971
   27          0.064666212500         2.581638986204
   28          0.064666212500         0.331736281505
   29          0.018667676800        -0.899135934375
   30          0.018667676800        -0.115537460133
 P 30
    1        656.274000000000        -0.000067892350
    2        149.232000000000        -0.000457340834
    3         19.015300000000        -0.044706746334
    4         10.737800000000         0.185963889937
    5          6.442080000000         0.003264055761
    6          3.092030000000        -0.383479180073
    7          1.578740000000        -0.378416349782
    8        656.274000000000        -0.000008724053
    9        149.232000000000        -0.000058767530
   10         19.015300000000        -0.005744741952
   11         10.737800000000         0.023896048085
   12          6.442080000000         0.000419425693
   13          3.092030000000        -0.049276431729
   14          1.578740000000        -0.048625866524
   15         15.660511893000         0.016020920036
   16          4.925066981200        -0.170151901347
   17          1.669231998200        -0.529264625302
   18         15.660511893000         0.002058661365
   19          4.925066981200        -0.021864234060
   20          1.669231998200        -0.068009617028
   21          0.778178981800         3.925853342354
   22          0.778178981800         0.504465572718
   23          0.356088437200        -5.269380709625
   24          0.356088437200        -0.677106586961
   25          0.154932426500         3.827030229172
   26          0.154932426500         0.491766968354
   27          0.064666212500        -1.594937258501
   28          0.064666212500        -0.204946763772
   29          0.018667676800         0.342108944616
   30          0.018667676800         0.043960425830
 P 33
    1        656.274000000000         0.000071381128
    2        149.232000000000         0.000480842167
    3         19.015300000000         0.047004087935
    4         10.737800000000        -0.195519999827
    5          6.442080000000        -0.003431785504
    6          3.092030000000         0.403184990627
    7          1.578740000000         0.397861997126
    8        656.274000000000        -0.000555502407
    9        149.232000000000        -0.003742011200
   10         19.015300000000        -0.365795339227
   11         10.737800000000         1.521576267166
   12          6.442080000000         0.026706850356
   13          3.092030000000        -3.137667315673
   14          1.578740000000        -3.096242701367
   15        656.274000000000         0.000034361325
   16        149.232000000000         0.000231466979
   17         19.015300000000         0.022626747383
   18         10.737800000000        -0.094119082802
   19          6.442080000000        -0.001651987031
   20          3.092030000000         0.194084500567
   21          1.578740000000         0.191522127068
   22         15.660511893000         0.017075796285
   23          4.925066981200        -0.181355327806
   24          1.669231998200        -0.564113353176
   25         15.660511893000        -0.132887307654
   26          4.925066981200         1.411343918570
   27          1.669231998200         4.390044450418
   28         15.660511893000         0.008219917583
   29          4.925066981200        -0.087300517233
   30          1.669231998200        -0.271551920234
   31          0.778178981800        -0.037118447179
   32          0.778178981800         0.288863279212
   33          0.778178981800        -0.017868014559
 end
  // -----------------------------------------------
  // The basis set
  // -----------------------------------------------
  BAS[ATNO] = new BFNGauss[NSH];
  // Basis function   1 L = s
  InitBFNGauss(BAS[ATNO][  0]);
  BAS[ATNO][  0].l  = 0;
  BAS[ATNO][  0].ng = 18;
  BAS[ATNO][  0].a[  0] =     16788.400000000001;     BAS[ATNO][  0].d[  0] =         0.000045562297;
  BAS[ATNO][  0].a[  1] =      2526.640000000000;     BAS[ATNO][  0].d[  1] =         0.000336716481;
  BAS[ATNO][  0].a[  2] =       571.984000000000;     BAS[ATNO][  0].d[  2] =         0.001385760630;
  BAS[ATNO][  0].a[  3] =       150.434000000000;     BAS[ATNO][  0].d[  3] =         0.002954881764;
  BAS[ATNO][  0].a[  4] =        29.540500000000;     BAS[ATNO][  0].d[  4] =        -0.059108748100;
  BAS[ATNO][  0].a[  5] =        18.457100000000;     BAS[ATNO][  0].d[  5] =         0.377940379520;
  BAS[ATNO][  0].a[  6] =        11.528600000000;     BAS[ATNO][  0].d[  6] =        -0.391563506832;
  BAS[ATNO][  0].a[  7] =         7.082890000000;     BAS[ATNO][  0].d[  7] =        -0.601627929661;
  BAS[ATNO][  0].a[  8] =         2.504050000000;     BAS[ATNO][  0].d[  8] =         0.795394384830;
  BAS[ATNO][  0].a[  9] =         1.354014478100;     BAS[ATNO][  0].d[  9] =         0.663650375252;
  BAS[ATNO][  0].a[ 10] =        25.058617933000;     BAS[ATNO][  0].d[ 10] =         0.010501364389;
  BAS[ATNO][  0].a[ 11] =        15.621979372000;     BAS[ATNO][  0].d[ 11] =        -0.036640394467;
  BAS[ATNO][  0].a[ 12] =         3.353632516200;     BAS[ATNO][  0].d[ 12] =         0.135873853985;
  BAS[ATNO][  0].a[ 13] =         0.674304727000;     BAS[ATNO][  0].d[ 13] =        -0.206545688995;
  BAS[ATNO][  0].a[ 14] =         0.327271369500;     BAS[ATNO][  0].d[ 14] =         0.157431353966;
  BAS[ATNO][  0].a[ 15] =         0.157493641200;     BAS[ATNO][  0].d[ 15] =        -0.093366065660;
  BAS[ATNO][  0].a[ 16] =         0.074377727800;     BAS[ATNO][  0].d[ 16] =         0.042435967414;
  BAS[ATNO][  0].a[ 17] =         0.035555048600;     BAS[ATNO][  0].d[ 17] =        -0.011417742061;

  // Basis function   2 L = p
  InitBFNGauss(BAS[ATNO][  1]);
  BAS[ATNO][  1].l  = 1;
  BAS[ATNO][  1].ng = 33;
  BAS[ATNO][  1].a[  0] =       656.274000000000;     BAS[ATNO][  1].d[  0] =         0.000000856858;
  BAS[ATNO][  1].a[  1] =       149.232000000000;     BAS[ATNO][  1].d[  1] =         0.000005772024;
  BAS[ATNO][  1].a[  2] =        19.015300000000;     BAS[ATNO][  1].d[  2] =         0.000564236499;
  BAS[ATNO][  1].a[  3] =        10.737800000000;     BAS[ATNO][  1].d[  3] =        -0.002347019697;
  BAS[ATNO][  1].a[  4] =         6.442080000000;     BAS[ATNO][  1].d[  4] =        -0.000041195111;
  BAS[ATNO][  1].a[  5] =         3.092030000000;     BAS[ATNO][  1].d[  5] =         0.004839827718;
  BAS[ATNO][  1].a[  6] =         1.578740000000;     BAS[ATNO][  1].d[  6] =         0.004775930569;
  BAS[ATNO][  1].a[  7] =       656.274000000000;     BAS[ATNO][  1].d[  7] =         0.000006346901;
  BAS[ATNO][  1].a[  8] =       149.232000000000;     BAS[ATNO][  1].d[  8] =         0.000042754404;
  BAS[ATNO][  1].a[  9] =        19.015300000000;     BAS[ATNO][  1].d[  9] =         0.004179400003;
  BAS[ATNO][  1].a[ 10] =        10.737800000000;     BAS[ATNO][  1].d[ 10] =        -0.017384791915;
  BAS[ATNO][  1].a[ 11] =         6.442080000000;     BAS[ATNO][  1].d[ 11] =        -0.000305139510;
  BAS[ATNO][  1].a[ 12] =         3.092030000000;     BAS[ATNO][  1].d[ 12] =         0.035849463849;
  BAS[ATNO][  1].a[ 13] =         1.578740000000;     BAS[ATNO][  1].d[ 13] =         0.035376166311;
  BAS[ATNO][  1].a[ 14] =       656.274000000000;     BAS[ATNO][  1].d[ 14] =         0.000100827171;
  BAS[ATNO][  1].a[ 15] =       149.232000000000;     BAS[ATNO][  1].d[ 15] =         0.000679198501;
  BAS[ATNO][  1].a[ 16] =        19.015300000000;     BAS[ATNO][  1].d[ 16] =         0.066394148170;
  BAS[ATNO][  1].a[ 17] =        10.737800000000;     BAS[ATNO][  1].d[ 17] =        -0.276175635116;
  BAS[ATNO][  1].a[ 18] =         6.442080000000;     BAS[ATNO][  1].d[ 18] =        -0.004847460833;
  BAS[ATNO][  1].a[ 19] =         3.092030000000;     BAS[ATNO][  1].d[ 19] =         0.569506295799;
  BAS[ATNO][  1].a[ 20] =         1.578740000000;     BAS[ATNO][  1].d[ 20] =         0.561987468507;
  BAS[ATNO][  1].a[ 21] =        15.660511893000;     BAS[ATNO][  1].d[ 21] =        -0.000020277825;
  BAS[ATNO][  1].a[ 22] =         4.925066981200;     BAS[ATNO][  1].d[ 22] =         0.000215362815;
  BAS[ATNO][  1].a[ 23] =         1.669231998200;     BAS[ATNO][  1].d[ 23] =         0.000669895069;
  BAS[ATNO][  1].a[ 24] =        15.660511893000;     BAS[ATNO][  1].d[ 24] =        -0.000150201451;
  BAS[ATNO][  1].a[ 25] =         4.925066981200;     BAS[ATNO][  1].d[ 25] =         0.001595230637;
  BAS[ATNO][  1].a[ 26] =         1.669231998200;     BAS[ATNO][  1].d[ 26] =         0.004962031801;
  BAS[ATNO][  1].a[ 27] =        15.660511893000;     BAS[ATNO][  1].d[ 27] =        -0.002386107429;
  BAS[ATNO][  1].a[ 28] =         4.925066981200;     BAS[ATNO][  1].d[ 28] =         0.025341910134;
  BAS[ATNO][  1].a[ 29] =         1.669231998200;     BAS[ATNO][  1].d[ 29] =         0.078827074311;
  BAS[ATNO][  1].a[ 30] =         0.778178981800;     BAS[ATNO][  1].d[ 30] =        -0.001434545298;
  BAS[ATNO][  1].a[ 31] =         0.778178981800;     BAS[ATNO][  1].d[ 31] =        -0.010625931910;
  BAS[ATNO][  1].a[ 32] =         0.778178981800;     BAS[ATNO][  1].d[ 32] =        -0.168804062090;

  // Basis function   3 L = s
  InitBFNGauss(BAS[ATNO][  2]);
  BAS[ATNO][  2].l  = 0;
  BAS[ATNO][  2].ng = 18;
  BAS[ATNO][  2].a[  0] =     16788.400000000001;     BAS[ATNO][  2].d[  0] =        -0.000031559215;
  BAS[ATNO][  2].a[  1] =      2526.640000000000;     BAS[ATNO][  2].d[  1] =        -0.000233230292;
  BAS[ATNO][  2].a[  2] =       571.984000000000;     BAS[ATNO][  2].d[  2] =        -0.000959862007;
  BAS[ATNO][  2].a[  3] =       150.434000000000;     BAS[ATNO][  2].d[  3] =        -0.002046730640;
  BAS[ATNO][  2].a[  4] =        29.540500000000;     BAS[ATNO][  2].d[  4] =         0.040942310214;
  BAS[ATNO][  2].a[  5] =        18.457100000000;     BAS[ATNO][  2].d[  5] =        -0.261784469440;
  BAS[ATNO][  2].a[  6] =        11.528600000000;     BAS[ATNO][  2].d[  6] =         0.271220675119;
  BAS[ATNO][  2].a[  7] =         7.082890000000;     BAS[ATNO][  2].d[  7] =         0.416724057288;
  BAS[ATNO][  2].a[  8] =         2.504050000000;     BAS[ATNO][  2].d[  8] =        -0.550938476838;
  BAS[ATNO][  2].a[  9] =         1.354014478100;     BAS[ATNO][  2].d[  9] =        -1.371637903884;
  BAS[ATNO][  2].a[ 10] =        25.058617933000;     BAS[ATNO][  2].d[ 10] =        -0.028098399425;
  BAS[ATNO][  2].a[ 11] =        15.621979372000;     BAS[ATNO][  2].d[ 11] =         0.098038350131;
  BAS[ATNO][  2].a[ 12] =         3.353632516200;     BAS[ATNO][  2].d[ 12] =        -0.363556360799;
  BAS[ATNO][  2].a[ 13] =         0.674304727000;     BAS[ATNO][  2].d[ 13] =         2.105354087276;
  BAS[ATNO][  2].a[ 14] =         0.327271369500;     BAS[ATNO][  2].d[ 14] =        -0.141783480234;
  BAS[ATNO][  2].a[ 15] =         0.157493641200;     BAS[ATNO][  2].d[ 15] =         0.308806045857;
  BAS[ATNO][  2].a[ 16] =         0.074377727800;     BAS[ATNO][  2].d[ 16] =        -0.142218194685;
  BAS[ATNO][  2].a[ 17] =         0.035555048600;     BAS[ATNO][  2].d[ 17] =         0.039736634317;

  // Basis function   4 L = p
  InitBFNGauss(BAS[ATNO][  3]);
  BAS[ATNO][  3].l  = 1;
  BAS[ATNO][  3].ng = 31;
  BAS[ATNO][  3].a[  0] =       656.274000000000;     BAS[ATNO][  3].d[  0] =        -0.000066133193;
  BAS[ATNO][  3].a[  1] =       149.232000000000;     BAS[ATNO][  3].d[  1] =        -0.000445490686;
  BAS[ATNO][  3].a[  2] =        19.015300000000;     BAS[ATNO][  3].d[  2] =        -0.043548350855;
  BAS[ATNO][  3].a[  3] =        10.737800000000;     BAS[ATNO][  3].d[  3] =         0.181145383853;
  BAS[ATNO][  3].a[  4] =         6.442080000000;     BAS[ATNO][  3].d[  4] =         0.003179480887;
  BAS[ATNO][  3].a[  5] =         3.092030000000;     BAS[ATNO][  3].d[  5] =        -0.373542859838;
  BAS[ATNO][  3].a[  6] =         1.578740000000;     BAS[ATNO][  3].d[  6] =        -0.368611212427;
  BAS[ATNO][  3].a[  7] =       656.274000000000;     BAS[ATNO][  3].d[  7] =        -0.000008498005;
  BAS[ATNO][  3].a[  8] =       149.232000000000;     BAS[ATNO][  3].d[  8] =        -0.000057244807;
  BAS[ATNO][  3].a[  9] =        19.015300000000;     BAS[ATNO][  3].d[  9] =        -0.005595890135;
  BAS[ATNO][  3].a[ 10] =        10.737800000000;     BAS[ATNO][  3].d[ 10] =         0.023276878380;
  BAS[ATNO][  3].a[ 11] =         6.442080000000;     BAS[ATNO][  3].d[ 11] =         0.000408557968;
  BAS[ATNO][  3].a[ 12] =         3.092030000000;     BAS[ATNO][  3].d[ 12] =        -0.047999631751;
  BAS[ATNO][  3].a[ 13] =         1.578740000000;     BAS[ATNO][  3].d[ 13] =        -0.047365923320;
  BAS[ATNO][  3].a[ 14] =        10.737800000000;     BAS[ATNO][  3].d[ 14] =         0.000000003967;
  BAS[ATNO][  3].a[ 15] =        15.660511893000;     BAS[ATNO][  3].d[ 15] =         0.009793879875;
  BAS[ATNO][  3].a[ 16] =         4.925066981200;     BAS[ATNO][  3].d[ 16] =        -0.104016952741;
  BAS[ATNO][  3].a[ 17] =         1.669231998200;     BAS[ATNO][  3].d[ 17] =        -0.323549093968;
  BAS[ATNO][  3].a[ 18] =        15.660511893000;     BAS[ATNO][  3].d[ 18] =         0.001258497158;
  BAS[ATNO][  3].a[ 19] =         4.925066981200;     BAS[ATNO][  3].d[ 19] =        -0.013366004184;
  BAS[ATNO][  3].a[ 20] =         1.669231998200;     BAS[ATNO][  3].d[ 20] =        -0.041575516583;
  BAS[ATNO][  3].a[ 21] =         0.778178981800;     BAS[ATNO][  3].d[ 21] =         1.242170347514;
  BAS[ATNO][  3].a[ 22] =         0.778178981800;     BAS[ATNO][  3].d[ 22] =         0.159616808840;
  BAS[ATNO][  3].a[ 23] =         0.356088437200;     BAS[ATNO][  3].d[ 23] =         0.192274484335;
  BAS[ATNO][  3].a[ 24] =         0.356088437200;     BAS[ATNO][  3].d[ 24] =         0.024706949150;
  BAS[ATNO][  3].a[ 25] =         0.154932426500;     BAS[ATNO][  3].d[ 25] =         0.121128290493;
  BAS[ATNO][  3].a[ 26] =         0.154932426500;     BAS[ATNO][  3].d[ 26] =         0.015564782421;
  BAS[ATNO][  3].a[ 27] =         0.064666212500;     BAS[ATNO][  3].d[ 27] =        -0.038916689960;
  BAS[ATNO][  3].a[ 28] =         0.064666212500;     BAS[ATNO][  3].d[ 28] =        -0.005000729469;
  BAS[ATNO][  3].a[ 29] =         0.018667676800;     BAS[ATNO][  3].d[ 29] =         0.009280375255;
  BAS[ATNO][  3].a[ 30] =         0.018667676800;     BAS[ATNO][  3].d[ 30] =         0.001192512673;

  // Basis function   5 L = s
  InitBFNGauss(BAS[ATNO][  4]);
  BAS[ATNO][  4].l  = 0;
  BAS[ATNO][  4].ng = 18;
  BAS[ATNO][  4].a[  0] =     16788.400000000001;     BAS[ATNO][  4].d[  0] =         0.000006097670;
  BAS[ATNO][  4].a[  1] =      2526.640000000000;     BAS[ATNO][  4].d[  1] =         0.000045063267;
  BAS[ATNO][  4].a[  2] =       571.984000000000;     BAS[ATNO][  4].d[  2] =         0.000185458406;
  BAS[ATNO][  4].a[  3] =       150.434000000000;     BAS[ATNO][  4].d[  3] =         0.000395456221;
  BAS[ATNO][  4].a[  4] =        29.540500000000;     BAS[ATNO][  4].d[  4] =        -0.007910611670;
  BAS[ATNO][  4].a[  5] =        18.457100000000;     BAS[ATNO][  4].d[  5] =         0.050580323096;
  BAS[ATNO][  4].a[  6] =        11.528600000000;     BAS[ATNO][  4].d[  6] =        -0.052403526486;
  BAS[ATNO][  4].a[  7] =         7.082890000000;     BAS[ATNO][  4].d[  7] =        -0.080516760619;
  BAS[ATNO][  4].a[  8] =         2.504050000000;     BAS[ATNO][  4].d[  8] =         0.106448813500;
  BAS[ATNO][  4].a[  9] =         1.354014478100;     BAS[ATNO][  4].d[  9] =         0.477032446451;
  BAS[ATNO][  4].a[ 10] =        25.058617933000;     BAS[ATNO][  4].d[ 10] =         0.006227883739;
  BAS[ATNO][  4].a[ 11] =        15.621979372000;     BAS[ATNO][  4].d[ 11] =        -0.021729758958;
  BAS[ATNO][  4].a[ 12] =         3.353632516200;     BAS[ATNO][  4].d[ 12] =         0.080580630715;
  BAS[ATNO][  4].a[ 13] =         0.674304727000;     BAS[ATNO][  4].d[ 13] =        -1.157985356201;
  BAS[ATNO][  4].a[ 14] =         0.327271369500;     BAS[ATNO][  4].d[ 14] =         0.590247838801;
  BAS[ATNO][  4].a[ 15] =         0.157493641200;     BAS[ATNO][  4].d[ 15] =        -0.563245733859;
  BAS[ATNO][  4].a[ 16] =         0.074377727800;     BAS[ATNO][  4].d[ 16] =         2.689921633757;
  BAS[ATNO][  4].a[ 17] =         0.035555048600;     BAS[ATNO][  4].d[ 17] =        -2.637297578495;

  // Basis function   6 L = s
  InitBFNGauss(BAS[ATNO][  5]);
  BAS[ATNO][  5].l  = 0;
  BAS[ATNO][  5].ng = 18;
  BAS[ATNO][  5].a[  0] =     16788.400000000001;     BAS[ATNO][  5].d[  0] =         0.000009922320;
  BAS[ATNO][  5].a[  1] =      2526.640000000000;     BAS[ATNO][  5].d[  1] =         0.000073328363;
  BAS[ATNO][  5].a[  2] =       571.984000000000;     BAS[ATNO][  5].d[  2] =         0.000301783740;
  BAS[ATNO][  5].a[  3] =       150.434000000000;     BAS[ATNO][  5].d[  3] =         0.000643498777;
  BAS[ATNO][  5].a[  4] =        29.540500000000;     BAS[ATNO][  5].d[  4] =        -0.012872395622;
  BAS[ATNO][  5].a[  5] =        18.457100000000;     BAS[ATNO][  5].d[  5] =         0.082305889450;
  BAS[ATNO][  5].a[  6] =        11.528600000000;     BAS[ATNO][  5].d[  6] =        -0.085272663235;
  BAS[ATNO][  5].a[  7] =         7.082890000000;     BAS[ATNO][  5].d[  7] =        -0.131019400286;
  BAS[ATNO][  5].a[  8] =         2.504050000000;     BAS[ATNO][  5].d[  8] =         0.173216850736;
  BAS[ATNO][  5].a[  9] =         1.354014478100;     BAS[ATNO][  5].d[  9] =         0.427472947718;
  BAS[ATNO][  5].a[ 10] =        25.058617933000;     BAS[ATNO][  5].d[ 10] =         0.016408016924;
  BAS[ATNO][  5].a[ 11] =        15.621979372000;     BAS[ATNO][  5].d[ 11] =        -0.057249343061;
  BAS[ATNO][  5].a[ 12] =         3.353632516200;     BAS[ATNO][  5].d[ 12] =         0.212298175088;
  BAS[ATNO][  5].a[ 13] =         0.674304727000;     BAS[ATNO][  5].d[ 13] =        -0.492768208541;
  BAS[ATNO][  5].a[ 14] =         0.327271369500;     BAS[ATNO][  5].d[ 14] =        -3.444766533200;
  BAS[ATNO][  5].a[ 15] =         0.157493641200;     BAS[ATNO][  5].d[ 15] =         8.754644650340;
  BAS[ATNO][  5].a[ 16] =         0.074377727800;     BAS[ATNO][  5].d[ 16] =        -8.622197066465;
  BAS[ATNO][  5].a[ 17] =         0.035555048600;     BAS[ATNO][  5].d[ 17] =         3.310626885223;

  // Basis function   7 L = s
  InitBFNGauss(BAS[ATNO][  6]);
  BAS[ATNO][  6].l  = 0;
  BAS[ATNO][  6].ng = 18;
  BAS[ATNO][  6].a[  0] =     16788.400000000001;     BAS[ATNO][  6].d[  0] =         0.000027001601;
  BAS[ATNO][  6].a[  1] =      2526.640000000000;     BAS[ATNO][  6].d[  1] =         0.000199548415;
  BAS[ATNO][  6].a[  2] =       571.984000000000;     BAS[ATNO][  6].d[  2] =         0.000821243845;
  BAS[ATNO][  6].a[  3] =       150.434000000000;     BAS[ATNO][  6].d[  3] =         0.001751152695;
  BAS[ATNO][  6].a[  4] =        29.540500000000;     BAS[ATNO][  6].d[  4] =        -0.035029639690;
  BAS[ATNO][  6].a[  5] =        18.457100000000;     BAS[ATNO][  6].d[  5] =         0.223978949724;
  BAS[ATNO][  6].a[  6] =        11.528600000000;     BAS[ATNO][  6].d[  6] =        -0.232052428803;
  BAS[ATNO][  6].a[  7] =         7.082890000000;     BAS[ATNO][  6].d[  7] =        -0.356542986968;
  BAS[ATNO][  6].a[  8] =         2.504050000000;     BAS[ATNO][  6].d[  8] =         0.471374874409;
  BAS[ATNO][  6].a[  9] =         1.354014478100;     BAS[ATNO][  6].d[  9] =         3.587944727647;
  BAS[ATNO][  6].a[ 10] =        25.058617933000;     BAS[ATNO][  6].d[ 10] =         0.016131920296;
  BAS[ATNO][  6].a[ 11] =        15.621979372000;     BAS[ATNO][  6].d[ 11] =        -0.056286012108;
  BAS[ATNO][  6].a[ 12] =         3.353632516200;     BAS[ATNO][  6].d[ 12] =         0.208725847576;
  BAS[ATNO][  6].a[ 13] =         0.674304727000;     BAS[ATNO][  6].d[ 13] =       -11.748783460875;
  BAS[ATNO][  6].a[ 14] =         0.327271369500;     BAS[ATNO][  6].d[ 14] =        16.407071721052;
  BAS[ATNO][  6].a[ 15] =         0.157493641200;     BAS[ATNO][  6].d[ 15] =       -13.571516599584;
  BAS[ATNO][  6].a[ 16] =         0.074377727800;     BAS[ATNO][  6].d[ 16] =         6.994220298849;
  BAS[ATNO][  6].a[ 17] =         0.035555048600;     BAS[ATNO][  6].d[ 17] =        -1.887335501126;

  // Basis function   8 L = s
  InitBFNGauss(BAS[ATNO][  7]);
  BAS[ATNO][  7].l  = 0;
  BAS[ATNO][  7].ng = 18;
  BAS[ATNO][  7].a[  0] =     16788.400000000001;     BAS[ATNO][  7].d[  0] =         0.000002756582;
  BAS[ATNO][  7].a[  1] =      2526.640000000000;     BAS[ATNO][  7].d[  1] =         0.000020371814;
  BAS[ATNO][  7].a[  2] =       571.984000000000;     BAS[ATNO][  7].d[  2] =         0.000083840438;
  BAS[ATNO][  7].a[  3] =       150.434000000000;     BAS[ATNO][  7].d[  3] =         0.000178774440;
  BAS[ATNO][  7].a[  4] =        29.540500000000;     BAS[ATNO][  7].d[  4] =        -0.003576161139;
  BAS[ATNO][  7].a[  5] =        18.457100000000;     BAS[ATNO][  7].d[  5] =         0.022865916496;
  BAS[ATNO][  7].a[  6] =        11.528600000000;     BAS[ATNO][  7].d[  6] =        -0.023690134570;
  BAS[ATNO][  7].a[  7] =         7.082890000000;     BAS[ATNO][  7].d[  7] =        -0.036399323139;
  BAS[ATNO][  7].a[  8] =         2.504050000000;     BAS[ATNO][  7].d[  8] =         0.048122462088;
  BAS[ATNO][  7].a[  9] =         1.354014478100;     BAS[ATNO][  7].d[  9] =       -11.415405594301;
  BAS[ATNO][  7].a[ 10] =        25.058617933000;     BAS[ATNO][  7].d[ 10] =         0.408533318650;
  BAS[ATNO][  7].a[ 11] =        15.621979372000;     BAS[ATNO][  7].d[ 11] =        -1.425416869081;
  BAS[ATNO][  7].a[ 12] =         3.353632516200;     BAS[ATNO][  7].d[ 12] =         5.285884236656;
  BAS[ATNO][  7].a[ 13] =         0.674304727000;     BAS[ATNO][  7].d[ 13] =        13.869476813823;
  BAS[ATNO][  7].a[ 14] =         0.327271369500;     BAS[ATNO][  7].d[ 14] =       -10.835136763026;
  BAS[ATNO][  7].a[ 15] =         0.157493641200;     BAS[ATNO][  7].d[ 15] =         6.483263499317;
  BAS[ATNO][  7].a[ 16] =         0.074377727800;     BAS[ATNO][  7].d[ 16] =        -2.918335924846;
  BAS[ATNO][  7].a[ 17] =         0.035555048600;     BAS[ATNO][  7].d[ 17] =         0.769494927210;

  // Basis function   9 L = p
  InitBFNGauss(BAS[ATNO][  8]);
  BAS[ATNO][  8].l  = 1;
  BAS[ATNO][  8].ng = 33;
  BAS[ATNO][  8].a[  0] =       656.274000000000;     BAS[ATNO][  8].d[  0] =        -0.000526255306;
  BAS[ATNO][  8].a[  1] =       149.232000000000;     BAS[ATNO][  8].d[  1] =        -0.003544994987;
  BAS[ATNO][  8].a[  2] =        19.015300000000;     BAS[ATNO][  8].d[  2] =        -0.346536280748;
  BAS[ATNO][  8].a[  3] =        10.737800000000;     BAS[ATNO][  8].d[  3] =         1.441465551784;
  BAS[ATNO][  8].a[  4] =         6.442080000000;     BAS[ATNO][  8].d[  4] =         0.025300739513;
  BAS[ATNO][  8].a[  5] =         3.092030000000;     BAS[ATNO][  8].d[  5] =        -2.972469698757;
  BAS[ATNO][  8].a[  6] =         1.578740000000;     BAS[ATNO][  8].d[  6] =        -2.933226082906;
  BAS[ATNO][  8].a[  7] =       656.274000000000;     BAS[ATNO][  8].d[  7] =        -0.000078638654;
  BAS[ATNO][  8].a[  8] =       149.232000000000;     BAS[ATNO][  8].d[  8] =        -0.000529730779;
  BAS[ATNO][  8].a[  9] =        19.015300000000;     BAS[ATNO][  8].d[  9] =        -0.051783129305;
  BAS[ATNO][  8].a[ 10] =        10.737800000000;     BAS[ATNO][  8].d[ 10] =         0.215399082878;
  BAS[ATNO][  8].a[ 11] =         6.442080000000;     BAS[ATNO][  8].d[ 11] =         0.003780705047;
  BAS[ATNO][  8].a[ 12] =         3.092030000000;     BAS[ATNO][  8].d[ 12] =        -0.444177973038;
  BAS[ATNO][  8].a[ 13] =         1.578740000000;     BAS[ATNO][  8].d[ 13] =        -0.438313775415;
  BAS[ATNO][  8].a[ 14] =       656.274000000000;     BAS[ATNO][  8].d[ 14] =        -0.000178085796;
  BAS[ATNO][  8].a[ 15] =       149.232000000000;     BAS[ATNO][  8].d[ 15] =        -0.001199633040;
  BAS[ATNO][  8].a[ 16] =        19.015300000000;     BAS[ATNO][  8].d[ 16] =        -0.117268535884;
  BAS[ATNO][  8].a[ 17] =        10.737800000000;     BAS[ATNO][  8].d[ 17] =         0.487794681756;
  BAS[ATNO][  8].a[ 18] =         6.442080000000;     BAS[ATNO][  8].d[ 18] =         0.008561818327;
  BAS[ATNO][  8].a[ 19] =         3.092030000000;     BAS[ATNO][  8].d[ 19] =        -1.005889394263;
  BAS[ATNO][  8].a[ 20] =         1.578740000000;     BAS[ATNO][  8].d[ 20] =        -0.992609280089;
  BAS[ATNO][  8].a[ 21] =        15.660511893000;     BAS[ATNO][  8].d[ 21] =        -0.125895787361;
  BAS[ATNO][  8].a[ 22] =         4.925066981200;     BAS[ATNO][  8].d[ 22] =         1.337089726646;
  BAS[ATNO][  8].a[ 23] =         1.669231998200;     BAS[ATNO][  8].d[ 23] =         4.159073672219;
  BAS[ATNO][  8].a[ 24] =        15.660511893000;     BAS[ATNO][  8].d[ 24] =        -0.018812684842;
  BAS[ATNO][  8].a[ 25] =         4.925066981200;     BAS[ATNO][  8].d[ 25] =         0.199802139211;
  BAS[ATNO][  8].a[ 26] =         1.669231998200;     BAS[ATNO][  8].d[ 26] =         0.621492933710;
  BAS[ATNO][  8].a[ 27] =        15.660511893000;     BAS[ATNO][  8].d[ 27] =        -0.042603373667;
  BAS[ATNO][  8].a[ 28] =         4.925066981200;     BAS[ATNO][  8].d[ 28] =         0.452473704197;
  BAS[ATNO][  8].a[ 29] =         1.669231998200;     BAS[ATNO][  8].d[ 29] =         1.407438433634;
  BAS[ATNO][  8].a[ 30] =         0.778178981800;     BAS[ATNO][  8].d[ 30] =         0.273297641967;
  BAS[ATNO][  8].a[ 31] =         0.778178981800;     BAS[ATNO][  8].d[ 31] =         0.040839034523;
  BAS[ATNO][  8].a[ 32] =         0.778178981800;     BAS[ATNO][  8].d[ 32] =         0.092484441354;

  // Basis function  10 L = p
  InitBFNGauss(BAS[ATNO][  9]);
  BAS[ATNO][  9].l  = 1;
  BAS[ATNO][  9].ng = 33;
  BAS[ATNO][  9].a[  0] =       656.274000000000;     BAS[ATNO][  9].d[  0] =         0.000001182555;
  BAS[ATNO][  9].a[  1] =       149.232000000000;     BAS[ATNO][  9].d[  1] =         0.000007966002;
  BAS[ATNO][  9].a[  2] =        19.015300000000;     BAS[ATNO][  9].d[  2] =         0.000778705947;
  BAS[ATNO][  9].a[  3] =        10.737800000000;     BAS[ATNO][  9].d[  3] =        -0.003239135004;
  BAS[ATNO][  9].a[  4] =         6.442080000000;     BAS[ATNO][  9].d[  4] =        -0.000056853604;
  BAS[ATNO][  9].a[  5] =         3.092030000000;     BAS[ATNO][  9].d[  5] =         0.006679473289;
  BAS[ATNO][  9].a[  6] =         1.578740000000;     BAS[ATNO][  9].d[  6] =         0.006591288476;
  BAS[ATNO][  9].a[  7] =       656.274000000000;     BAS[ATNO][  9].d[  7] =        -0.000009202881;
  BAS[ATNO][  9].a[  8] =       149.232000000000;     BAS[ATNO][  9].d[  8] =        -0.000061993041;
  BAS[ATNO][  9].a[  9] =        19.015300000000;     BAS[ATNO][  9].d[  9] =        -0.006060047475;
  BAS[ATNO][  9].a[ 10] =        10.737800000000;     BAS[ATNO][  9].d[ 10] =         0.025207604983;
  BAS[ATNO][  9].a[ 11] =         6.442080000000;     BAS[ATNO][  9].d[ 11] =         0.000442446264;
  BAS[ATNO][  9].a[ 12] =         3.092030000000;     BAS[ATNO][  9].d[ 12] =        -0.051981014668;
  BAS[ATNO][  9].a[ 13] =         1.578740000000;     BAS[ATNO][  9].d[ 13] =        -0.051294742585;
  BAS[ATNO][  9].a[ 14] =       656.274000000000;     BAS[ATNO][  9].d[ 14] =         0.000000569256;
  BAS[ATNO][  9].a[ 15] =       149.232000000000;     BAS[ATNO][  9].d[ 15] =         0.000003834660;
  BAS[ATNO][  9].a[ 16] =        19.015300000000;     BAS[ATNO][  9].d[ 16] =         0.000374852135;
  BAS[ATNO][  9].a[ 17] =        10.737800000000;     BAS[ATNO][  9].d[ 17] =        -0.001559249262;
  BAS[ATNO][  9].a[ 18] =         6.442080000000;     BAS[ATNO][  9].d[ 18] =        -0.000027368090;
  BAS[ATNO][  9].a[ 19] =         3.092030000000;     BAS[ATNO][  9].d[ 19] =         0.003215353415;
  BAS[ATNO][  9].a[ 20] =         1.578740000000;     BAS[ATNO][  9].d[ 20] =         0.003172903161;
  BAS[ATNO][  9].a[ 21] =        15.660511893000;     BAS[ATNO][  9].d[ 21] =        -0.000233741088;
  BAS[ATNO][  9].a[ 22] =         4.925066981200;     BAS[ATNO][  9].d[ 22] =         0.002482472318;
  BAS[ATNO][  9].a[ 23] =         1.669231998200;     BAS[ATNO][  9].d[ 23] =         0.007721834259;
  BAS[ATNO][  9].a[ 24] =        15.660511893000;     BAS[ATNO][  9].d[ 24] =         0.001819020510;
  BAS[ATNO][  9].a[ 25] =         4.925066981200;     BAS[ATNO][  9].d[ 25] =        -0.019319102633;
  BAS[ATNO][  9].a[ 26] =         1.669231998200;     BAS[ATNO][  9].d[ 26] =        -0.060092878982;
  BAS[ATNO][  9].a[ 27] =        15.660511893000;     BAS[ATNO][  9].d[ 27] =        -0.000112517885;
  BAS[ATNO][  9].a[ 28] =         4.925066981200;     BAS[ATNO][  9].d[ 28] =         0.001195008274;
  BAS[ATNO][  9].a[ 29] =         1.669231998200;     BAS[ATNO][  9].d[ 29] =         0.003717123355;
  BAS[ATNO][  9].a[ 30] =         0.778178981800;     BAS[ATNO][  9].d[ 30] =        -0.038368424198;
  BAS[ATNO][  9].a[ 31] =         0.778178981800;     BAS[ATNO][  9].d[ 31] =         0.298590852332;
  BAS[ATNO][  9].a[ 32] =         0.778178981800;     BAS[ATNO][  9].d[ 32] =        -0.018469726351;

  // Basis function  11 L = p
  InitBFNGauss(BAS[ATNO][ 10]);
  BAS[ATNO][ 10].l  = 1;
  BAS[ATNO][ 10].ng = 30;
  BAS[ATNO][ 10].a[  0] =       656.274000000000;     BAS[ATNO][ 10].d[  0] =        -0.000008434028;
  BAS[ATNO][ 10].a[  1] =       149.232000000000;     BAS[ATNO][ 10].d[  1] =        -0.000056813844;
  BAS[ATNO][ 10].a[  2] =        19.015300000000;     BAS[ATNO][ 10].d[  2] =        -0.005553761959;
  BAS[ATNO][ 10].a[  3] =        10.737800000000;     BAS[ATNO][ 10].d[  3] =         0.023101640411;
  BAS[ATNO][ 10].a[  4] =         6.442080000000;     BAS[ATNO][ 10].d[  4] =         0.000405482174;
  BAS[ATNO][ 10].a[  5] =         3.092030000000;     BAS[ATNO][ 10].d[  5] =        -0.047638270667;
  BAS[ATNO][ 10].a[  6] =         1.578740000000;     BAS[ATNO][ 10].d[  6] =        -0.047009333055;
  BAS[ATNO][ 10].a[  7] =       656.274000000000;     BAS[ATNO][ 10].d[  7] =        -0.000001083758;
  BAS[ATNO][ 10].a[  8] =       149.232000000000;     BAS[ATNO][ 10].d[  8] =        -0.000007300484;
  BAS[ATNO][ 10].a[  9] =        19.015300000000;     BAS[ATNO][ 10].d[  9] =        -0.000713649095;
  BAS[ATNO][ 10].a[ 10] =        10.737800000000;     BAS[ATNO][ 10].d[ 10] =         0.002968522037;
  BAS[ATNO][ 10].a[ 11] =         6.442080000000;     BAS[ATNO][ 10].d[ 11] =         0.000052103779;
  BAS[ATNO][ 10].a[ 12] =         3.092030000000;     BAS[ATNO][ 10].d[ 12] =        -0.006121437862;
  BAS[ATNO][ 10].a[ 13] =         1.578740000000;     BAS[ATNO][ 10].d[ 13] =        -0.006040620434;
  BAS[ATNO][ 10].a[ 14] =        15.660511893000;     BAS[ATNO][ 10].d[ 14] =         0.001660942969;
  BAS[ATNO][ 10].a[ 15] =         4.925066981200;     BAS[ATNO][ 10].d[ 15] =        -0.017640223133;
  BAS[ATNO][ 10].a[ 16] =         1.669231998200;     BAS[ATNO][ 10].d[ 16] =        -0.054870653885;
  BAS[ATNO][ 10].a[ 17] =        15.660511893000;     BAS[ATNO][ 10].d[ 17] =         0.000213428385;
  BAS[ATNO][ 10].a[ 18] =         4.925066981200;     BAS[ATNO][ 10].d[ 18] =        -0.002266739079;
  BAS[ATNO][ 10].a[ 19] =         1.669231998200;     BAS[ATNO][ 10].d[ 19] =        -0.007050786973;
  BAS[ATNO][ 10].a[ 20] =         0.778178981800;     BAS[ATNO][ 10].d[ 20] =         0.276716699396;
  BAS[ATNO][ 10].a[ 21] =         0.778178981800;     BAS[ATNO][ 10].d[ 21] =         0.035557631650;
  BAS[ATNO][ 10].a[ 22] =         0.356088437200;     BAS[ATNO][ 10].d[ 22] =        -0.011236386710;
  BAS[ATNO][ 10].a[ 23] =         0.356088437200;     BAS[ATNO][ 10].d[ 23] =        -0.001443856842;
  BAS[ATNO][ 10].a[ 24] =         0.154932426500;     BAS[ATNO][ 10].d[ 24] =        -0.254193899896;
  BAS[ATNO][ 10].a[ 25] =         0.154932426500;     BAS[ATNO][ 10].d[ 25] =        -0.032663489699;
  BAS[ATNO][ 10].a[ 26] =         0.064666212500;     BAS[ATNO][ 10].d[ 26] =        -0.330271879040;
  BAS[ATNO][ 10].a[ 27] =         0.064666212500;     BAS[ATNO][ 10].d[ 27] =        -0.042439382390;
  BAS[ATNO][ 10].a[ 28] =         0.018667676800;     BAS[ATNO][ 10].d[ 28] =         1.168971022141;
  BAS[ATNO][ 10].a[ 29] =         0.018667676800;     BAS[ATNO][ 10].d[ 29] =         0.150210815269;

  // Basis function  12 L = p
  InitBFNGauss(BAS[ATNO][ 11]);
  BAS[ATNO][ 11].l  = 1;
  BAS[ATNO][ 11].ng = 30;
  BAS[ATNO][ 11].a[  0] =       656.274000000000;     BAS[ATNO][ 11].d[  0] =         0.000019849673;
  BAS[ATNO][ 11].a[  1] =       149.232000000000;     BAS[ATNO][ 11].d[  1] =         0.000133712648;
  BAS[ATNO][ 11].a[  2] =        19.015300000000;     BAS[ATNO][ 11].d[  2] =         0.013070902484;
  BAS[ATNO][ 11].a[  3] =        10.737800000000;     BAS[ATNO][ 11].d[  3] =        -0.054370225308;
  BAS[ATNO][ 11].a[  4] =         6.442080000000;     BAS[ATNO][ 11].d[  4] =        -0.000954311330;
  BAS[ATNO][ 11].a[  5] =         3.092030000000;     BAS[ATNO][ 11].d[  5] =         0.112117731182;
  BAS[ATNO][ 11].a[  6] =         1.578740000000;     BAS[ATNO][ 11].d[  6] =         0.110637512502;
  BAS[ATNO][ 11].a[  7] =       656.274000000000;     BAS[ATNO][ 11].d[  7] =         0.000002550650;
  BAS[ATNO][ 11].a[  8] =       149.232000000000;     BAS[ATNO][ 11].d[  8] =         0.000017181851;
  BAS[ATNO][ 11].a[  9] =        19.015300000000;     BAS[ATNO][ 11].d[  9] =         0.001679589055;
  BAS[ATNO][ 11].a[ 10] =        10.737800000000;     BAS[ATNO][ 11].d[ 10] =        -0.006986482798;
  BAS[ATNO][ 11].a[ 11] =         6.442080000000;     BAS[ATNO][ 11].d[ 11] =        -0.000122627406;
  BAS[ATNO][ 11].a[ 12] =         3.092030000000;     BAS[ATNO][ 11].d[ 12] =         0.014406940487;
  BAS[ATNO][ 11].a[ 13] =         1.578740000000;     BAS[ATNO][ 11].d[ 13] =         0.014216734868;
  BAS[ATNO][ 11].a[ 14] =        15.660511893000;     BAS[ATNO][ 11].d[ 14] =        -0.003846115660;
  BAS[ATNO][ 11].a[ 15] =         4.925066981200;     BAS[ATNO][ 11].d[ 15] =         0.040848084315;
  BAS[ATNO][ 11].a[ 16] =         1.669231998200;     BAS[ATNO][ 11].d[ 16] =         0.127059679429;
  BAS[ATNO][ 11].a[ 17] =        15.660511893000;     BAS[ATNO][ 11].d[ 17] =        -0.000494219414;
  BAS[ATNO][ 11].a[ 18] =         4.925066981200;     BAS[ATNO][ 11].d[ 18] =         0.005248910351;
  BAS[ATNO][ 11].a[ 19] =         1.669231998200;     BAS[ATNO][ 11].d[ 19] =         0.016326955786;
  BAS[ATNO][ 11].a[ 20] =         0.778178981800;     BAS[ATNO][ 11].d[ 20] =        -0.517402173461;
  BAS[ATNO][ 11].a[ 21] =         0.778178981800;     BAS[ATNO][ 11].d[ 21] =        -0.066485311843;
  BAS[ATNO][ 11].a[ 22] =         0.356088437200;     BAS[ATNO][ 11].d[ 22] =        -0.662158366327;
  BAS[ATNO][ 11].a[ 23] =         0.356088437200;     BAS[ATNO][ 11].d[ 23] =        -0.085086239938;
  BAS[ATNO][ 11].a[ 24] =         0.154932426500;     BAS[ATNO][ 11].d[ 24] =         2.584940643812;
  BAS[ATNO][ 11].a[ 25] =         0.154932426500;     BAS[ATNO][ 11].d[ 25] =         0.332160538971;
  BAS[ATNO][ 11].a[ 26] =         0.064666212500;     BAS[ATNO][ 11].d[ 26] =        -2.581638986204;
  BAS[ATNO][ 11].a[ 27] =         0.064666212500;     BAS[ATNO][ 11].d[ 27] =        -0.331736281505;
  BAS[ATNO][ 11].a[ 28] =         0.018667676800;     BAS[ATNO][ 11].d[ 28] =         0.899135934375;
  BAS[ATNO][ 11].a[ 29] =         0.018667676800;     BAS[ATNO][ 11].d[ 29] =         0.115537460133;

  // Basis function  13 L = p
  InitBFNGauss(BAS[ATNO][ 12]);
  BAS[ATNO][ 12].l  = 1;
  BAS[ATNO][ 12].ng = 30;
  BAS[ATNO][ 12].a[  0] =       656.274000000000;     BAS[ATNO][ 12].d[  0] =         0.000067892350;
  BAS[ATNO][ 12].a[  1] =       149.232000000000;     BAS[ATNO][ 12].d[  1] =         0.000457340834;
  BAS[ATNO][ 12].a[  2] =        19.015300000000;     BAS[ATNO][ 12].d[  2] =         0.044706746334;
  BAS[ATNO][ 12].a[  3] =        10.737800000000;     BAS[ATNO][ 12].d[  3] =        -0.185963889937;
  BAS[ATNO][ 12].a[  4] =         6.442080000000;     BAS[ATNO][ 12].d[  4] =        -0.003264055761;
  BAS[ATNO][ 12].a[  5] =         3.092030000000;     BAS[ATNO][ 12].d[  5] =         0.383479180073;
  BAS[ATNO][ 12].a[  6] =         1.578740000000;     BAS[ATNO][ 12].d[  6] =         0.378416349782;
  BAS[ATNO][ 12].a[  7] =       656.274000000000;     BAS[ATNO][ 12].d[  7] =         0.000008724053;
  BAS[ATNO][ 12].a[  8] =       149.232000000000;     BAS[ATNO][ 12].d[  8] =         0.000058767530;
  BAS[ATNO][ 12].a[  9] =        19.015300000000;     BAS[ATNO][ 12].d[  9] =         0.005744741952;
  BAS[ATNO][ 12].a[ 10] =        10.737800000000;     BAS[ATNO][ 12].d[ 10] =        -0.023896048085;
  BAS[ATNO][ 12].a[ 11] =         6.442080000000;     BAS[ATNO][ 12].d[ 11] =        -0.000419425693;
  BAS[ATNO][ 12].a[ 12] =         3.092030000000;     BAS[ATNO][ 12].d[ 12] =         0.049276431729;
  BAS[ATNO][ 12].a[ 13] =         1.578740000000;     BAS[ATNO][ 12].d[ 13] =         0.048625866524;
  BAS[ATNO][ 12].a[ 14] =        15.660511893000;     BAS[ATNO][ 12].d[ 14] =        -0.016020920036;
  BAS[ATNO][ 12].a[ 15] =         4.925066981200;     BAS[ATNO][ 12].d[ 15] =         0.170151901347;
  BAS[ATNO][ 12].a[ 16] =         1.669231998200;     BAS[ATNO][ 12].d[ 16] =         0.529264625302;
  BAS[ATNO][ 12].a[ 17] =        15.660511893000;     BAS[ATNO][ 12].d[ 17] =        -0.002058661365;
  BAS[ATNO][ 12].a[ 18] =         4.925066981200;     BAS[ATNO][ 12].d[ 18] =         0.021864234060;
  BAS[ATNO][ 12].a[ 19] =         1.669231998200;     BAS[ATNO][ 12].d[ 19] =         0.068009617028;
  BAS[ATNO][ 12].a[ 20] =         0.778178981800;     BAS[ATNO][ 12].d[ 20] =        -3.925853342354;
  BAS[ATNO][ 12].a[ 21] =         0.778178981800;     BAS[ATNO][ 12].d[ 21] =        -0.504465572718;
  BAS[ATNO][ 12].a[ 22] =         0.356088437200;     BAS[ATNO][ 12].d[ 22] =         5.269380709625;
  BAS[ATNO][ 12].a[ 23] =         0.356088437200;     BAS[ATNO][ 12].d[ 23] =         0.677106586961;
  BAS[ATNO][ 12].a[ 24] =         0.154932426500;     BAS[ATNO][ 12].d[ 24] =        -3.827030229172;
  BAS[ATNO][ 12].a[ 25] =         0.154932426500;     BAS[ATNO][ 12].d[ 25] =        -0.491766968354;
  BAS[ATNO][ 12].a[ 26] =         0.064666212500;     BAS[ATNO][ 12].d[ 26] =         1.594937258501;
  BAS[ATNO][ 12].a[ 27] =         0.064666212500;     BAS[ATNO][ 12].d[ 27] =         0.204946763772;
  BAS[ATNO][ 12].a[ 28] =         0.018667676800;     BAS[ATNO][ 12].d[ 28] =        -0.342108944616;
  BAS[ATNO][ 12].a[ 29] =         0.018667676800;     BAS[ATNO][ 12].d[ 29] =        -0.043960425830;

  // Basis function  14 L = p
  InitBFNGauss(BAS[ATNO][ 13]);
  BAS[ATNO][ 13].l  = 1;
  BAS[ATNO][ 13].ng = 33;
  BAS[ATNO][ 13].a[  0] =       656.274000000000;     BAS[ATNO][ 13].d[  0] =         0.000071381128;
  BAS[ATNO][ 13].a[  1] =       149.232000000000;     BAS[ATNO][ 13].d[  1] =         0.000480842167;
  BAS[ATNO][ 13].a[  2] =        19.015300000000;     BAS[ATNO][ 13].d[  2] =         0.047004087935;
  BAS[ATNO][ 13].a[  3] =        10.737800000000;     BAS[ATNO][ 13].d[  3] =        -0.195519999827;
  BAS[ATNO][ 13].a[  4] =         6.442080000000;     BAS[ATNO][ 13].d[  4] =        -0.003431785504;
  BAS[ATNO][ 13].a[  5] =         3.092030000000;     BAS[ATNO][ 13].d[  5] =         0.403184990627;
  BAS[ATNO][ 13].a[  6] =         1.578740000000;     BAS[ATNO][ 13].d[  6] =         0.397861997126;
  BAS[ATNO][ 13].a[  7] =       656.274000000000;     BAS[ATNO][ 13].d[  7] =        -0.000555502407;
  BAS[ATNO][ 13].a[  8] =       149.232000000000;     BAS[ATNO][ 13].d[  8] =        -0.003742011200;
  BAS[ATNO][ 13].a[  9] =        19.015300000000;     BAS[ATNO][ 13].d[  9] =        -0.365795339227;
  BAS[ATNO][ 13].a[ 10] =        10.737800000000;     BAS[ATNO][ 13].d[ 10] =         1.521576267166;
  BAS[ATNO][ 13].a[ 11] =         6.442080000000;     BAS[ATNO][ 13].d[ 11] =         0.026706850356;
  BAS[ATNO][ 13].a[ 12] =         3.092030000000;     BAS[ATNO][ 13].d[ 12] =        -3.137667315673;
  BAS[ATNO][ 13].a[ 13] =         1.578740000000;     BAS[ATNO][ 13].d[ 13] =        -3.096242701367;
  BAS[ATNO][ 13].a[ 14] =       656.274000000000;     BAS[ATNO][ 13].d[ 14] =         0.000034361325;
  BAS[ATNO][ 13].a[ 15] =       149.232000000000;     BAS[ATNO][ 13].d[ 15] =         0.000231466979;
  BAS[ATNO][ 13].a[ 16] =        19.015300000000;     BAS[ATNO][ 13].d[ 16] =         0.022626747383;
  BAS[ATNO][ 13].a[ 17] =        10.737800000000;     BAS[ATNO][ 13].d[ 17] =        -0.094119082802;
  BAS[ATNO][ 13].a[ 18] =         6.442080000000;     BAS[ATNO][ 13].d[ 18] =        -0.001651987031;
  BAS[ATNO][ 13].a[ 19] =         3.092030000000;     BAS[ATNO][ 13].d[ 19] =         0.194084500567;
  BAS[ATNO][ 13].a[ 20] =         1.578740000000;     BAS[ATNO][ 13].d[ 20] =         0.191522127068;
  BAS[ATNO][ 13].a[ 21] =        15.660511893000;     BAS[ATNO][ 13].d[ 21] =         0.017075796285;
  BAS[ATNO][ 13].a[ 22] =         4.925066981200;     BAS[ATNO][ 13].d[ 22] =        -0.181355327806;
  BAS[ATNO][ 13].a[ 23] =         1.669231998200;     BAS[ATNO][ 13].d[ 23] =        -0.564113353176;
  BAS[ATNO][ 13].a[ 24] =        15.660511893000;     BAS[ATNO][ 13].d[ 24] =        -0.132887307654;
  BAS[ATNO][ 13].a[ 25] =         4.925066981200;     BAS[ATNO][ 13].d[ 25] =         1.411343918570;
  BAS[ATNO][ 13].a[ 26] =         1.669231998200;     BAS[ATNO][ 13].d[ 26] =         4.390044450418;
  BAS[ATNO][ 13].a[ 27] =        15.660511893000;     BAS[ATNO][ 13].d[ 27] =         0.008219917583;
  BAS[ATNO][ 13].a[ 28] =         4.925066981200;     BAS[ATNO][ 13].d[ 28] =        -0.087300517233;
  BAS[ATNO][ 13].a[ 29] =         1.669231998200;     BAS[ATNO][ 13].d[ 29] =        -0.271551920234;
  BAS[ATNO][ 13].a[ 30] =         0.778178981800;     BAS[ATNO][ 13].d[ 30] =        -0.037118447179;
  BAS[ATNO][ 13].a[ 31] =         0.778178981800;     BAS[ATNO][ 13].d[ 31] =         0.288863279212;
  BAS[ATNO][ 13].a[ 32] =         0.778178981800;     BAS[ATNO][ 13].d[ 32] =        -0.017868014559;

-------------------------------------------
RADIAL EXPECTATION VALUES <R**-3> TO <R**3>
-------------------------------------------
   0 :     0.000000     2.566422     1.521639     0.714545     0.552835     0.463282
   1 :     4.197416     2.322870     1.450887     0.753336     0.618184     0.562825
   2 :     4.197416     2.322870     1.450887     0.753336     0.618184     0.562825
   3 :     4.199827     2.323746     1.451170     0.753172     0.617911     0.562570
   4 :     0.000000     0.914230     0.831731     1.412914     2.205448     3.719636
   5 :     1.142285     0.772263     0.765994     1.534515     2.605048     4.806009
   6 :     1.142285     0.772263     0.765994     1.534515     2.605048     4.806009
   7 :     0.000000     0.259744     0.411638     2.921731     9.433580    32.859598
   8 :     0.000000     0.053647     0.180848     6.419245    44.221181   320.420563
   9 :     0.000000     0.123488     0.256720     5.300776    33.845417   245.831306
  10 :     0.000000     0.425086     0.480632     3.183897    14.072108    80.948141
  11 :     0.000000     3.538577     1.472477     1.228573     3.059386    13.880403
  12 :    48.068271    10.921477     3.015716     0.424642     0.287712     0.537732
  13 :     1.153381     0.777914     0.769012     1.527604     2.579188     4.727049
  14 :     0.242932     0.209577     0.370317     3.250497    11.713937    45.760426
  15 :     0.020874     0.029395     0.137339     8.393120    76.388825   741.800991
  16 :     0.243803     0.209226     0.368811     3.275586    11.917698    47.062840
  17 :     0.243803     0.209226     0.368811     3.275586    11.917698    47.062840
  18 :     0.017553     0.026398     0.132256     8.594976    79.565567   782.422524
  19 :     0.017553     0.026398     0.132256     8.594976    79.565567   782.422524
  20 :     0.098489     0.094594     0.229406     5.962418    44.408572   394.147636
  21 :     0.098489     0.094594     0.229406     5.962418    44.408572   394.147636
  22 :     0.092491     0.089658     0.222466     6.179720    47.674675   434.947693
  23 :     0.753121     0.470545     0.515452     3.025574    13.251104    81.658581
  24 :     0.753121     0.470545     0.515452     3.025574    13.251104    81.658581
  25 :     0.744750     0.466011     0.512600     3.042244    13.391490    82.860978
  26 :    48.068271    10.921477     3.015716     0.424642     0.287712     0.537732
  27 :    48.066683    10.921072     3.015619     0.424691     0.287857     0.538439
  28 :     0.000000    32.352373     4.572073     0.406408     0.575985     2.417189
Making the total density                ... o.k.
o.k.
Initializing the integrals              ... done
Making exponents                        ... done
Making rho(0)                           ... done (         0.399134263)
Integral calculation                    ... Two index integrals                     ... done
Solving the equation system             ... done
atomic density will be written to file 53_I_atom53.adf

-------
TIMINGS
-------

Total SCF time: 0 days 0 hours 0 min 0 sec 

Total time                  ....       0.621 sec
Sum of individual times     ....       0.248 sec  ( 39.9%)

Fock matrix formation       ....       0.179 sec  ( 28.8%)
Diagonalization             ....       0.030 sec  (  4.9%)
Density matrix formation    ....       0.000 sec  (  0.1%)
Population analysis         ....       0.000 sec  (  0.0%)
Initial guess               ....       0.000 sec  (  0.1%)
Orbital Transformation      ....       0.000 sec  (  0.0%)
Orbital Orthonormalization  ....       0.000 sec  (  0.0%)
DIIS solution               ....       0.038 sec  (  6.1%)

-------------------------   --------------------
FINAL SINGLE POINT ENERGY      -258.065099010801
-------------------------   --------------------


                            ***************************************
                            *     ORCA property calculations      *
                            ***************************************

                                    ---------------------
                                    Active property flags
                                    ---------------------
   (+) Dipole Moment


------------------------------------------------------------------------------
                       ORCA ELECTRIC PROPERTIES CALCULATION
------------------------------------------------------------------------------

Dipole Moment Calculation                       ... on
Quadrupole Moment Calculation                   ... off
Polarizability Calculation                      ... off
GBWName                                         ... 53_I_atom53.gbw
Electron density file                           ... 53_I_atom53.scfp
The origin for moment calculation is the CENTER OF MASS  = ( 0.000000,  0.000000  0.000000)

-------------
DIPOLE MOMENT
-------------
                                X             Y             Z
Electronic contribution:     -0.00000       0.00000       0.00000
Nuclear contribution   :      0.00000       0.00000       0.00000
                        -----------------------------------------
Total Dipole Moment    :     -0.00000       0.00000       0.00000
                        -----------------------------------------
Magnitude (a.u.)       :      0.00000
Magnitude (Debye)      :      0.00000



--------------------
Rotational spectrum 
--------------------
 
Rotational constants in cm-1:     0.000000     0.000000     0.000000 
Rotational constants in MHz :     0.000000     0.000000     0.000000 

 Dipole components along the rotational axes: 
x,y,z [a.u.] :    -0.000000     0.000000     0.000000 
x,y,z [Debye]:    -0.000000     0.000000     0.000000 

 

Timings for individual modules:

Sum of individual times         ...        0.889 sec (=   0.015 min)
GTO integral calculation        ...        0.247 sec (=   0.004 min)  27.8 %
SCF iterations                  ...        0.642 sec (=   0.011 min)  72.2 %
                             ****ORCA TERMINATED NORMALLY****
TOTAL RUN TIME: 0 days 0 hours 0 minutes 1 seconds 110 msec
