
                                 *****************
                                 * O   R   C   A *
                                 *****************

           --- An Ab Initio, DFT and Semiempirical electronic structure package ---

                  #######################################################
                  #                        -***-                        #
                  #          Department of theory and spectroscopy      #
                  #               Directorship: Frank Neese             #
                  #        Max Planck Institute fuer Kohlenforschung    #
                  #                Kaiser Wilhelm Platz 1               #
                  #                 D-45470 Muelheim/Ruhr               #
                  #                      Germany                        #
                  #                                                     #
                  #                  All rights reserved                #
                  #                        -***-                        #
                  #######################################################


                         Program Version 4.2.0 -  RELEASE  -


 With contributions from (in alphabetic order):
   Daniel Aravena         : Magnetic Suceptibility
   Michael Atanasov       : Ab Initio Ligand Field Theory (pilot matlab implementation)
   Alexander A. Auer      : GIAO ZORA, VPT2
   Ute Becker             : Parallelization
   Giovanni Bistoni       : ED, misc. LED, open-shell LED, HFLED
   Martin Brehm           : Molecular dynamics
   Dmytro Bykov           : SCF Hessian
   Vijay G. Chilkuri      : MRCI spin determinant printing, contributions to CSF-ICE
   Dipayan Datta          : RHF DLPNO-CCSD density
   Achintya Kumar Dutta   : EOM-CC, STEOM-CC
   Dmitry Ganyushin       : Spin-Orbit,Spin-Spin,Magnetic field MRCI
   Miquel Garcia          : C-PCM Hessian, Gaussian charge scheme
   Yang Guo               : DLPNO-NEVPT2, CIM, IAO-localization
   Andreas Hansen         : Spin unrestricted coupled pair/coupled cluster methods
   Benjamin Helmich-Paris : CASSCF linear response (MC-RPA)
   Lee Huntington         : MR-EOM, pCC
   Robert Izsak           : Overlap fitted RIJCOSX, COSX-SCS-MP3, EOM
   Christian Kollmar      : KDIIS, OOCD, Brueckner-CCSD(T), CCSD density
   Simone Kossmann        : Meta GGA functionals, TD-DFT gradient, OOMP2, MP2 Hessian
   Martin Krupicka        : AUTO-CI
   Lucas Lang             : DCDCAS
   Dagmar Lenk            : GEPOL surface, SMD
   Dimitrios Liakos       : Extrapolation schemes; Compound Job, initial MDCI parallelization
   Dimitrios Manganas     : Further ROCIS development; embedding schemes
   Dimitrios Pantazis     : SARC Basis sets
   Taras Petrenko         : DFT Hessian,TD-DFT gradient, ASA, ECA, R-Raman, ABS, FL, XAS/XES, NRVS
   Peter Pinski           : DLPNO-MP2, DLPNO-MP2 Gradient
   Christoph Reimann      : Effective Core Potentials
   Marius Retegan         : Local ZFS, SOC
   Christoph Riplinger    : Optimizer, TS searches, QM/MM, DLPNO-CCSD(T), (RO)-DLPNO pert. Triples
   Tobias Risthaus        : Range-separated hybrids, TD-DFT gradient, RPA, STAB
   Michael Roemelt        : Original ROCIS implementation
   Masaaki Saitow         : Open-shell DLPNO-CCSD energy and density
   Barbara Sandhoefer     : DKH picture change effects
   Avijit Sen             : IP-ROCIS
   Kantharuban Sivalingam : CASSCF convergence, NEVPT2, FIC-MRCI
   Bernardo de Souza      : ESD, SOC TD-DFT
   Georgi Stoychev        : AutoAux, RI-MP2 NMR
   Willem Van den Heuvel  : Paramagnetic NMR
   Boris Wezisla          : Elementary symmetry handling
   Frank Wennmohs         : Technical directorship


 We gratefully acknowledge several colleagues who have allowed us to
 interface, adapt or use parts of their codes:
   Stefan Grimme, W. Hujo, H. Kruse,             : VdW corrections, initial TS optimization,
                  C. Bannwarth                     DFT functionals, gCP, sTDA/sTD-DF
   Ed Valeev, F. Pavosevic, A. Kumar             : LibInt (2-el integral package), F12 methods
   Garnet Chan, S. Sharma, J. Yang, R. Olivares  : DMRG
   Ulf Ekstrom                                   : XCFun DFT Library
   Mihaly Kallay                                 : mrcc  (arbitrary order and MRCC methods)
   Andreas Klamt, Michael Diedenhofen            : otool_cosmo (COSMO solvation model)
   Jiri Pittner, Ondrej Demel                    : Mk-CCSD
   Frank Weinhold                                : gennbo (NPA and NBO analysis)
   Christopher J. Cramer and Donald G. Truhlar   : smd solvation model
   Lars Goerigk                                  : TD-DFT with DH, B97 family of functionals
   V. Asgeirsson, H. Jonsson                     : NEB implementation
   FAccTs GmbH                                   : IRC, NEB, NEB-TS, Multilevel, MM, QM/MM, CI optimization
   S Lehtola, MJT Oliveira, MAL Marques          : LibXC Library


 Your calculation uses the libint2 library for the computation of 2-el integrals
 For citations please refer to: http://libint.valeyev.net

 Your ORCA version has been built with support for libXC version: 4.2.3
 For citations please refer to: https://tddft.org/programs/libxc/

 This ORCA versions uses:
   CBLAS   interface :  Fast vector & matrix operations
   LAPACKE interface :  Fast linear algebra routines
   SCALAPACK package :  Parallel linear algebra routines


----- Orbital basis set information -----
Your calculation utilizes the basis: def2-QZVPPD
   F. Weigend and R. Ahlrichs, Phys. Chem. Chem. Phys. 7, 3297 (2005).
   D. Rappoport and F. Furche, J. Chem. Phys. 133 134105 (2010).

cite the ECPs for Xe [Def2-ECP] as follows:
Ce-Yb(ecp-28): M. Dolg, H. Stoll, H.Preuss, J. Chem. Phys., 1989, 90, 1730-1734.
Y-Cd(ecp-28), Hf-Hg(ecp-46): D. Andrae,U. Haeussermann, M. Dolg, H. Stoll, H. Preuss, Theor. Chim. Acta, 1990, 77, 123-141.
In-Sb(ecp-28), Tl-Bi(ecp-46): B. Metz, H. Stoll, M. Dolg, J. Chem. Phys., 2000, 113, 2563-2569.
Te-Xe(ecp-28), Po-Rn(ecp-46): K. A. Peterson, D. Figgen, E. Goll, H. Stoll, M. Dolg, J. Chem. Phys., 2003, 119, 11113-11123.
Rb(ecp-28), Cs(ecp-46): T. Leininger, A. Nicklass, W. Kuechle, H. Stoll, M. Dolg, A. Bergner, Chem. Phys. Lett., 1996, 255, 274-280.
Sr(ecp-28), Ba(ecp-46): M. Kaupp, P. V. Schleyer, H. Stoll and H. Preuss, J. Chem. Phys., 1991, 94, 1360-1366.
La(ecp-46): M. Dolg, H. Stoll, A. Savin, H. Preuss, Theor. Chim. Acta, 1989, 75, 173-194.
Lu(ecp-28): X. Cao, M. Dolg, J. Chem. Phys., 2001, 115, 7348-7355.

ECP parameters for Xe [Def2-ECP] have been obtained from:
TURBOMOLE (7.0.2)

================================================================================
                                        WARNINGS
                       Please study these warnings very carefully!
================================================================================


WARNING: MDCI localization with Augmented Hessian Foster-Boys
  ===> : Switching off randomization!

WARNING: Post HF methods need fully converged wavefunctions
  ===> : Setting SCFConvForced true
         You can overwrite this default with %scf ConvForced false 


INFO   : the flag for use of LIBINT has been found!

================================================================================
                                       INPUT FILE
================================================================================
NAME = 54_Xe.in
|  1> #
|  2> # 54_Xe CCSD(T)/Def2-QZVPPD
|  3> #
|  4> ! CCSD(T) Def2-QZVPPD tightscf
|  5> 
|  6> *xyz 0 1
|  7>  Xe 0.0 0.0 0.0
|  8> *
|  9> 
| 10> %maxcore 5000 
| 11> 
| 12> %pal
| 13> nprocs 24
| 14> end
| 15> 
| 16> 
| 17>                          ****END OF INPUT****
================================================================================

                       ****************************
                       * Single Point Calculation *
                       ****************************

---------------------------------
CARTESIAN COORDINATES (ANGSTROEM)
---------------------------------
  Xe     0.000000    0.000000    0.000000

----------------------------
CARTESIAN COORDINATES (A.U.)
----------------------------
  NO LB      ZA    FRAG     MASS         X           Y           Z
   0 Xe   26.0000*   0   131.300    0.000000    0.000000    0.000000
* core charge reduced due to ECP

--------------------------------
INTERNAL COORDINATES (ANGSTROEM)
--------------------------------
 Xe     0   0   0     0.000000000000     0.00000000     0.00000000

---------------------------
INTERNAL COORDINATES (A.U.)
---------------------------
 Xe     0   0   0     0.000000000000     0.00000000     0.00000000

---------------------
BASIS SET INFORMATION
---------------------
There are 1 groups of distinct atoms

 Group   1 Type Xe  : 18s15p12d4f1g contracted to 8s7p5d4f1g pattern {91311111/7311111/81111/1111/1}

Atom   0Xe   basis set group =>   1
-------------------------
ECP PARAMETER INFORMATION
-------------------------

 Group 1, Type Xe ECP Def2-ECP (replacing 28 core electrons, lmax=3)

Atom   0Xe   ECP group =>   1



           ************************************************************
           *        Program running with 24 parallel MPI-processes    *
           *              working on a common directory               *
           ************************************************************
------------------------------------------------------------------------------
                           ORCA GTO INTEGRAL CALCULATION
------------------------------------------------------------------------------

                         BASIS SET STATISTICS AND STARTUP INFO

 # of primitive gaussian shells          ...   50
 # of primitive gaussian functions       ...  160
 # of contracted shells                  ...   25
 # of contracted basis functions         ...   91
 Highest angular momentum                ...    4
 Maximum contraction depth               ...    9
 Integral package used                   ... LIBINT
 Integral threshhold            Thresh   ...  2.500e-11
 Primitive cut-off              TCut     ...  2.500e-12


------------------------------ INTEGRAL EVALUATION ----------------------------


 * One electron integrals 

   ECP integrals                         ... done
 Pre-screening matrix                    ... done
 Shell pair data                         ... done (   0.000 sec)



           ************************************************************
           *        Program running with 24 parallel MPI-processes    *
           *              working on a common directory               *
           ************************************************************
-------------------------------------------------------------------------------
                                 ORCA SCF
-------------------------------------------------------------------------------

------------
SCF SETTINGS
------------
Hamiltonian:
 Ab initio Hamiltonian  Method          .... Hartree-Fock(GTOs)


General Settings:
 Integral files         IntName         .... 54_Xe
 Hartree-Fock type      HFTyp           .... RHF
 Total Charge           Charge          ....    0
 Multiplicity           Mult            ....    1
 Number of Electrons    NEL             ....   26
 Basis Dimension        Dim             ....   91
 Nuclear Repulsion      ENuc            ....      0.0000000000 Eh

Convergence Acceleration:
 DIIS                   CNVDIIS         .... on
   Start iteration      DIISMaxIt       ....    12
   Startup error        DIISStart       ....  0.200000
   # of expansion vecs  DIISMaxEq       ....     5
   Bias factor          DIISBfac        ....   1.050
   Max. coefficient     DIISMaxC        ....  10.000
 Newton-Raphson         CNVNR           .... off
 SOSCF                  CNVSOSCF        .... on
   Start iteration      SOSCFMaxIt      ....   150
   Startup grad/error   SOSCFStart      ....  0.003300
 Level Shifting         CNVShift        .... on
   Level shift para.    LevelShift      ....    0.2500
   Turn off err/grad.   ShiftErr        ....    0.0010
 Zerner damping         CNVZerner       .... off
 Static damping         CNVDamp         .... on
   Fraction old density DampFac         ....    0.7000
   Max. Damping (<1)    DampMax         ....    0.9800
   Min. Damping (>=0)   DampMin         ....    0.0000
   Turn off err/grad.   DampErr         ....    0.1000
 Fernandez-Rico         CNVRico         .... off

SCF Procedure:
 Maximum # iterations   MaxIter         ....   125
 SCF integral mode      SCFMode         .... Direct
   Integral package                     .... LIBINT
 Reset frequency        DirectResetFreq ....    20
 Integral Threshold     Thresh          ....  2.500e-11 Eh
 Primitive CutOff       TCut            ....  2.500e-12 Eh

Convergence Tolerance:
 Convergence Check Mode ConvCheckMode   .... Total+1el-Energy
 Convergence forced     ConvForced      .... 1
 Energy Change          TolE            ....  1.000e-08 Eh
 1-El. energy change                    ....  1.000e-05 Eh
 Orbital Gradient       TolG            ....  1.000e-05
 Orbital Rotation angle TolX            ....  1.000e-05
 DIIS Error             TolErr          ....  5.000e-07


Diagonalization of the overlap matrix:
Smallest eigenvalue                        ... 8.669e-04
Time for diagonalization                   ...    0.002 sec
Threshold for overlap eigenvalues          ... 1.000e-08
Number of eigenvalues below threshold      ... 0
Time for construction of square roots      ...    0.012 sec
Total time needed                          ...    0.014 sec

-------------------
DFT GRID GENERATION
-------------------

General Integration Accuracy     IntAcc      ...  4.340
Radial Grid Type                 RadialGrid  ... Gauss-Chebyshev
Angular Grid (max. acc.)         AngularGrid ... Lebedev-110
Angular grid pruning method      GridPruning ... 3 (G Style)
Weight generation scheme         WeightScheme... Becke
Basis function cutoff            BFCut       ...    1.0000e-11
Integration weight cutoff        WCut        ...    1.0000e-14
Grids for H and He will be reduced by one unit

# of grid points (after initial pruning)     ...   3222 (   0.0 sec)
# of grid points (after weights+screening)   ...   3222 (   0.0 sec)
Grid point division into batches done        ...    0.0 sec
Reduced shell lists constructed in    0.0 sec

Total number of grid points                  ...     3222
Total number of batches                      ...       51
Average number of points per batch           ...       63
Average number of grid points per atom       ...     3222
Average number of shells per batch           ...    10.50 (42.00%)
Average number of basis functions per batch  ...    40.50 (44.51%)
Average number of large shells per batch     ...     7.50 (71.43%)
Average number of large basis fcns per batch ...    25.50 (62.96%)
Maximum spatial batch extension              ...  19.53, 28.74, 28.74 au
Average spatial batch extension              ...   1.08,  1.51,  1.69 au

Time for grid setup =    0.072 sec

------------------------------
INITIAL GUESS: MODEL POTENTIAL
------------------------------
Loading Hartree-Fock densities                     ... done
  calling /sw/apps/orca/orca_4_2_0_linux_x86-64_openmpi314/orca 54_Xe_atom54.inp > 54_Xe_atom54.out in order to generate an atomic fitting density for atom 0 (Xe with ECP) on-the-fly... 
    atom 0 (Xe), assumed electronic state with S=1: 1s2 2s2 2p6 3s2 3p6 4s2 3d10 4p6 5s2 4d10 5p6           ... done
Calculating cut-offs                               ... done
Setting up the integral package                    ... done
Initializing the effective Hamiltonian             ... done
Starting the Coulomb interaction                   ... done (   0.0 sec)
Reading the grid                                   ... done
Mapping shells                                     ... done
Starting the XC term evaluation                    ... done (   0.0 sec)
Transforming the Hamiltonian                       ... done (   0.0 sec)
Diagonalizing the Hamiltonian                      ... done (   0.0 sec)
Back transforming the eigenvectors                 ... done (   0.0 sec)
Now organizing SCF variables                       ... done
                      ------------------
                      INITIAL GUESS DONE (   1.2 sec)
                      ------------------
--------------
SCF ITERATIONS
--------------
ITER       Energy         Delta-E        Max-DP      RMS-DP      [F,P]     Damp
               ***  Starting incremental Fock matrix formation  ***
  0   -286.0357700705   0.000000000000 3.00169290  0.06993132  5.2878342 0.7000
  1   -298.9958161272 -12.960046056778 0.87135177  0.02523862  2.4166203 0.7000
  2   -307.7692007281  -8.773384600874 0.63658677  0.01699425  1.4767097 0.7000
  3   -313.8338174781  -6.064616750031 0.44755564  0.01156965  0.9550878 0.7000
  4   -318.0984433032  -4.264625825027 0.31364562  0.00804463  0.6397694 0.7000
  5   -321.1111516620  -3.012708358803 0.21968693  0.00569134  0.4372553 0.7000
  6   -323.2398075387  -2.128655876688 0.15385017  0.00407947  0.3022358 0.7000
  7   -324.7420146978  -1.502207159139 0.10773326  0.00295253  0.2102145 0.7000
                               ***Turning on DIIS***
  8   -325.8005653566  -1.058550658836 0.07543424  0.00215262  0.1467055 0.7000
  9   -326.3118465773  -0.511281220637 0.05282424  0.00169282  0.1025665 0.7000
 10   -326.8384487391  -0.526602161835 0.12326840  0.00419930  0.0718279 0.0000
 11   -328.2982469530  -1.459798213896 0.01560453  0.00035367  0.0041280 0.0000
                      *** Initiating the SOSCF procedure ***
                           *** Shutting down DIIS ***
                      *** Re-Reading the Fockian *** 
                      *** Removing any level shift *** 
ITER      Energy       Delta-E        Grad      Rot      Max-DP    RMS-DP
 12   -328.31165282  -0.0134058631  0.001096  0.001096  0.006949  0.000173
               *** Restarting incremental Fock matrix formation ***
 13   -328.29913449   0.0125183263  0.000322  0.000455  0.001620  0.000047
 14   -328.29913599  -0.0000014968  0.000121  0.000142  0.000764  0.000019
 15   -328.29913610  -0.0000001131  0.000027  0.000012  0.000061  0.000002
                  ***Gradient check signals convergence***
              ***Rediagonalizing the Fockian in SOSCF/NRSCF***

               *****************************************************
               *                     SUCCESS                       *
               *           SCF CONVERGED AFTER  16 CYCLES          *
               *****************************************************


----------------
TOTAL SCF ENERGY
----------------

Total Energy       :         -328.29913610 Eh           -8933.47366 eV

Components:
Nuclear Repulsion  :            0.00000000 Eh               0.00000 eV
Electronic Energy  :         -328.29913610 Eh           -8933.47366 eV
One Electron Energy:         -571.59960522 Eh          -15554.01601 eV
Two Electron Energy:          243.30046911 Eh            6620.54235 eV

Virial components:
Potential Energy   :         -453.88091598 Eh          -12350.72762 eV
Kinetic Energy     :          125.58177988 Eh            3417.25396 eV
Virial Ratio       :            3.61422586


---------------
SCF CONVERGENCE
---------------

  Last Energy change         ...   -4.0615e-09  Tolerance :   1.0000e-08
  Last MAX-Density change    ...    9.0475e-06  Tolerance :   1.0000e-07
  Last RMS-Density change    ...    2.9788e-07  Tolerance :   5.0000e-09
  Last Orbital Gradient      ...    1.9589e-06  Tolerance :   1.0000e-05
  Last Orbital Rotation      ...    2.3135e-06  Tolerance :   1.0000e-05

             **** THE GBW FILE WAS UPDATED (54_Xe.gbw) ****
             **** DENSITY FILE WAS UPDATED (54_Xe.scfp) ****
             **** ENERGY FILE WAS UPDATED (54_Xe.en.tmp) ****
             **** THE GBW FILE WAS UPDATED (54_Xe.gbw) ****
             **** DENSITY FILE WAS UPDATED (54_Xe.scfp) ****
----------------
ORBITAL ENERGIES
----------------

  NO   OCC          E(Eh)            E(eV) 
   0   2.0000      -8.399997      -228.5755 
   1   2.0000      -6.133665      -166.9055 
   2   2.0000      -6.133665      -166.9055 
   3   2.0000      -6.133665      -166.9055 
   4   2.0000      -2.663999       -72.4911 
   5   2.0000      -2.663999       -72.4911 
   6   2.0000      -2.663999       -72.4911 
   7   2.0000      -2.663999       -72.4911 
   8   2.0000      -2.663999       -72.4911 
   9   2.0000      -1.009636       -27.4736 
  10   2.0000      -0.456240       -12.4149 
  11   2.0000      -0.456240       -12.4149 
  12   2.0000      -0.456240       -12.4149 
  13   0.0000       0.051801         1.4096 
  14   0.0000       0.051801         1.4096 
  15   0.0000       0.051801         1.4096 
  16   0.0000       0.069856         1.9009 
  17   0.0000       0.171451         4.6654 
  18   0.0000       0.171451         4.6654 
  19   0.0000       0.171451         4.6654 
  20   0.0000       0.171451         4.6654 
  21   0.0000       0.171451         4.6654 
  22   0.0000       0.289443         7.8761 
  23   0.0000       0.289443         7.8761 
  24   0.0000       0.289443         7.8761 
  25   0.0000       0.377385        10.2692 
  26   0.0000       0.458971        12.4892 
  27   0.0000       0.458971        12.4892 
  28   0.0000       0.458971        12.4892 
  29   0.0000       0.458971        12.4892 
  30   0.0000       0.458971        12.4892 
  31   0.0000       0.875788        23.8314 
  32   0.0000       0.875788        23.8314 
  33   0.0000       0.875788        23.8314 
  34   0.0000       0.875788        23.8314 
  35   0.0000       0.875788        23.8314 
  36   0.0000       0.875788        23.8314 
  37   0.0000       0.875788        23.8314 
  38   0.0000       1.101650        29.9774 
  39   0.0000       1.101650        29.9774 
  40   0.0000       1.101650        29.9774 
  41   0.0000       1.304335        35.4928 
  42   0.0000       1.304335        35.4928 
  43   0.0000       1.304335        35.4928 
  44   0.0000       1.304336        35.4928 
  45   0.0000       1.304336        35.4928 
  46   0.0000       1.320608        35.9356 
  47   0.0000       1.602386        43.6031 
  48   0.0000       1.602386        43.6031 
  49   0.0000       1.602386        43.6031 
  50   0.0000       1.602386        43.6031 
  51   0.0000       1.602386        43.6031 
  52   0.0000       1.602386        43.6031 
  53   0.0000       1.602386        43.6031 
  54   0.0000       2.281004        62.0693 
  55   0.0000       2.281004        62.0693 
  56   0.0000       2.281004        62.0693 
  57   0.0000       2.281004        62.0693 
  58   0.0000       2.281004        62.0693 
  59   0.0000       2.281004        62.0693 
  60   0.0000       2.281004        62.0693 
  61   0.0000       2.281004        62.0693 
  62   0.0000       2.281004        62.0693 
  63   0.0000       3.416526        92.9684 
  64   0.0000       3.416526        92.9684 
  65   0.0000       3.416526        92.9684 
  66   0.0000       3.416526        92.9684 
  67   0.0000       3.416526        92.9684 
  68   0.0000       3.698620       100.6446 
  69   0.0000       3.698620       100.6446 
  70   0.0000       3.698620       100.6446 
  71   0.0000       3.978949       108.2727 
  72   0.0000       3.978949       108.2727 
  73   0.0000       3.978949       108.2727 
  74   0.0000       3.978949       108.2727 
  75   0.0000       3.978949       108.2727 
  76   0.0000       3.978949       108.2727 
  77   0.0000       3.978949       108.2727 
  78   0.0000       4.241461       115.4160 
  79   0.0000      13.371255       363.8504 
  80   0.0000      13.371255       363.8504 
  81   0.0000      13.371256       363.8504 
  82   0.0000      13.371256       363.8504 
  83   0.0000      13.371256       363.8504 
  84   0.0000      13.371256       363.8504 
  85   0.0000      13.371256       363.8504 
  86   0.0000      21.954859       597.4221 
  87   0.0000      39.563217      1076.5699 
  88   0.0000      39.563217      1076.5699 
  89   0.0000      39.563217      1076.5699 
  90   0.0000      90.733924      2468.9956 

                    ********************************
                    * MULLIKEN POPULATION ANALYSIS *
                    ********************************

-----------------------
MULLIKEN ATOMIC CHARGES
-----------------------
   0 Xe:    0.000000
Sum of atomic charges:    0.0000000

--------------------------------
MULLIKEN REDUCED ORBITAL CHARGES
--------------------------------
  0 Xes       :     4.000000  s :     4.000000
      pz      :     4.000000  p :    12.000000
      px      :     4.000000
      py      :     4.000000
      dz2     :     2.000000  d :    10.000000
      dxz     :     2.000000
      dyz     :     2.000000
      dx2y2   :     2.000000
      dxy     :     2.000000
      f0      :     0.000000  f :     0.000000
      f+1     :     0.000000
      f-1     :     0.000000
      f+2     :     0.000000
      f-2     :     0.000000
      f+3     :     0.000000
      f-3     :     0.000000
      g0      :     0.000000  g :     0.000000
      g+1     :     0.000000
      g-1     :     0.000000
      g+2     :     0.000000
      g-2     :     0.000000
      g+3     :     0.000000
      g-3     :     0.000000
      g+4     :     0.000000
      g-4     :     0.000000


                     *******************************
                     * LOEWDIN POPULATION ANALYSIS *
                     *******************************

----------------------
LOEWDIN ATOMIC CHARGES
----------------------
   0 Xe:    0.000000

-------------------------------
LOEWDIN REDUCED ORBITAL CHARGES
-------------------------------
  0 Xes       :     4.000000  s :     4.000000
      pz      :     4.000000  p :    12.000000
      px      :     4.000000
      py      :     4.000000
      dz2     :     2.000000  d :    10.000000
      dxz     :     2.000000
      dyz     :     2.000000
      dx2y2   :     2.000000
      dxy     :     2.000000
      f0      :     0.000000  f :     0.000000
      f+1     :     0.000000
      f-1     :     0.000000
      f+2     :     0.000000
      f-2     :     0.000000
      f+3     :     0.000000
      f-3     :     0.000000
      g0      :     0.000000  g :     0.000000
      g+1     :     0.000000
      g-1     :     0.000000
      g+2     :     0.000000
      g-2     :     0.000000
      g+3     :     0.000000
      g-3     :     0.000000
      g+4     :     0.000000
      g-4     :     0.000000


                      *****************************
                      * MAYER POPULATION ANALYSIS *
                      *****************************

  NA   - Mulliken gross atomic population
  ZA   - Total nuclear charge
  QA   - Mulliken gross atomic charge
  VA   - Mayer's total valence
  BVA  - Mayer's bonded valence
  FA   - Mayer's free valence

  ATOM       NA         ZA         QA         VA         BVA        FA
  0 Xe    26.0000    26.0000     0.0000     0.0000     0.0000     0.0000

  Mayer bond orders larger than 0.100000


--------------------------
ATOM BASIS FOR ELEMENT Xe
--------------------------
 NewGTO Xe
 S 18
    1      18774.299999999999         0.000068004684
    2       2824.810000000000         0.000501034513
    3        640.088000000000         0.002097144458
    4        172.616000000000         0.004493309513
    5         29.516900000000        -0.047154248131
    6         18.444800000000         0.374058766328
    7         11.523800000000        -0.512861327479
    8          6.618900000000        -0.478656971377
    9          2.995520000000         0.596512089603
   10          1.653258653600         0.710091808576
   11         27.052171835000        -0.000026111611
   12         20.940622415000         0.000056134730
   13          6.002459107100        -0.000120066418
   14          0.875538892700         0.159397572292
   15          0.410336166500         0.004417365924
   16          0.194935857800         0.000818462002
   17          0.090171093000         0.000035817895
   18          0.042287348600         0.000017359200
 S 18
    1      18774.299999999999         0.000035719086
    2       2824.810000000000         0.000263165622
    3        640.088000000000         0.001101513590
    4        172.616000000000         0.002360086105
    5         29.516900000000        -0.024767509443
    6         18.444800000000         0.196472309381
    7         11.523800000000        -0.269377591097
    8          6.618900000000        -0.251411941206
    9          2.995520000000         0.313314693754
   10          1.653258653600         0.620756267778
   11         27.052171835000         0.013700401189
   12         20.940622415000        -0.029453116294
   13          6.002459107100         0.062997187836
   14          0.875538892700         0.121970810034
   15          0.410336166500        -0.614034054614
   16          0.194935857800        -0.597157333391
   17          0.090171093000        -0.129666700541
   18          0.042287348600        -0.000379699726
 S 18
    1      18774.299999999999        -0.000008315677
    2       2824.810000000000        -0.000061266971
    3        640.088000000000        -0.000256440794
    4        172.616000000000        -0.000549446107
    5         29.516900000000         0.005766065748
    6         18.444800000000        -0.045740257254
    7         11.523800000000         0.062713164791
    8          6.618900000000         0.058530624003
    9          2.995520000000        -0.072942058547
   10          1.653258653600        -0.064322134961
   11         27.052171835000        -0.005757298954
   12         20.940622415000         0.012377038693
   13          6.002459107100        -0.026473213347
   14          0.875538892700        -0.312828859144
   15          0.410336166500         0.849761819230
   16          0.194935857800        -1.161727883996
   17          0.090171093000         2.590072286389
   18          0.042287348600        -2.521866219165
 S 18
    1      18774.299999999999        -0.000018411453
    2       2824.810000000000        -0.000135649090
    3        640.088000000000        -0.000567776729
    4        172.616000000000        -0.001216509701
    5         29.516900000000         0.012766447569
    6         18.444800000000        -0.101271928134
    7         11.523800000000         0.138851058108
    8          6.618900000000         0.129590638610
    9          2.995520000000        -0.161498499453
   10          1.653258653600        -0.670534105424
   11         27.052171835000        -0.000161793818
   12         20.940622415000         0.000347824276
   13          6.002459107100        -0.000743960369
   14          0.875538892700         0.960325793367
   15          0.410336166500        -2.033682646449
   16          0.194935857800         5.777549032040
   17          0.090171093000        -6.968164566205
   18          0.042287348600         2.883438615478
 S 18
    1      18774.299999999999        -0.000033348149
    2       2824.810000000000        -0.000245697393
    3        640.088000000000        -0.001028398069
    4        172.616000000000        -0.002203429910
    5         29.516900000000         0.023123508502
    6         18.444800000000        -0.183431003700
    7         11.523800000000         0.251497028079
    8          6.618900000000         0.234723889910
    9          2.995520000000        -0.292517703539
   10          1.653258653600         0.341185984154
   11         27.052171835000        -0.039302015697
   12         20.940622415000         0.084491455608
   13          6.002459107100        -0.180718537435
   14          0.875538892700        -3.677140006955
   15          0.410336166500         9.749991759503
   16          0.194935857800       -11.177123872242
   17          0.090171093000         6.604089934868
   18          0.042287348600        -1.875145957017
 S 18
    1      18774.299999999999        -0.000083560103
    2       2824.810000000000        -0.000615641345
    3        640.088000000000        -0.002576846107
    4        172.616000000000        -0.005521110901
    5         29.516900000000         0.057940329424
    6         18.444800000000        -0.459621115889
    7         11.523800000000         0.630173429556
    8          6.618900000000         0.588145155565
    9          2.995520000000        -0.732958499960
   10          1.653258653600        -6.432748280930
   11         27.052171835000         0.029903717096
   12         20.940622415000        -0.064286997516
   13          6.002459107100         0.137503278688
   14          0.875538892700        13.611397057704
   15          0.410336166500       -13.303590744686
   16          0.194935857800         8.763889765242
   17          0.090171093000        -3.950222476693
   18          0.042287348600         1.033453293955
 S 18
    1      18774.299999999999        -0.000249478019
    2       2824.810000000000        -0.001838065992
    3        640.088000000000        -0.007693461847
    4        172.616000000000        -0.016483893219
    5         29.516900000000         0.172987324544
    6         18.444800000000        -1.372250174150
    7         11.523800000000         1.881453154691
    8          6.618900000000         1.755973048774
    9          2.995520000000        -2.188329461906
   10          1.653258653600        10.723788878790
   11         27.052171835000        -1.286901012313
   12         20.940622415000         2.766579215465
   13          6.002459107100        -5.917428524814
   14          0.875538892700       -11.568559546033
   15          0.410336166500         7.797296944070
   16          0.194935857800        -4.511786027893
   17          0.090171093000         1.999104033865
   18          0.042287348600        -0.531506057809
 S 18
    1      18774.299999999999         0.000478112667
    2       2824.810000000000         0.003522565387
    3        640.088000000000         0.014744150930
    4        172.616000000000         0.031590591383
    5         29.516900000000        -0.331521917268
    6         18.444800000000         2.629851695222
    7         11.523800000000        -3.605714804454
    8          6.618900000000        -3.365238194957
    9          2.995520000000         4.193828540533
   10          1.653258653600        -8.130890725416
   11         27.052171835000         1.019014580606
   12         20.940622415000        -2.190677085484
   13          6.002459107100         4.685633074172
   14          0.875538892700         6.993823552038
   15          0.410336166500        -4.316634233585
   16          0.194935857800         2.445292459015
   17          0.090171093000        -1.081941600725
   18          0.042287348600         0.288561383183
 P 15
    1        613.331000000000        -0.000137998919
    2        141.710000000000        -0.000852993319
    3         20.310600000000        -0.055023569017
    4         11.033100000000         0.252986018435
    5          6.895130000000        -0.009745923663
    6          3.241660000000        -0.526792873787
    7          1.665350000000        -0.501828069329
    8         18.388908413000        -0.000000139999
    9          6.113904543100         0.000001442890
   10          1.872981569100         0.000004165414
   11          0.820046659900        -0.121508463916
   12          0.395526482500        -0.004163831005
   13          0.174455098100        -0.001370911709
   14          0.073389992700         0.000266299657
   15          0.019994004400        -0.000052842733
 P 15
    1        613.331000000000        -0.000054843729
    2        141.710000000000        -0.000338997831
    3         20.310600000000        -0.021867545892
    4         11.033100000000         0.100542067101
    5          6.895130000000        -0.003873238991
    6          3.241660000000        -0.209358781137
    7          1.665350000000        -0.199437232664
    8         18.388908413000         0.002152788890
    9          6.113904543100        -0.022187591968
   10          1.872981569100        -0.064052364459
   11          0.820046659900         0.051437189899
   12          0.395526482500         0.465596085974
   13          0.174455098100         0.495765319889
   14          0.073389992700         0.163428540297
   15          0.019994004400         0.001528721405
 P 15
    1        613.331000000000        -0.000006943606
    2        141.710000000000        -0.000042919533
    3         20.310600000000        -0.002768586593
    4         11.033100000000         0.012729339650
    5          6.895130000000        -0.000490379560
    6          3.241660000000        -0.026506308362
    7          1.665350000000        -0.025250169872
    8         18.388908413000         0.000253304039
    9          6.113904543100        -0.002610663165
   10          1.872981569100        -0.007536606441
   11          0.820046659900        -0.027490700190
   12          0.395526482500         0.168856961830
   13          0.174455098100        -0.135940297139
   14          0.073389992700         0.482246236263
   15          0.019994004400        -1.209345997855
 P 15
    1        613.331000000000        -0.000030336735
    2        141.710000000000        -0.000187516197
    3         20.310600000000        -0.012096003765
    4         11.033100000000         0.055614709953
    5          6.895130000000        -0.002142476968
    6          3.241660000000        -0.115806529792
    7          1.665350000000        -0.110318438523
    8         18.388908413000         0.001488193168
    9          6.113904543100        -0.015337975285
   10          1.872981569100        -0.044278513164
   11          0.820046659900         0.237998446068
   12          0.395526482500        -0.331686619278
   13          0.174455098100         1.742308154708
   14          0.073389992700        -2.286750432142
   15          0.019994004400         0.737116247624
 P 15
    1        613.331000000000        -0.000045463009
    2        141.710000000000        -0.000281014103
    3         20.310600000000        -0.018127221606
    4         11.033100000000         0.083344895677
    5          6.895130000000        -0.003210742617
    6          3.241660000000        -0.173549105127
    7          1.665350000000        -0.165324583329
    8         18.388908413000         0.001557586458
    9          6.113904543100        -0.016053173139
   10          1.872981569100        -0.046343185781
   11          0.820046659900        -0.732160019157
   12          0.395526482500         3.320108654037
   13          0.174455098100        -3.774485025357
   14          0.073389992700         1.766245741878
   15          0.019994004400        -0.361369404023
 P 15
    1        613.331000000000        -0.000188183607
    2        141.710000000000        -0.001163192874
    3         20.310600000000        -0.075033440468
    4         11.033100000000         0.344986915477
    5          6.895130000000        -0.013290126323
    6          3.241660000000        -0.718366373553
    7          1.665350000000        -0.684322868150
    8         18.388908413000         0.016025604972
    9          6.113904543100        -0.165166954286
   10          1.872981569100        -0.476813074977
   11          0.820046659900         4.553974964074
   12          0.395526482500        -4.791490921278
   13          0.174455098100         2.641474199733
   14          0.073389992700        -0.938155036918
   15          0.019994004400         0.181437110727
 P 15
    1        613.331000000000        -0.000725784699
    2        141.710000000000        -0.004486190929
    3         20.310600000000        -0.289388241105
    4         11.033100000000         1.330542169610
    5          6.895130000000        -0.051257229533
    6          3.241660000000        -2.770588420494
    7          1.665350000000        -2.639289761015
    8         18.388908413000        -0.120880096368
    9          6.113904543100         1.245843597523
   10          1.872981569100         3.596570023599
   11          0.820046659900         0.817686804223
   12          0.395526482500        -0.711090101473
   13          0.174455098100         0.382419150484
   14          0.073389992700        -0.142211771255
   15          0.019994004400         0.029068653332
 D 12
    1        315.661068650000         0.000142356053
    2         95.553873651000         0.001170788859
    3         35.451236301000         0.005878322320
    4         13.153211283000        -0.016764244323
    5          6.384732956400         0.115584340460
    6          3.696816641000         0.303759523059
    7          2.097607036400         0.360377655726
    8          1.195124661600         0.248134610759
    9          0.684317253400         0.104537858303
   10          0.377104802000         0.026812918994
   11          0.167600000000         0.002573883462
   12          0.065304298500         0.000014972613
 D 12
    1        315.661068650000         0.000012021540
    2         95.553873651000         0.000098869589
    3         35.451236301000         0.000496406598
    4         13.153211283000        -0.001415689892
    5          6.384732956400         0.009760749086
    6          3.696816641000         0.025651575941
    7          2.097607036400         0.030432806552
    8          1.195124661600         0.020954219797
    9          0.684317253400         0.057427147699
   10          0.377104802000        -0.242506257801
   11          0.167600000000         0.232929642065
   12          0.065304298500        -1.090710623777
 D 12
    1        315.661068650000         0.000039257672
    2         95.553873651000         0.000322869620
    3         35.451236301000         0.001621070851
    4         13.153211283000        -0.004623092496
    5          6.384732956400         0.031874809673
    6          3.696816641000         0.083768068800
    7          2.097607036400         0.099381708119
    8          1.195124661600         0.068428330860
    9          0.684317253400        -0.251556017065
   10          0.377104802000         0.358373970059
   11          0.167600000000        -1.594880107207
   12          0.065304298500         0.996511738339
 D 12
    1        315.661068650000         0.000051707883
    2         95.553873651000         0.000425264765
    3         35.451236301000         0.002135178635
    4         13.153211283000        -0.006089263971
    5          6.384732956400         0.041983613843
    6          3.696816641000         0.110334345175
    7          2.097607036400         0.130899707308
    8          1.195124661600         0.090129749737
    9          0.684317253400         0.566793784060
   10          0.377104802000        -2.469001922055
   11          0.167600000000         2.072454755611
   12          0.065304298500        -0.668282593440
 D 12
    1        315.661068650000         0.000155294566
    2         95.553873651000         0.001277199981
    3         35.451236301000         0.006412593610
    4         13.153211283000        -0.018287919609
    5          6.384732956400         0.126089615837
    6          3.696816641000         0.331367739063
    7          2.097607036400         0.393131803028
    8          1.195124661600         0.270687167673
    9          0.684317253400        -3.313174881073
   10          0.377104802000         3.471619608302
   11          0.167600000000        -1.466420119833
   12          0.065304298500         0.384572003738
 F 4
    1          0.661900000000         0.091554262863
    2          0.297900000000         0.885297004115
    3          2.432300000000         0.169640124790
    4          7.207739178900         0.058442732868
 F 4
    1          0.661900000000         0.986612336557
    2          0.297900000000        -0.956717466433
    3          2.432300000000         0.350040506395
    4          7.207739178900         0.176978846991
 F 4
    1          0.661900000000        -1.183400989649
    2          0.297900000000         0.637170909348
    3          2.432300000000         0.770155773615
    4          7.207739178900         0.302283066503
 F 4
    1          0.661900000000         0.519347129306
    2          0.297900000000        -0.245575136038
    3          2.432300000000        -1.063419942896
    4          7.207739178900         1.156796494687
 G 1
    1          0.527800000000         1.000000000000
 end
  // -----------------------------------------------
  // The basis set
  // -----------------------------------------------
  BAS[ATNO] = new BFNGauss[NSH];
  // Basis function   1 L = s
  InitBFNGauss(BAS[ATNO][  0]);
  BAS[ATNO][  0].l  = 0;
  BAS[ATNO][  0].ng = 18;
  BAS[ATNO][  0].a[  0] =     18774.299999999999;     BAS[ATNO][  0].d[  0] =         0.000068004684;
  BAS[ATNO][  0].a[  1] =      2824.810000000000;     BAS[ATNO][  0].d[  1] =         0.000501034513;
  BAS[ATNO][  0].a[  2] =       640.088000000000;     BAS[ATNO][  0].d[  2] =         0.002097144458;
  BAS[ATNO][  0].a[  3] =       172.616000000000;     BAS[ATNO][  0].d[  3] =         0.004493309513;
  BAS[ATNO][  0].a[  4] =        29.516900000000;     BAS[ATNO][  0].d[  4] =        -0.047154248131;
  BAS[ATNO][  0].a[  5] =        18.444800000000;     BAS[ATNO][  0].d[  5] =         0.374058766328;
  BAS[ATNO][  0].a[  6] =        11.523800000000;     BAS[ATNO][  0].d[  6] =        -0.512861327479;
  BAS[ATNO][  0].a[  7] =         6.618900000000;     BAS[ATNO][  0].d[  7] =        -0.478656971377;
  BAS[ATNO][  0].a[  8] =         2.995520000000;     BAS[ATNO][  0].d[  8] =         0.596512089603;
  BAS[ATNO][  0].a[  9] =         1.653258653600;     BAS[ATNO][  0].d[  9] =         0.710091808576;
  BAS[ATNO][  0].a[ 10] =        27.052171835000;     BAS[ATNO][  0].d[ 10] =        -0.000026111611;
  BAS[ATNO][  0].a[ 11] =        20.940622415000;     BAS[ATNO][  0].d[ 11] =         0.000056134730;
  BAS[ATNO][  0].a[ 12] =         6.002459107100;     BAS[ATNO][  0].d[ 12] =        -0.000120066418;
  BAS[ATNO][  0].a[ 13] =         0.875538892700;     BAS[ATNO][  0].d[ 13] =         0.159397572292;
  BAS[ATNO][  0].a[ 14] =         0.410336166500;     BAS[ATNO][  0].d[ 14] =         0.004417365924;
  BAS[ATNO][  0].a[ 15] =         0.194935857800;     BAS[ATNO][  0].d[ 15] =         0.000818462002;
  BAS[ATNO][  0].a[ 16] =         0.090171093000;     BAS[ATNO][  0].d[ 16] =         0.000035817895;
  BAS[ATNO][  0].a[ 17] =         0.042287348600;     BAS[ATNO][  0].d[ 17] =         0.000017359200;

  // Basis function   2 L = s
  InitBFNGauss(BAS[ATNO][  1]);
  BAS[ATNO][  1].l  = 0;
  BAS[ATNO][  1].ng = 18;
  BAS[ATNO][  1].a[  0] =     18774.299999999999;     BAS[ATNO][  1].d[  0] =         0.000035719086;
  BAS[ATNO][  1].a[  1] =      2824.810000000000;     BAS[ATNO][  1].d[  1] =         0.000263165622;
  BAS[ATNO][  1].a[  2] =       640.088000000000;     BAS[ATNO][  1].d[  2] =         0.001101513590;
  BAS[ATNO][  1].a[  3] =       172.616000000000;     BAS[ATNO][  1].d[  3] =         0.002360086105;
  BAS[ATNO][  1].a[  4] =        29.516900000000;     BAS[ATNO][  1].d[  4] =        -0.024767509443;
  BAS[ATNO][  1].a[  5] =        18.444800000000;     BAS[ATNO][  1].d[  5] =         0.196472309381;
  BAS[ATNO][  1].a[  6] =        11.523800000000;     BAS[ATNO][  1].d[  6] =        -0.269377591097;
  BAS[ATNO][  1].a[  7] =         6.618900000000;     BAS[ATNO][  1].d[  7] =        -0.251411941206;
  BAS[ATNO][  1].a[  8] =         2.995520000000;     BAS[ATNO][  1].d[  8] =         0.313314693754;
  BAS[ATNO][  1].a[  9] =         1.653258653600;     BAS[ATNO][  1].d[  9] =         0.620756267778;
  BAS[ATNO][  1].a[ 10] =        27.052171835000;     BAS[ATNO][  1].d[ 10] =         0.013700401189;
  BAS[ATNO][  1].a[ 11] =        20.940622415000;     BAS[ATNO][  1].d[ 11] =        -0.029453116294;
  BAS[ATNO][  1].a[ 12] =         6.002459107100;     BAS[ATNO][  1].d[ 12] =         0.062997187836;
  BAS[ATNO][  1].a[ 13] =         0.875538892700;     BAS[ATNO][  1].d[ 13] =         0.121970810034;
  BAS[ATNO][  1].a[ 14] =         0.410336166500;     BAS[ATNO][  1].d[ 14] =        -0.614034054614;
  BAS[ATNO][  1].a[ 15] =         0.194935857800;     BAS[ATNO][  1].d[ 15] =        -0.597157333391;
  BAS[ATNO][  1].a[ 16] =         0.090171093000;     BAS[ATNO][  1].d[ 16] =        -0.129666700541;
  BAS[ATNO][  1].a[ 17] =         0.042287348600;     BAS[ATNO][  1].d[ 17] =        -0.000379699726;

  // Basis function   3 L = s
  InitBFNGauss(BAS[ATNO][  2]);
  BAS[ATNO][  2].l  = 0;
  BAS[ATNO][  2].ng = 18;
  BAS[ATNO][  2].a[  0] =     18774.299999999999;     BAS[ATNO][  2].d[  0] =        -0.000008315677;
  BAS[ATNO][  2].a[  1] =      2824.810000000000;     BAS[ATNO][  2].d[  1] =        -0.000061266971;
  BAS[ATNO][  2].a[  2] =       640.088000000000;     BAS[ATNO][  2].d[  2] =        -0.000256440794;
  BAS[ATNO][  2].a[  3] =       172.616000000000;     BAS[ATNO][  2].d[  3] =        -0.000549446107;
  BAS[ATNO][  2].a[  4] =        29.516900000000;     BAS[ATNO][  2].d[  4] =         0.005766065748;
  BAS[ATNO][  2].a[  5] =        18.444800000000;     BAS[ATNO][  2].d[  5] =        -0.045740257254;
  BAS[ATNO][  2].a[  6] =        11.523800000000;     BAS[ATNO][  2].d[  6] =         0.062713164791;
  BAS[ATNO][  2].a[  7] =         6.618900000000;     BAS[ATNO][  2].d[  7] =         0.058530624003;
  BAS[ATNO][  2].a[  8] =         2.995520000000;     BAS[ATNO][  2].d[  8] =        -0.072942058547;
  BAS[ATNO][  2].a[  9] =         1.653258653600;     BAS[ATNO][  2].d[  9] =        -0.064322134961;
  BAS[ATNO][  2].a[ 10] =        27.052171835000;     BAS[ATNO][  2].d[ 10] =        -0.005757298954;
  BAS[ATNO][  2].a[ 11] =        20.940622415000;     BAS[ATNO][  2].d[ 11] =         0.012377038693;
  BAS[ATNO][  2].a[ 12] =         6.002459107100;     BAS[ATNO][  2].d[ 12] =        -0.026473213347;
  BAS[ATNO][  2].a[ 13] =         0.875538892700;     BAS[ATNO][  2].d[ 13] =        -0.312828859144;
  BAS[ATNO][  2].a[ 14] =         0.410336166500;     BAS[ATNO][  2].d[ 14] =         0.849761819230;
  BAS[ATNO][  2].a[ 15] =         0.194935857800;     BAS[ATNO][  2].d[ 15] =        -1.161727883996;
  BAS[ATNO][  2].a[ 16] =         0.090171093000;     BAS[ATNO][  2].d[ 16] =         2.590072286389;
  BAS[ATNO][  2].a[ 17] =         0.042287348600;     BAS[ATNO][  2].d[ 17] =        -2.521866219165;

  // Basis function   4 L = s
  InitBFNGauss(BAS[ATNO][  3]);
  BAS[ATNO][  3].l  = 0;
  BAS[ATNO][  3].ng = 18;
  BAS[ATNO][  3].a[  0] =     18774.299999999999;     BAS[ATNO][  3].d[  0] =         0.000018411453;
  BAS[ATNO][  3].a[  1] =      2824.810000000000;     BAS[ATNO][  3].d[  1] =         0.000135649090;
  BAS[ATNO][  3].a[  2] =       640.088000000000;     BAS[ATNO][  3].d[  2] =         0.000567776729;
  BAS[ATNO][  3].a[  3] =       172.616000000000;     BAS[ATNO][  3].d[  3] =         0.001216509701;
  BAS[ATNO][  3].a[  4] =        29.516900000000;     BAS[ATNO][  3].d[  4] =        -0.012766447569;
  BAS[ATNO][  3].a[  5] =        18.444800000000;     BAS[ATNO][  3].d[  5] =         0.101271928134;
  BAS[ATNO][  3].a[  6] =        11.523800000000;     BAS[ATNO][  3].d[  6] =        -0.138851058108;
  BAS[ATNO][  3].a[  7] =         6.618900000000;     BAS[ATNO][  3].d[  7] =        -0.129590638610;
  BAS[ATNO][  3].a[  8] =         2.995520000000;     BAS[ATNO][  3].d[  8] =         0.161498499453;
  BAS[ATNO][  3].a[  9] =         1.653258653600;     BAS[ATNO][  3].d[  9] =         0.670534105424;
  BAS[ATNO][  3].a[ 10] =        27.052171835000;     BAS[ATNO][  3].d[ 10] =         0.000161793818;
  BAS[ATNO][  3].a[ 11] =        20.940622415000;     BAS[ATNO][  3].d[ 11] =        -0.000347824276;
  BAS[ATNO][  3].a[ 12] =         6.002459107100;     BAS[ATNO][  3].d[ 12] =         0.000743960369;
  BAS[ATNO][  3].a[ 13] =         0.875538892700;     BAS[ATNO][  3].d[ 13] =        -0.960325793367;
  BAS[ATNO][  3].a[ 14] =         0.410336166500;     BAS[ATNO][  3].d[ 14] =         2.033682646449;
  BAS[ATNO][  3].a[ 15] =         0.194935857800;     BAS[ATNO][  3].d[ 15] =        -5.777549032040;
  BAS[ATNO][  3].a[ 16] =         0.090171093000;     BAS[ATNO][  3].d[ 16] =         6.968164566205;
  BAS[ATNO][  3].a[ 17] =         0.042287348600;     BAS[ATNO][  3].d[ 17] =        -2.883438615478;

  // Basis function   5 L = s
  InitBFNGauss(BAS[ATNO][  4]);
  BAS[ATNO][  4].l  = 0;
  BAS[ATNO][  4].ng = 18;
  BAS[ATNO][  4].a[  0] =     18774.299999999999;     BAS[ATNO][  4].d[  0] =         0.000033348149;
  BAS[ATNO][  4].a[  1] =      2824.810000000000;     BAS[ATNO][  4].d[  1] =         0.000245697393;
  BAS[ATNO][  4].a[  2] =       640.088000000000;     BAS[ATNO][  4].d[  2] =         0.001028398069;
  BAS[ATNO][  4].a[  3] =       172.616000000000;     BAS[ATNO][  4].d[  3] =         0.002203429910;
  BAS[ATNO][  4].a[  4] =        29.516900000000;     BAS[ATNO][  4].d[  4] =        -0.023123508502;
  BAS[ATNO][  4].a[  5] =        18.444800000000;     BAS[ATNO][  4].d[  5] =         0.183431003700;
  BAS[ATNO][  4].a[  6] =        11.523800000000;     BAS[ATNO][  4].d[  6] =        -0.251497028079;
  BAS[ATNO][  4].a[  7] =         6.618900000000;     BAS[ATNO][  4].d[  7] =        -0.234723889910;
  BAS[ATNO][  4].a[  8] =         2.995520000000;     BAS[ATNO][  4].d[  8] =         0.292517703539;
  BAS[ATNO][  4].a[  9] =         1.653258653600;     BAS[ATNO][  4].d[  9] =        -0.341185984154;
  BAS[ATNO][  4].a[ 10] =        27.052171835000;     BAS[ATNO][  4].d[ 10] =         0.039302015697;
  BAS[ATNO][  4].a[ 11] =        20.940622415000;     BAS[ATNO][  4].d[ 11] =        -0.084491455608;
  BAS[ATNO][  4].a[ 12] =         6.002459107100;     BAS[ATNO][  4].d[ 12] =         0.180718537435;
  BAS[ATNO][  4].a[ 13] =         0.875538892700;     BAS[ATNO][  4].d[ 13] =         3.677140006955;
  BAS[ATNO][  4].a[ 14] =         0.410336166500;     BAS[ATNO][  4].d[ 14] =        -9.749991759503;
  BAS[ATNO][  4].a[ 15] =         0.194935857800;     BAS[ATNO][  4].d[ 15] =        11.177123872242;
  BAS[ATNO][  4].a[ 16] =         0.090171093000;     BAS[ATNO][  4].d[ 16] =        -6.604089934868;
  BAS[ATNO][  4].a[ 17] =         0.042287348600;     BAS[ATNO][  4].d[ 17] =         1.875145957017;

  // Basis function   6 L = s
  InitBFNGauss(BAS[ATNO][  5]);
  BAS[ATNO][  5].l  = 0;
  BAS[ATNO][  5].ng = 18;
  BAS[ATNO][  5].a[  0] =     18774.299999999999;     BAS[ATNO][  5].d[  0] =        -0.000083560103;
  BAS[ATNO][  5].a[  1] =      2824.810000000000;     BAS[ATNO][  5].d[  1] =        -0.000615641345;
  BAS[ATNO][  5].a[  2] =       640.088000000000;     BAS[ATNO][  5].d[  2] =        -0.002576846107;
  BAS[ATNO][  5].a[  3] =       172.616000000000;     BAS[ATNO][  5].d[  3] =        -0.005521110901;
  BAS[ATNO][  5].a[  4] =        29.516900000000;     BAS[ATNO][  5].d[  4] =         0.057940329424;
  BAS[ATNO][  5].a[  5] =        18.444800000000;     BAS[ATNO][  5].d[  5] =        -0.459621115889;
  BAS[ATNO][  5].a[  6] =        11.523800000000;     BAS[ATNO][  5].d[  6] =         0.630173429556;
  BAS[ATNO][  5].a[  7] =         6.618900000000;     BAS[ATNO][  5].d[  7] =         0.588145155565;
  BAS[ATNO][  5].a[  8] =         2.995520000000;     BAS[ATNO][  5].d[  8] =        -0.732958499960;
  BAS[ATNO][  5].a[  9] =         1.653258653600;     BAS[ATNO][  5].d[  9] =        -6.432748280930;
  BAS[ATNO][  5].a[ 10] =        27.052171835000;     BAS[ATNO][  5].d[ 10] =         0.029903717096;
  BAS[ATNO][  5].a[ 11] =        20.940622415000;     BAS[ATNO][  5].d[ 11] =        -0.064286997516;
  BAS[ATNO][  5].a[ 12] =         6.002459107100;     BAS[ATNO][  5].d[ 12] =         0.137503278688;
  BAS[ATNO][  5].a[ 13] =         0.875538892700;     BAS[ATNO][  5].d[ 13] =        13.611397057704;
  BAS[ATNO][  5].a[ 14] =         0.410336166500;     BAS[ATNO][  5].d[ 14] =       -13.303590744686;
  BAS[ATNO][  5].a[ 15] =         0.194935857800;     BAS[ATNO][  5].d[ 15] =         8.763889765242;
  BAS[ATNO][  5].a[ 16] =         0.090171093000;     BAS[ATNO][  5].d[ 16] =        -3.950222476693;
  BAS[ATNO][  5].a[ 17] =         0.042287348600;     BAS[ATNO][  5].d[ 17] =         1.033453293955;

  // Basis function   7 L = s
  InitBFNGauss(BAS[ATNO][  6]);
  BAS[ATNO][  6].l  = 0;
  BAS[ATNO][  6].ng = 18;
  BAS[ATNO][  6].a[  0] =     18774.299999999999;     BAS[ATNO][  6].d[  0] =         0.000249478019;
  BAS[ATNO][  6].a[  1] =      2824.810000000000;     BAS[ATNO][  6].d[  1] =         0.001838065992;
  BAS[ATNO][  6].a[  2] =       640.088000000000;     BAS[ATNO][  6].d[  2] =         0.007693461847;
  BAS[ATNO][  6].a[  3] =       172.616000000000;     BAS[ATNO][  6].d[  3] =         0.016483893219;
  BAS[ATNO][  6].a[  4] =        29.516900000000;     BAS[ATNO][  6].d[  4] =        -0.172987324544;
  BAS[ATNO][  6].a[  5] =        18.444800000000;     BAS[ATNO][  6].d[  5] =         1.372250174150;
  BAS[ATNO][  6].a[  6] =        11.523800000000;     BAS[ATNO][  6].d[  6] =        -1.881453154691;
  BAS[ATNO][  6].a[  7] =         6.618900000000;     BAS[ATNO][  6].d[  7] =        -1.755973048774;
  BAS[ATNO][  6].a[  8] =         2.995520000000;     BAS[ATNO][  6].d[  8] =         2.188329461906;
  BAS[ATNO][  6].a[  9] =         1.653258653600;     BAS[ATNO][  6].d[  9] =       -10.723788878790;
  BAS[ATNO][  6].a[ 10] =        27.052171835000;     BAS[ATNO][  6].d[ 10] =         1.286901012313;
  BAS[ATNO][  6].a[ 11] =        20.940622415000;     BAS[ATNO][  6].d[ 11] =        -2.766579215465;
  BAS[ATNO][  6].a[ 12] =         6.002459107100;     BAS[ATNO][  6].d[ 12] =         5.917428524814;
  BAS[ATNO][  6].a[ 13] =         0.875538892700;     BAS[ATNO][  6].d[ 13] =        11.568559546033;
  BAS[ATNO][  6].a[ 14] =         0.410336166500;     BAS[ATNO][  6].d[ 14] =        -7.797296944070;
  BAS[ATNO][  6].a[ 15] =         0.194935857800;     BAS[ATNO][  6].d[ 15] =         4.511786027893;
  BAS[ATNO][  6].a[ 16] =         0.090171093000;     BAS[ATNO][  6].d[ 16] =        -1.999104033865;
  BAS[ATNO][  6].a[ 17] =         0.042287348600;     BAS[ATNO][  6].d[ 17] =         0.531506057809;

  // Basis function   8 L = s
  InitBFNGauss(BAS[ATNO][  7]);
  BAS[ATNO][  7].l  = 0;
  BAS[ATNO][  7].ng = 18;
  BAS[ATNO][  7].a[  0] =     18774.299999999999;     BAS[ATNO][  7].d[  0] =        -0.000478112667;
  BAS[ATNO][  7].a[  1] =      2824.810000000000;     BAS[ATNO][  7].d[  1] =        -0.003522565387;
  BAS[ATNO][  7].a[  2] =       640.088000000000;     BAS[ATNO][  7].d[  2] =        -0.014744150930;
  BAS[ATNO][  7].a[  3] =       172.616000000000;     BAS[ATNO][  7].d[  3] =        -0.031590591383;
  BAS[ATNO][  7].a[  4] =        29.516900000000;     BAS[ATNO][  7].d[  4] =         0.331521917268;
  BAS[ATNO][  7].a[  5] =        18.444800000000;     BAS[ATNO][  7].d[  5] =        -2.629851695222;
  BAS[ATNO][  7].a[  6] =        11.523800000000;     BAS[ATNO][  7].d[  6] =         3.605714804454;
  BAS[ATNO][  7].a[  7] =         6.618900000000;     BAS[ATNO][  7].d[  7] =         3.365238194957;
  BAS[ATNO][  7].a[  8] =         2.995520000000;     BAS[ATNO][  7].d[  8] =        -4.193828540533;
  BAS[ATNO][  7].a[  9] =         1.653258653600;     BAS[ATNO][  7].d[  9] =         8.130890725416;
  BAS[ATNO][  7].a[ 10] =        27.052171835000;     BAS[ATNO][  7].d[ 10] =        -1.019014580606;
  BAS[ATNO][  7].a[ 11] =        20.940622415000;     BAS[ATNO][  7].d[ 11] =         2.190677085484;
  BAS[ATNO][  7].a[ 12] =         6.002459107100;     BAS[ATNO][  7].d[ 12] =        -4.685633074172;
  BAS[ATNO][  7].a[ 13] =         0.875538892700;     BAS[ATNO][  7].d[ 13] =        -6.993823552038;
  BAS[ATNO][  7].a[ 14] =         0.410336166500;     BAS[ATNO][  7].d[ 14] =         4.316634233585;
  BAS[ATNO][  7].a[ 15] =         0.194935857800;     BAS[ATNO][  7].d[ 15] =        -2.445292459015;
  BAS[ATNO][  7].a[ 16] =         0.090171093000;     BAS[ATNO][  7].d[ 16] =         1.081941600725;
  BAS[ATNO][  7].a[ 17] =         0.042287348600;     BAS[ATNO][  7].d[ 17] =        -0.288561383183;

  // Basis function   9 L = p
  InitBFNGauss(BAS[ATNO][  8]);
  BAS[ATNO][  8].l  = 1;
  BAS[ATNO][  8].ng = 15;
  BAS[ATNO][  8].a[  0] =       613.331000000000;     BAS[ATNO][  8].d[  0] =         0.000137998919;
  BAS[ATNO][  8].a[  1] =       141.710000000000;     BAS[ATNO][  8].d[  1] =         0.000852993319;
  BAS[ATNO][  8].a[  2] =        20.310600000000;     BAS[ATNO][  8].d[  2] =         0.055023569017;
  BAS[ATNO][  8].a[  3] =        11.033100000000;     BAS[ATNO][  8].d[  3] =        -0.252986018435;
  BAS[ATNO][  8].a[  4] =         6.895130000000;     BAS[ATNO][  8].d[  4] =         0.009745923663;
  BAS[ATNO][  8].a[  5] =         3.241660000000;     BAS[ATNO][  8].d[  5] =         0.526792873787;
  BAS[ATNO][  8].a[  6] =         1.665350000000;     BAS[ATNO][  8].d[  6] =         0.501828069329;
  BAS[ATNO][  8].a[  7] =        18.388908413000;     BAS[ATNO][  8].d[  7] =         0.000000139999;
  BAS[ATNO][  8].a[  8] =         6.113904543100;     BAS[ATNO][  8].d[  8] =        -0.000001442890;
  BAS[ATNO][  8].a[  9] =         1.872981569100;     BAS[ATNO][  8].d[  9] =        -0.000004165414;
  BAS[ATNO][  8].a[ 10] =         0.820046659900;     BAS[ATNO][  8].d[ 10] =         0.121508463916;
  BAS[ATNO][  8].a[ 11] =         0.395526482500;     BAS[ATNO][  8].d[ 11] =         0.004163831005;
  BAS[ATNO][  8].a[ 12] =         0.174455098100;     BAS[ATNO][  8].d[ 12] =         0.001370911709;
  BAS[ATNO][  8].a[ 13] =         0.073389992700;     BAS[ATNO][  8].d[ 13] =        -0.000266299657;
  BAS[ATNO][  8].a[ 14] =         0.019994004400;     BAS[ATNO][  8].d[ 14] =         0.000052842733;

  // Basis function  10 L = p
  InitBFNGauss(BAS[ATNO][  9]);
  BAS[ATNO][  9].l  = 1;
  BAS[ATNO][  9].ng = 15;
  BAS[ATNO][  9].a[  0] =       613.331000000000;     BAS[ATNO][  9].d[  0] =        -0.000054843729;
  BAS[ATNO][  9].a[  1] =       141.710000000000;     BAS[ATNO][  9].d[  1] =        -0.000338997831;
  BAS[ATNO][  9].a[  2] =        20.310600000000;     BAS[ATNO][  9].d[  2] =        -0.021867545892;
  BAS[ATNO][  9].a[  3] =        11.033100000000;     BAS[ATNO][  9].d[  3] =         0.100542067101;
  BAS[ATNO][  9].a[  4] =         6.895130000000;     BAS[ATNO][  9].d[  4] =        -0.003873238991;
  BAS[ATNO][  9].a[  5] =         3.241660000000;     BAS[ATNO][  9].d[  5] =        -0.209358781137;
  BAS[ATNO][  9].a[  6] =         1.665350000000;     BAS[ATNO][  9].d[  6] =        -0.199437232664;
  BAS[ATNO][  9].a[  7] =        18.388908413000;     BAS[ATNO][  9].d[  7] =         0.002152788890;
  BAS[ATNO][  9].a[  8] =         6.113904543100;     BAS[ATNO][  9].d[  8] =        -0.022187591968;
  BAS[ATNO][  9].a[  9] =         1.872981569100;     BAS[ATNO][  9].d[  9] =        -0.064052364459;
  BAS[ATNO][  9].a[ 10] =         0.820046659900;     BAS[ATNO][  9].d[ 10] =         0.051437189899;
  BAS[ATNO][  9].a[ 11] =         0.395526482500;     BAS[ATNO][  9].d[ 11] =         0.465596085974;
  BAS[ATNO][  9].a[ 12] =         0.174455098100;     BAS[ATNO][  9].d[ 12] =         0.495765319889;
  BAS[ATNO][  9].a[ 13] =         0.073389992700;     BAS[ATNO][  9].d[ 13] =         0.163428540297;
  BAS[ATNO][  9].a[ 14] =         0.019994004400;     BAS[ATNO][  9].d[ 14] =         0.001528721405;

  // Basis function  11 L = p
  InitBFNGauss(BAS[ATNO][ 10]);
  BAS[ATNO][ 10].l  = 1;
  BAS[ATNO][ 10].ng = 15;
  BAS[ATNO][ 10].a[  0] =       613.331000000000;     BAS[ATNO][ 10].d[  0] =         0.000006943606;
  BAS[ATNO][ 10].a[  1] =       141.710000000000;     BAS[ATNO][ 10].d[  1] =         0.000042919533;
  BAS[ATNO][ 10].a[  2] =        20.310600000000;     BAS[ATNO][ 10].d[  2] =         0.002768586593;
  BAS[ATNO][ 10].a[  3] =        11.033100000000;     BAS[ATNO][ 10].d[  3] =        -0.012729339650;
  BAS[ATNO][ 10].a[  4] =         6.895130000000;     BAS[ATNO][ 10].d[  4] =         0.000490379560;
  BAS[ATNO][ 10].a[  5] =         3.241660000000;     BAS[ATNO][ 10].d[  5] =         0.026506308362;
  BAS[ATNO][ 10].a[  6] =         1.665350000000;     BAS[ATNO][ 10].d[  6] =         0.025250169872;
  BAS[ATNO][ 10].a[  7] =        18.388908413000;     BAS[ATNO][ 10].d[  7] =        -0.000253304039;
  BAS[ATNO][ 10].a[  8] =         6.113904543100;     BAS[ATNO][ 10].d[  8] =         0.002610663165;
  BAS[ATNO][ 10].a[  9] =         1.872981569100;     BAS[ATNO][ 10].d[  9] =         0.007536606441;
  BAS[ATNO][ 10].a[ 10] =         0.820046659900;     BAS[ATNO][ 10].d[ 10] =         0.027490700190;
  BAS[ATNO][ 10].a[ 11] =         0.395526482500;     BAS[ATNO][ 10].d[ 11] =        -0.168856961830;
  BAS[ATNO][ 10].a[ 12] =         0.174455098100;     BAS[ATNO][ 10].d[ 12] =         0.135940297139;
  BAS[ATNO][ 10].a[ 13] =         0.073389992700;     BAS[ATNO][ 10].d[ 13] =        -0.482246236263;
  BAS[ATNO][ 10].a[ 14] =         0.019994004400;     BAS[ATNO][ 10].d[ 14] =         1.209345997855;

  // Basis function  12 L = p
  InitBFNGauss(BAS[ATNO][ 11]);
  BAS[ATNO][ 11].l  = 1;
  BAS[ATNO][ 11].ng = 15;
  BAS[ATNO][ 11].a[  0] =       613.331000000000;     BAS[ATNO][ 11].d[  0] =         0.000030336735;
  BAS[ATNO][ 11].a[  1] =       141.710000000000;     BAS[ATNO][ 11].d[  1] =         0.000187516197;
  BAS[ATNO][ 11].a[  2] =        20.310600000000;     BAS[ATNO][ 11].d[  2] =         0.012096003765;
  BAS[ATNO][ 11].a[  3] =        11.033100000000;     BAS[ATNO][ 11].d[  3] =        -0.055614709953;
  BAS[ATNO][ 11].a[  4] =         6.895130000000;     BAS[ATNO][ 11].d[  4] =         0.002142476968;
  BAS[ATNO][ 11].a[  5] =         3.241660000000;     BAS[ATNO][ 11].d[  5] =         0.115806529792;
  BAS[ATNO][ 11].a[  6] =         1.665350000000;     BAS[ATNO][ 11].d[  6] =         0.110318438523;
  BAS[ATNO][ 11].a[  7] =        18.388908413000;     BAS[ATNO][ 11].d[  7] =        -0.001488193168;
  BAS[ATNO][ 11].a[  8] =         6.113904543100;     BAS[ATNO][ 11].d[  8] =         0.015337975285;
  BAS[ATNO][ 11].a[  9] =         1.872981569100;     BAS[ATNO][ 11].d[  9] =         0.044278513164;
  BAS[ATNO][ 11].a[ 10] =         0.820046659900;     BAS[ATNO][ 11].d[ 10] =        -0.237998446068;
  BAS[ATNO][ 11].a[ 11] =         0.395526482500;     BAS[ATNO][ 11].d[ 11] =         0.331686619278;
  BAS[ATNO][ 11].a[ 12] =         0.174455098100;     BAS[ATNO][ 11].d[ 12] =        -1.742308154708;
  BAS[ATNO][ 11].a[ 13] =         0.073389992700;     BAS[ATNO][ 11].d[ 13] =         2.286750432142;
  BAS[ATNO][ 11].a[ 14] =         0.019994004400;     BAS[ATNO][ 11].d[ 14] =        -0.737116247624;

  // Basis function  13 L = p
  InitBFNGauss(BAS[ATNO][ 12]);
  BAS[ATNO][ 12].l  = 1;
  BAS[ATNO][ 12].ng = 15;
  BAS[ATNO][ 12].a[  0] =       613.331000000000;     BAS[ATNO][ 12].d[  0] =         0.000045463009;
  BAS[ATNO][ 12].a[  1] =       141.710000000000;     BAS[ATNO][ 12].d[  1] =         0.000281014103;
  BAS[ATNO][ 12].a[  2] =        20.310600000000;     BAS[ATNO][ 12].d[  2] =         0.018127221606;
  BAS[ATNO][ 12].a[  3] =        11.033100000000;     BAS[ATNO][ 12].d[  3] =        -0.083344895677;
  BAS[ATNO][ 12].a[  4] =         6.895130000000;     BAS[ATNO][ 12].d[  4] =         0.003210742617;
  BAS[ATNO][ 12].a[  5] =         3.241660000000;     BAS[ATNO][ 12].d[  5] =         0.173549105127;
  BAS[ATNO][ 12].a[  6] =         1.665350000000;     BAS[ATNO][ 12].d[  6] =         0.165324583329;
  BAS[ATNO][ 12].a[  7] =        18.388908413000;     BAS[ATNO][ 12].d[  7] =        -0.001557586458;
  BAS[ATNO][ 12].a[  8] =         6.113904543100;     BAS[ATNO][ 12].d[  8] =         0.016053173139;
  BAS[ATNO][ 12].a[  9] =         1.872981569100;     BAS[ATNO][ 12].d[  9] =         0.046343185781;
  BAS[ATNO][ 12].a[ 10] =         0.820046659900;     BAS[ATNO][ 12].d[ 10] =         0.732160019157;
  BAS[ATNO][ 12].a[ 11] =         0.395526482500;     BAS[ATNO][ 12].d[ 11] =        -3.320108654037;
  BAS[ATNO][ 12].a[ 12] =         0.174455098100;     BAS[ATNO][ 12].d[ 12] =         3.774485025357;
  BAS[ATNO][ 12].a[ 13] =         0.073389992700;     BAS[ATNO][ 12].d[ 13] =        -1.766245741878;
  BAS[ATNO][ 12].a[ 14] =         0.019994004400;     BAS[ATNO][ 12].d[ 14] =         0.361369404023;

  // Basis function  14 L = p
  InitBFNGauss(BAS[ATNO][ 13]);
  BAS[ATNO][ 13].l  = 1;
  BAS[ATNO][ 13].ng = 15;
  BAS[ATNO][ 13].a[  0] =       613.331000000000;     BAS[ATNO][ 13].d[  0] =         0.000188183607;
  BAS[ATNO][ 13].a[  1] =       141.710000000000;     BAS[ATNO][ 13].d[  1] =         0.001163192874;
  BAS[ATNO][ 13].a[  2] =        20.310600000000;     BAS[ATNO][ 13].d[  2] =         0.075033440468;
  BAS[ATNO][ 13].a[  3] =        11.033100000000;     BAS[ATNO][ 13].d[  3] =        -0.344986915477;
  BAS[ATNO][ 13].a[  4] =         6.895130000000;     BAS[ATNO][ 13].d[  4] =         0.013290126323;
  BAS[ATNO][ 13].a[  5] =         3.241660000000;     BAS[ATNO][ 13].d[  5] =         0.718366373553;
  BAS[ATNO][ 13].a[  6] =         1.665350000000;     BAS[ATNO][ 13].d[  6] =         0.684322868150;
  BAS[ATNO][ 13].a[  7] =        18.388908413000;     BAS[ATNO][ 13].d[  7] =        -0.016025604972;
  BAS[ATNO][ 13].a[  8] =         6.113904543100;     BAS[ATNO][ 13].d[  8] =         0.165166954286;
  BAS[ATNO][ 13].a[  9] =         1.872981569100;     BAS[ATNO][ 13].d[  9] =         0.476813074977;
  BAS[ATNO][ 13].a[ 10] =         0.820046659900;     BAS[ATNO][ 13].d[ 10] =        -4.553974964074;
  BAS[ATNO][ 13].a[ 11] =         0.395526482500;     BAS[ATNO][ 13].d[ 11] =         4.791490921278;
  BAS[ATNO][ 13].a[ 12] =         0.174455098100;     BAS[ATNO][ 13].d[ 12] =        -2.641474199733;
  BAS[ATNO][ 13].a[ 13] =         0.073389992700;     BAS[ATNO][ 13].d[ 13] =         0.938155036918;
  BAS[ATNO][ 13].a[ 14] =         0.019994004400;     BAS[ATNO][ 13].d[ 14] =        -0.181437110727;

  // Basis function  15 L = p
  InitBFNGauss(BAS[ATNO][ 14]);
  BAS[ATNO][ 14].l  = 1;
  BAS[ATNO][ 14].ng = 15;
  BAS[ATNO][ 14].a[  0] =       613.331000000000;     BAS[ATNO][ 14].d[  0] =        -0.000725784699;
  BAS[ATNO][ 14].a[  1] =       141.710000000000;     BAS[ATNO][ 14].d[  1] =        -0.004486190929;
  BAS[ATNO][ 14].a[  2] =        20.310600000000;     BAS[ATNO][ 14].d[  2] =        -0.289388241105;
  BAS[ATNO][ 14].a[  3] =        11.033100000000;     BAS[ATNO][ 14].d[  3] =         1.330542169610;
  BAS[ATNO][ 14].a[  4] =         6.895130000000;     BAS[ATNO][ 14].d[  4] =        -0.051257229533;
  BAS[ATNO][ 14].a[  5] =         3.241660000000;     BAS[ATNO][ 14].d[  5] =        -2.770588420494;
  BAS[ATNO][ 14].a[  6] =         1.665350000000;     BAS[ATNO][ 14].d[  6] =        -2.639289761015;
  BAS[ATNO][ 14].a[  7] =        18.388908413000;     BAS[ATNO][ 14].d[  7] =        -0.120880096368;
  BAS[ATNO][ 14].a[  8] =         6.113904543100;     BAS[ATNO][ 14].d[  8] =         1.245843597523;
  BAS[ATNO][ 14].a[  9] =         1.872981569100;     BAS[ATNO][ 14].d[  9] =         3.596570023599;
  BAS[ATNO][ 14].a[ 10] =         0.820046659900;     BAS[ATNO][ 14].d[ 10] =         0.817686804223;
  BAS[ATNO][ 14].a[ 11] =         0.395526482500;     BAS[ATNO][ 14].d[ 11] =        -0.711090101473;
  BAS[ATNO][ 14].a[ 12] =         0.174455098100;     BAS[ATNO][ 14].d[ 12] =         0.382419150484;
  BAS[ATNO][ 14].a[ 13] =         0.073389992700;     BAS[ATNO][ 14].d[ 13] =        -0.142211771255;
  BAS[ATNO][ 14].a[ 14] =         0.019994004400;     BAS[ATNO][ 14].d[ 14] =         0.029068653332;

  // Basis function  16 L = d
  InitBFNGauss(BAS[ATNO][ 15]);
  BAS[ATNO][ 15].l  = 2;
  BAS[ATNO][ 15].ng = 12;
  BAS[ATNO][ 15].a[  0] =       315.661068650000;     BAS[ATNO][ 15].d[  0] =         0.000142356053;
  BAS[ATNO][ 15].a[  1] =        95.553873651000;     BAS[ATNO][ 15].d[  1] =         0.001170788859;
  BAS[ATNO][ 15].a[  2] =        35.451236301000;     BAS[ATNO][ 15].d[  2] =         0.005878322320;
  BAS[ATNO][ 15].a[  3] =        13.153211283000;     BAS[ATNO][ 15].d[  3] =        -0.016764244323;
  BAS[ATNO][ 15].a[  4] =         6.384732956400;     BAS[ATNO][ 15].d[  4] =         0.115584340460;
  BAS[ATNO][ 15].a[  5] =         3.696816641000;     BAS[ATNO][ 15].d[  5] =         0.303759523059;
  BAS[ATNO][ 15].a[  6] =         2.097607036400;     BAS[ATNO][ 15].d[  6] =         0.360377655726;
  BAS[ATNO][ 15].a[  7] =         1.195124661600;     BAS[ATNO][ 15].d[  7] =         0.248134610759;
  BAS[ATNO][ 15].a[  8] =         0.684317253400;     BAS[ATNO][ 15].d[  8] =         0.104537858303;
  BAS[ATNO][ 15].a[  9] =         0.377104802000;     BAS[ATNO][ 15].d[  9] =         0.026812918994;
  BAS[ATNO][ 15].a[ 10] =         0.167600000000;     BAS[ATNO][ 15].d[ 10] =         0.002573883462;
  BAS[ATNO][ 15].a[ 11] =         0.065304298500;     BAS[ATNO][ 15].d[ 11] =         0.000014972613;

  // Basis function  17 L = d
  InitBFNGauss(BAS[ATNO][ 16]);
  BAS[ATNO][ 16].l  = 2;
  BAS[ATNO][ 16].ng = 12;
  BAS[ATNO][ 16].a[  0] =       315.661068650000;     BAS[ATNO][ 16].d[  0] =        -0.000012021540;
  BAS[ATNO][ 16].a[  1] =        95.553873651000;     BAS[ATNO][ 16].d[  1] =        -0.000098869589;
  BAS[ATNO][ 16].a[  2] =        35.451236301000;     BAS[ATNO][ 16].d[  2] =        -0.000496406598;
  BAS[ATNO][ 16].a[  3] =        13.153211283000;     BAS[ATNO][ 16].d[  3] =         0.001415689892;
  BAS[ATNO][ 16].a[  4] =         6.384732956400;     BAS[ATNO][ 16].d[  4] =        -0.009760749086;
  BAS[ATNO][ 16].a[  5] =         3.696816641000;     BAS[ATNO][ 16].d[  5] =        -0.025651575941;
  BAS[ATNO][ 16].a[  6] =         2.097607036400;     BAS[ATNO][ 16].d[  6] =        -0.030432806552;
  BAS[ATNO][ 16].a[  7] =         1.195124661600;     BAS[ATNO][ 16].d[  7] =        -0.020954219797;
  BAS[ATNO][ 16].a[  8] =         0.684317253400;     BAS[ATNO][ 16].d[  8] =        -0.057427147699;
  BAS[ATNO][ 16].a[  9] =         0.377104802000;     BAS[ATNO][ 16].d[  9] =         0.242506257801;
  BAS[ATNO][ 16].a[ 10] =         0.167600000000;     BAS[ATNO][ 16].d[ 10] =        -0.232929642065;
  BAS[ATNO][ 16].a[ 11] =         0.065304298500;     BAS[ATNO][ 16].d[ 11] =         1.090710623777;

  // Basis function  18 L = d
  InitBFNGauss(BAS[ATNO][ 17]);
  BAS[ATNO][ 17].l  = 2;
  BAS[ATNO][ 17].ng = 12;
  BAS[ATNO][ 17].a[  0] =       315.661068650000;     BAS[ATNO][ 17].d[  0] =        -0.000039257672;
  BAS[ATNO][ 17].a[  1] =        95.553873651000;     BAS[ATNO][ 17].d[  1] =        -0.000322869620;
  BAS[ATNO][ 17].a[  2] =        35.451236301000;     BAS[ATNO][ 17].d[  2] =        -0.001621070851;
  BAS[ATNO][ 17].a[  3] =        13.153211283000;     BAS[ATNO][ 17].d[  3] =         0.004623092496;
  BAS[ATNO][ 17].a[  4] =         6.384732956400;     BAS[ATNO][ 17].d[  4] =        -0.031874809673;
  BAS[ATNO][ 17].a[  5] =         3.696816641000;     BAS[ATNO][ 17].d[  5] =        -0.083768068800;
  BAS[ATNO][ 17].a[  6] =         2.097607036400;     BAS[ATNO][ 17].d[  6] =        -0.099381708119;
  BAS[ATNO][ 17].a[  7] =         1.195124661600;     BAS[ATNO][ 17].d[  7] =        -0.068428330860;
  BAS[ATNO][ 17].a[  8] =         0.684317253400;     BAS[ATNO][ 17].d[  8] =         0.251556017065;
  BAS[ATNO][ 17].a[  9] =         0.377104802000;     BAS[ATNO][ 17].d[  9] =        -0.358373970059;
  BAS[ATNO][ 17].a[ 10] =         0.167600000000;     BAS[ATNO][ 17].d[ 10] =         1.594880107207;
  BAS[ATNO][ 17].a[ 11] =         0.065304298500;     BAS[ATNO][ 17].d[ 11] =        -0.996511738339;

  // Basis function  19 L = d
  InitBFNGauss(BAS[ATNO][ 18]);
  BAS[ATNO][ 18].l  = 2;
  BAS[ATNO][ 18].ng = 12;
  BAS[ATNO][ 18].a[  0] =       315.661068650000;     BAS[ATNO][ 18].d[  0] =        -0.000051707883;
  BAS[ATNO][ 18].a[  1] =        95.553873651000;     BAS[ATNO][ 18].d[  1] =        -0.000425264765;
  BAS[ATNO][ 18].a[  2] =        35.451236301000;     BAS[ATNO][ 18].d[  2] =        -0.002135178635;
  BAS[ATNO][ 18].a[  3] =        13.153211283000;     BAS[ATNO][ 18].d[  3] =         0.006089263971;
  BAS[ATNO][ 18].a[  4] =         6.384732956400;     BAS[ATNO][ 18].d[  4] =        -0.041983613843;
  BAS[ATNO][ 18].a[  5] =         3.696816641000;     BAS[ATNO][ 18].d[  5] =        -0.110334345175;
  BAS[ATNO][ 18].a[  6] =         2.097607036400;     BAS[ATNO][ 18].d[  6] =        -0.130899707308;
  BAS[ATNO][ 18].a[  7] =         1.195124661600;     BAS[ATNO][ 18].d[  7] =        -0.090129749737;
  BAS[ATNO][ 18].a[  8] =         0.684317253400;     BAS[ATNO][ 18].d[  8] =        -0.566793784060;
  BAS[ATNO][ 18].a[  9] =         0.377104802000;     BAS[ATNO][ 18].d[  9] =         2.469001922055;
  BAS[ATNO][ 18].a[ 10] =         0.167600000000;     BAS[ATNO][ 18].d[ 10] =        -2.072454755611;
  BAS[ATNO][ 18].a[ 11] =         0.065304298500;     BAS[ATNO][ 18].d[ 11] =         0.668282593440;

  // Basis function  20 L = d
  InitBFNGauss(BAS[ATNO][ 19]);
  BAS[ATNO][ 19].l  = 2;
  BAS[ATNO][ 19].ng = 12;
  BAS[ATNO][ 19].a[  0] =       315.661068650000;     BAS[ATNO][ 19].d[  0] =         0.000155294566;
  BAS[ATNO][ 19].a[  1] =        95.553873651000;     BAS[ATNO][ 19].d[  1] =         0.001277199981;
  BAS[ATNO][ 19].a[  2] =        35.451236301000;     BAS[ATNO][ 19].d[  2] =         0.006412593610;
  BAS[ATNO][ 19].a[  3] =        13.153211283000;     BAS[ATNO][ 19].d[  3] =        -0.018287919609;
  BAS[ATNO][ 19].a[  4] =         6.384732956400;     BAS[ATNO][ 19].d[  4] =         0.126089615837;
  BAS[ATNO][ 19].a[  5] =         3.696816641000;     BAS[ATNO][ 19].d[  5] =         0.331367739063;
  BAS[ATNO][ 19].a[  6] =         2.097607036400;     BAS[ATNO][ 19].d[  6] =         0.393131803028;
  BAS[ATNO][ 19].a[  7] =         1.195124661600;     BAS[ATNO][ 19].d[  7] =         0.270687167673;
  BAS[ATNO][ 19].a[  8] =         0.684317253400;     BAS[ATNO][ 19].d[  8] =        -3.313174881073;
  BAS[ATNO][ 19].a[  9] =         0.377104802000;     BAS[ATNO][ 19].d[  9] =         3.471619608302;
  BAS[ATNO][ 19].a[ 10] =         0.167600000000;     BAS[ATNO][ 19].d[ 10] =        -1.466420119833;
  BAS[ATNO][ 19].a[ 11] =         0.065304298500;     BAS[ATNO][ 19].d[ 11] =         0.384572003738;

  // Basis function  21 L = f
  InitBFNGauss(BAS[ATNO][ 20]);
  BAS[ATNO][ 20].l  = 3;
  BAS[ATNO][ 20].ng = 4;
  BAS[ATNO][ 20].a[  0] =         0.661900000000;     BAS[ATNO][ 20].d[  0] =         0.091554262863;
  BAS[ATNO][ 20].a[  1] =         0.297900000000;     BAS[ATNO][ 20].d[  1] =         0.885297004115;
  BAS[ATNO][ 20].a[  2] =         2.432300000000;     BAS[ATNO][ 20].d[  2] =         0.169640124790;
  BAS[ATNO][ 20].a[  3] =         7.207739178900;     BAS[ATNO][ 20].d[  3] =         0.058442732868;

  // Basis function  22 L = f
  InitBFNGauss(BAS[ATNO][ 21]);
  BAS[ATNO][ 21].l  = 3;
  BAS[ATNO][ 21].ng = 4;
  BAS[ATNO][ 21].a[  0] =         0.661900000000;     BAS[ATNO][ 21].d[  0] =         0.986612336557;
  BAS[ATNO][ 21].a[  1] =         0.297900000000;     BAS[ATNO][ 21].d[  1] =        -0.956717466433;
  BAS[ATNO][ 21].a[  2] =         2.432300000000;     BAS[ATNO][ 21].d[  2] =         0.350040506395;
  BAS[ATNO][ 21].a[  3] =         7.207739178900;     BAS[ATNO][ 21].d[  3] =         0.176978846991;

  // Basis function  23 L = f
  InitBFNGauss(BAS[ATNO][ 22]);
  BAS[ATNO][ 22].l  = 3;
  BAS[ATNO][ 22].ng = 4;
  BAS[ATNO][ 22].a[  0] =         0.661900000000;     BAS[ATNO][ 22].d[  0] =         1.183400989649;
  BAS[ATNO][ 22].a[  1] =         0.297900000000;     BAS[ATNO][ 22].d[  1] =        -0.637170909348;
[...]
<sg|pf>:          224 b          121 skpd ( 54.0%)    0.000 s ( 0.004 ms/b)
<sg|pg>:           56 b           48 skpd ( 85.7%)    0.000 s ( 0.005 ms/b)
<sg|dd>:          120 b            2 skpd (  1.7%)    0.005 s ( 0.039 ms/b)
<sg|df>:          160 b           59 skpd ( 36.9%)    0.001 s ( 0.010 ms/b)
<sg|dg>:           40 b           13 skpd ( 32.5%)    0.001 s ( 0.027 ms/b)
<sg|ff>:           80 b           43 skpd ( 53.8%)    0.000 s ( 0.004 ms/b)
<sg|fg>:           32 b           23 skpd ( 71.9%)    0.000 s ( 0.021 ms/b)
<sg|gg>:            8 b            3 skpd ( 37.5%)    0.000 s ( 0.068 ms/b)
<pp|pp>:          406 b            0 skpd (  0.0%)    0.002 s ( 0.005 ms/b)
<pp|pd>:          980 b            0 skpd (  0.0%)    0.004 s ( 0.004 ms/b)
<pp|pf>:          784 b            0 skpd (  0.0%)    0.001 s ( 0.002 ms/b)
<pp|pg>:          196 b            0 skpd (  0.0%)    0.002 s ( 0.008 ms/b)
<pp|dd>:          420 b            0 skpd (  0.0%)    0.009 s ( 0.020 ms/b)
<pp|df>:          560 b            0 skpd (  0.0%)    0.002 s ( 0.004 ms/b)
<pp|dg>:          140 b            0 skpd (  0.0%)    0.003 s ( 0.023 ms/b)
<pp|ff>:          280 b            0 skpd (  0.0%)    0.001 s ( 0.003 ms/b)
<pp|fg>:          112 b            0 skpd (  0.0%)    0.001 s ( 0.009 ms/b)
<pp|gg>:           28 b            0 skpd (  0.0%)    0.001 s ( 0.052 ms/b)
<pd|pd>:          630 b            0 skpd (  0.0%)    0.011 s ( 0.018 ms/b)
<pd|pf>:          980 b            0 skpd (  0.0%)    0.003 s ( 0.003 ms/b)
<pd|pg>:          245 b            0 skpd (  0.0%)    0.005 s ( 0.019 ms/b)
<pd|dd>:          525 b            4 skpd (  0.8%)    0.024 s ( 0.047 ms/b)
<pd|df>:          700 b           29 skpd (  4.1%)    0.007 s ( 0.010 ms/b)
<pd|dg>:          175 b            7 skpd (  4.0%)    0.010 s ( 0.058 ms/b)
<pd|ff>:          350 b           83 skpd ( 23.7%)    0.002 s ( 0.007 ms/b)
<pd|fg>:          140 b           54 skpd ( 38.6%)    0.003 s ( 0.031 ms/b)
<pd|gg>:           35 b           15 skpd ( 42.9%)    0.003 s ( 0.156 ms/b)
<pf|pf>:          406 b            0 skpd (  0.0%)    0.002 s ( 0.004 ms/b)
<pf|pg>:          196 b            0 skpd (  0.0%)    0.003 s ( 0.017 ms/b)
<pf|dd>:          420 b            5 skpd (  1.2%)    0.016 s ( 0.039 ms/b)
<pf|df>:          560 b          199 skpd ( 35.5%)    0.004 s ( 0.011 ms/b)
<pf|dg>:          140 b           41 skpd ( 29.3%)    0.005 s ( 0.053 ms/b)
<pf|ff>:          280 b           62 skpd ( 22.1%)    0.002 s ( 0.008 ms/b)
<pf|fg>:          112 b           43 skpd ( 38.4%)    0.002 s ( 0.032 ms/b)
<pf|gg>:           28 b            5 skpd ( 17.9%)    0.003 s ( 0.139 ms/b)
<pg|pg>:           28 b            0 skpd (  0.0%)    0.001 s ( 0.037 ms/b)
<pg|dd>:          105 b            5 skpd (  4.8%)    0.008 s ( 0.083 ms/b)
<pg|df>:          140 b           58 skpd ( 41.4%)    0.002 s ( 0.026 ms/b)
<pg|dg>:           35 b           27 skpd ( 77.1%)    0.001 s ( 0.127 ms/b)
<pg|ff>:           70 b           18 skpd ( 25.7%)    0.001 s ( 0.013 ms/b)
<pg|fg>:           28 b           12 skpd ( 42.9%)    0.001 s ( 0.066 ms/b)
<pg|gg>: done
<dd|dd>:          120 b            0 skpd (  0.0%)    0.029 s ( 0.238 ms/b)
<dd|df>:          300 b            3 skpd (  1.0%)    0.008 s ( 0.026 ms/b)
<dd|dg>:           75 b            1 skpd (  1.3%)    0.012 s ( 0.163 ms/b)
<dd|ff>:          150 b            3 skpd (  2.0%)    0.002 s ( 0.015 ms/b)
<dd|fg>:           60 b            2 skpd (  3.3%)    0.003 s ( 0.056 ms/b)
<dd|gg>:           15 b            0 skpd (  0.0%)    0.005 s ( 0.318 ms/b)
<df|df>:          210 b           13 skpd (  6.2%)    0.007 s ( 0.036 ms/b)
<df|dg>:          100 b            4 skpd (  4.0%)    0.011 s ( 0.116 ms/b)
<df|ff>: done
<df|fg>:           80 b           52 skpd ( 65.0%)    0.003 s ( 0.093 ms/b)
<df|gg>:           20 b            9 skpd ( 45.0%)    0.004 s ( 0.364 ms/b)
<dg|dg>:           15 b            1 skpd (  6.7%)    0.003 s ( 0.219 ms/b)
<dg|ff>:           50 b           26 skpd ( 52.0%)    0.001 s ( 0.051 ms/b)
<dg|fg>:           20 b           14 skpd ( 70.0%)    0.001 s ( 0.202 ms/b)
<dg|gg>:            5 b            2 skpd ( 40.0%)    0.002 s ( 0.581 ms/b)
<ff|ff>: done
<ff|fg>: done
<ff|gg>: done
<fg|fg>: done
<fg|gg>: done
<gg|gg>: done
Recanonicalizing the internal orbitals
Recanonicalizing the virtual orbitals
Time needed for Fock operator              ...            0.378 sec
Reference energy                           ...   -328.299136104

------------------------------
PARTIAL COULOMB TRANSFORMATION
------------------------------

Transformation type                        ... one-operator
Dimension of the basis                     ...   91
Number of internal MOs                     ...   87 (4-90)
Pair cutoff                                ... 0.000e+00 Eh
Number of AO pairs included in the trafo   ... 4186
Total Number of distinct AO pairs          ... 4186
Memory devoted for trafo                   ... 2500.0 MB 
Max. Number of MO pairs treated together   ... 78279      
Max. Number of MOs treated per batch       ...  860      
Number Format for Storage                  ... Double (8 Byte)
AO-integral source                         ... DIRECT
Integral package used                      ... LIBINT

Starting integral evaluation:
<ss|**>: <sp|**>:        11700 b        0 skpd     0.024 s (  0.002 ms/b)
       18200 b        0 skpd     0.020 s (  0.001 ms/b)
<sd|**>:        13000 b        0 skpd     0.052 s (  0.004 ms/b)
<sf|**>:        10400 b        0 skpd     0.042 s (  0.004 ms/b)
<sg|**>:         2600 b        0 skpd     0.032 s (  0.012 ms/b)
<pp|**>:         9100 b        0 skpd     0.041 s (  0.004 ms/b)
<pd|**>:        11375 b        0 skpd     0.095 s (  0.008 ms/b)
<pf|**>:         9100 b        0 skpd     0.089 s (  0.010 ms/b)
<pg|**>:         2275 b        0 skpd     0.073 s (  0.032 ms/b)
<dd|**>:         4875 b        0 skpd     0.184 s (  0.038 ms/b)
<df|**>:         6500 b        0 skpd     0.086 s (  0.013 ms/b)
<dg|**>:         1625 b        0 skpd     0.099 s (  0.061 ms/b)
<ff|**>:         3250 b        0 skpd     0.065 s (  0.020 ms/b)
<fg|**>:         1300 b        0 skpd     0.068 s (  0.052 ms/b)
<gg|**>:          325 b        0 skpd     0.058 s (  0.178 ms/b)
Closing buffer AOJ ( 0.00 GB; CompressionRatio= 1.00)
Collecting buffer AOJ 
    ... done with AO integral generation
Number of MO pairs included in the trafo   ... 3828
    ... Now sorting integrals
IBATCH = 1 of  1
Closing buffer JAO ( 0.00 GB; CompressionRatio= 1.00)
Collecting buffer JAO 
TOTAL TIME for half transformation         ...     1.760 sec
AO-integral generation                     ...     0.824 sec
Half transformation                        ...     0.215 sec
J-integral sorting                         ...     0.663 sec

-------------------------- SECOND HALF TRANSFORMATION -------------------------
Formation of (pq|rs)                       ... ok (     0.749 sec)
Integral sorting                           ... ok (     0.744 sec)

------------------
CLOSED SHELL GUESS
------------------

Initial guess performed in     0.007 sec
E(0)                                       ...   -328.299136104
E(MP2)                                     ...     -0.702843842
Initial E(tot)                             ...   -329.001979946
<T|T>                                      ...      0.130209068
Number of pairs included                   ... 45
Total number of pairs                      ... 45

------------------------------------------------
                  RHF COUPLED CLUSTER ITERATIONS
------------------------------------------------

Number of amplitudes to be optimized       ... 274482

Iter       E(tot)           E(Corr)          Delta-E          Residual     Time
  0   -329.001979946     -0.702843842      0.000000000      0.017475548    0.10
                           *** Turning on DIIS ***
  1   -328.937311951     -0.638175848      0.064667994      0.002542904    0.32
  2   -328.950240235     -0.651104131     -0.012928284      0.000960797    0.34
  3   -328.951360256     -0.652224153     -0.001120021      0.000226990    0.33
  4   -328.951476914     -0.652340810     -0.000116658      0.000083554    0.33
  5   -328.951487235     -0.652351131     -0.000010321      0.000025749    0.33
  6   -328.951488430     -0.652352326     -0.000001195      0.000006270    0.33
               --- The Coupled-Cluster iterations have converged ---

----------------------
COUPLED CLUSTER ENERGY
----------------------

E(0)                                       ...   -328.299136104
E(CORR)                                    ...     -0.652352326
E(TOT)                                     ...   -328.951488430
Singles Norm <S|S>**1/2                    ...      0.021396518  
T1 diagnostic                              ...      0.005043208  

------------------
LARGEST AMPLITUDES
------------------
  12-> 30  12-> 30       0.028523
  10-> 26  10-> 26       0.024953
  11-> 29  11-> 29       0.022607
  10-> 27  10-> 27       0.022593
  10-> 28  10-> 28       0.022593
  12-> 29  12-> 29       0.022532
  11-> 27  11-> 27       0.022389
  12-> 28  12-> 28       0.022389
  11-> 26  11-> 26       0.019809
  12-> 17  12-> 30       0.018350
  12-> 30  12-> 17       0.018350
  10-> 20  10-> 26       0.016206
  10-> 26  10-> 20       0.016206
  12-> 31  12-> 31       0.014758
  12-> 28  10-> 26       0.014563
  12-> 29  12-> 18       0.014512


        !!!!!!!!!!!!!!!!!!!!!!!!!!!!!!!!!!!!!!!!!!!!!!!!!!!!!!!!!!!!!!!!!!!!!!!!!! 
        !  Warning: Densities are linearized densities !                         !
        !!!!!!!!!!!!!!!!!!!!!!!!!!!!!!!!!!!!!!!!!!!!!!!!!!!!!!!!!!!!!!!!!!!!!!!!!! 

Trace of internal density part =     -0.242127617
Trace of external density part =      0.242127617
----------------------
RHF TRIPLES CORRECTION (Algorithm 1)
----------------------

Multiplier for the singles contribution    ...      1.000000000

10% done
20% done
30% done
40% done
50% done
60% done
70% done
80% done

Triples Correction (T)                     ...     -0.013642023
Scaling of triples based on CCSD energies (Peterson et al. Molecular Physics 113, 1551 (2015))
E(T*) = f*E(T) where f = E(F12-CCSD)/E(CCSD) 
f = CCSD (with F12)/ CCSD (without F12)    ...      1.000000000
Scaled triples correction (T)              ...     -0.013642023

Final correlation energy                   ...     -0.665994348
E(CCSD)                                    ...   -328.951488430
E(CCSD(T))                                 ...   -328.965130452

NORM  =      1.121521620 sqrt=     1.059019178
W(HF) =      0.891645763
------------------------------------------------------------------------------
                           ORCA POPULATION ANALYSIS
------------------------------------------------------------------------------
Input electron density              ... 54_Xe.mdcip
BaseName (.gbw .S,...)              ... 54_Xe

                    ********************************
                    * MULLIKEN POPULATION ANALYSIS *
                    ********************************

-----------------------
MULLIKEN ATOMIC CHARGES
-----------------------
   0 Xe:    0.000000
Sum of atomic charges:    0.0000000

--------------------------------
MULLIKEN REDUCED ORBITAL CHARGES
--------------------------------
  0 Xes       :     3.983730  s :     3.983730
      pz      :     3.963094  p :    11.889282
      px      :     3.963094
      py      :     3.963094
      dz2     :     2.005598  d :    10.027992
      dxz     :     2.005598
      dyz     :     2.005598
      dx2y2   :     2.005598
      dxy     :     2.005598
      f0      :     0.013285  f :     0.092995
      f+1     :     0.013285
      f-1     :     0.013285
      f+2     :     0.013285
      f-2     :     0.013285
      f+3     :     0.013285
      f-3     :     0.013285
      g0      :     0.000667  g :     0.006000
      g+1     :     0.000667
      g-1     :     0.000667
      g+2     :     0.000667
      g-2     :     0.000667
      g+3     :     0.000667
      g-3     :     0.000667
      g+4     :     0.000667
      g-4     :     0.000667


                     *******************************
                     * LOEWDIN POPULATION ANALYSIS *
                     *******************************

----------------------
LOEWDIN ATOMIC CHARGES
----------------------
   0 Xe:    0.000000

-------------------------------
LOEWDIN REDUCED ORBITAL CHARGES
-------------------------------
  0 Xes       :     3.983730  s :     3.983730
      pz      :     3.963094  p :    11.889282
      px      :     3.963094
      py      :     3.963094
      dz2     :     2.005598  d :    10.027992
      dxz     :     2.005598
      dyz     :     2.005598
      dx2y2   :     2.005598
      dxy     :     2.005598
      f0      :     0.013285  f :     0.092995
      f+1     :     0.013285
      f-1     :     0.013285
      f+2     :     0.013285
      f-2     :     0.013285
      f+3     :     0.013285
      f-3     :     0.013285
      g0      :     0.000667  g :     0.006000
      g+1     :     0.000667
      g-1     :     0.000667
      g+2     :     0.000667
      g-2     :     0.000667
      g+3     :     0.000667
      g-3     :     0.000667
      g+4     :     0.000667
      g-4     :     0.000667


                      *****************************
                      * MAYER POPULATION ANALYSIS *
                      *****************************

  NA   - Mulliken gross atomic population
  ZA   - Total nuclear charge
  QA   - Mulliken gross atomic charge
  VA   - Mayer's total valence
  BVA  - Mayer's bonded valence
  FA   - Mayer's free valence

  ATOM       NA         ZA         QA         VA         BVA        FA
  0 Xe    26.0000    26.0000     0.0000     0.9544     0.0000     0.9544





------------------------------------------------------------------------------- 
                                     TIMINGS                                   
------------------------------------------------------------------------------- 


Total execution time                   ...        6.347 sec

Fock Matrix Formation                  ...        0.378 sec (  5.9%)
Initial Guess                          ...        0.007 sec (  0.1%)
DIIS Solver                            ...        0.095 sec (  1.5%)
State Vector Update                    ...        0.005 sec (  0.1%)
Sigma-vector construction              ...        1.983 sec ( 31.2%)
  <D|H|D>(0-ext)                       ...        0.010 sec (  0.5% of sigma)
  <D|H|D>(2-ext)                       ...        0.021 sec (  1.1% of sigma)
  <D|H|D>(4-ext)                       ...        0.117 sec (  5.9% of sigma)
  <D|H|D>(4-ext-corr)                  ...        0.102 sec (  5.1% of sigma)
  <S|H|0>                              ...        0.002 sec (  0.1% of sigma)
  <S|H|S>                              ...        0.002 sec (  0.1% of sigma)
  <S|H|D>(1-ext)                       ...        0.007 sec (  0.3% of sigma)
  <D|H|S>(1-ext)                       ...        0.005 sec (  0.3% of sigma)
  <S|H|D>(3-ext)                       ...        0.092 sec (  4.6% of sigma)
  Fock-dressing                        ...        1.316 sec ( 66.4% of sigma)
  (ik|jl)-dressing                     ...        0.011 sec (  0.6% of sigma)
  (ij|ab),(ia|jb)-dressing             ...        0.234 sec ( 11.8% of sigma)
Total Time for computing (T)           ...        0.223 sec (  3.5% of ALL)
  I/O of integral and amplitudes       ...        0.084 sec ( 37.6% of (T))
  N**6 sorting step                    ...        0.045 sec ( 20.3% of (T))
  External N**7 contributions          ...        0.052 sec ( 23.5% of (T))
  Internal N**7 contributions          ...        0.020 sec (  9.2% of (T))
  N**6 triples energy contributions    ...        0.021 sec (  9.3% of (T))
One-particle density matrix            ...        0.001 sec (  0.0%)


-------------------------   --------------------
FINAL SINGLE POINT ENERGY      -328.965130452076
-------------------------   --------------------


                            ***************************************
                            *     ORCA property calculations      *
                            ***************************************

                                    ---------------------
                                    Active property flags
                                    ---------------------
   (+) Dipole Moment


------------------------------------------------------------------------------
                       ORCA ELECTRIC PROPERTIES CALCULATION
------------------------------------------------------------------------------

Dipole Moment Calculation                       ... on
Quadrupole Moment Calculation                   ... off
Polarizability Calculation                      ... off
GBWName                                         ... 54_Xe.gbw
Electron density file                           ... 54_Xe.scfp
The origin for moment calculation is the CENTER OF MASS  = ( 0.000000,  0.000000  0.000000)

-------------
DIPOLE MOMENT
-------------
                                X             Y             Z
Electronic contribution:     -0.00000       0.00000      -0.00000
Nuclear contribution   :      0.00000       0.00000       0.00000
                        -----------------------------------------
Total Dipole Moment    :     -0.00000       0.00000      -0.00000
                        -----------------------------------------
Magnitude (a.u.)       :      0.00000
Magnitude (Debye)      :      0.00000



--------------------
Rotational spectrum 
--------------------
 
Rotational constants in cm-1:     0.000000     0.000000     0.000000 
Rotational constants in MHz :     0.000000     0.000000     0.000000 

 Dipole components along the rotational axes: 
x,y,z [a.u.] :    -0.000000     0.000000    -0.000000 
x,y,z [Debye]:    -0.000000     0.000000    -0.000000 

 

                           *** MDCI DENSITY ***

------------------------------------------------------------------------------
                       ORCA ELECTRIC PROPERTIES CALCULATION
------------------------------------------------------------------------------

Dipole Moment Calculation                       ... on
Quadrupole Moment Calculation                   ... off
Polarizability Calculation                      ... off
GBWName                                         ... 54_Xe.gbw
Electron density file                           ... 54_Xe.mdcip
The origin for moment calculation is the CENTER OF MASS  = ( 0.000000,  0.000000  0.000000)

-------------
DIPOLE MOMENT
-------------
                                X             Y             Z
Electronic contribution:     -0.00000      -0.00000       0.00000
Nuclear contribution   :      0.00000       0.00000       0.00000
                        -----------------------------------------
Total Dipole Moment    :     -0.00000      -0.00000       0.00000
                        -----------------------------------------
Magnitude (a.u.)       :      0.00000
Magnitude (Debye)      :      0.00000



--------------------
Rotational spectrum 
--------------------
 
Rotational constants in cm-1:     0.000000     0.000000     0.000000 
Rotational constants in MHz :     0.000000     0.000000     0.000000 

 Dipole components along the rotational axes: 
x,y,z [a.u.] :    -0.000000    -0.000000     0.000000 
x,y,z [Debye]:    -0.000000    -0.000000     0.000000 

 

Timings for individual modules:

Sum of individual times         ...       13.121 sec (=   0.219 min)
GTO integral calculation        ...        0.909 sec (=   0.015 min)   6.9 %
SCF iterations                  ...        5.391 sec (=   0.090 min)  41.1 %
MDCI module                     ...        6.821 sec (=   0.114 min)  52.0 %
                             ****ORCA TERMINATED NORMALLY****
TOTAL RUN TIME: 0 days 0 hours 0 minutes 13 seconds 877 msec
