
                                 *****************
                                 * O   R   C   A *
                                 *****************

           --- An Ab Initio, DFT and Semiempirical electronic structure package ---

                  #######################################################
                  #                        -***-                        #
                  #          Department of theory and spectroscopy      #
                  #               Directorship: Frank Neese             #
                  #        Max Planck Institute fuer Kohlenforschung    #
                  #                Kaiser Wilhelm Platz 1               #
                  #                 D-45470 Muelheim/Ruhr               #
                  #                      Germany                        #
                  #                                                     #
                  #                  All rights reserved                #
                  #                        -***-                        #
                  #######################################################


                         Program Version 4.2.0 -  RELEASE  -


 With contributions from (in alphabetic order):
   Daniel Aravena         : Magnetic Suceptibility
   Michael Atanasov       : Ab Initio Ligand Field Theory (pilot matlab implementation)
   Alexander A. Auer      : GIAO ZORA, VPT2
   Ute Becker             : Parallelization
   Giovanni Bistoni       : ED, misc. LED, open-shell LED, HFLED
   Martin Brehm           : Molecular dynamics
   Dmytro Bykov           : SCF Hessian
   Vijay G. Chilkuri      : MRCI spin determinant printing, contributions to CSF-ICE
   Dipayan Datta          : RHF DLPNO-CCSD density
   Achintya Kumar Dutta   : EOM-CC, STEOM-CC
   Dmitry Ganyushin       : Spin-Orbit,Spin-Spin,Magnetic field MRCI
   Miquel Garcia          : C-PCM Hessian, Gaussian charge scheme
   Yang Guo               : DLPNO-NEVPT2, CIM, IAO-localization
   Andreas Hansen         : Spin unrestricted coupled pair/coupled cluster methods
   Benjamin Helmich-Paris : CASSCF linear response (MC-RPA)
   Lee Huntington         : MR-EOM, pCC
   Robert Izsak           : Overlap fitted RIJCOSX, COSX-SCS-MP3, EOM
   Christian Kollmar      : KDIIS, OOCD, Brueckner-CCSD(T), CCSD density
   Simone Kossmann        : Meta GGA functionals, TD-DFT gradient, OOMP2, MP2 Hessian
   Martin Krupicka        : AUTO-CI
   Lucas Lang             : DCDCAS
   Dagmar Lenk            : GEPOL surface, SMD
   Dimitrios Liakos       : Extrapolation schemes; Compound Job, initial MDCI parallelization
   Dimitrios Manganas     : Further ROCIS development; embedding schemes
   Dimitrios Pantazis     : SARC Basis sets
   Taras Petrenko         : DFT Hessian,TD-DFT gradient, ASA, ECA, R-Raman, ABS, FL, XAS/XES, NRVS
   Peter Pinski           : DLPNO-MP2, DLPNO-MP2 Gradient
   Christoph Reimann      : Effective Core Potentials
   Marius Retegan         : Local ZFS, SOC
   Christoph Riplinger    : Optimizer, TS searches, QM/MM, DLPNO-CCSD(T), (RO)-DLPNO pert. Triples
   Tobias Risthaus        : Range-separated hybrids, TD-DFT gradient, RPA, STAB
   Michael Roemelt        : Original ROCIS implementation
   Masaaki Saitow         : Open-shell DLPNO-CCSD energy and density
   Barbara Sandhoefer     : DKH picture change effects
   Avijit Sen             : IP-ROCIS
   Kantharuban Sivalingam : CASSCF convergence, NEVPT2, FIC-MRCI
   Bernardo de Souza      : ESD, SOC TD-DFT
   Georgi Stoychev        : AutoAux, RI-MP2 NMR
   Willem Van den Heuvel  : Paramagnetic NMR
   Boris Wezisla          : Elementary symmetry handling
   Frank Wennmohs         : Technical directorship


 We gratefully acknowledge several colleagues who have allowed us to
 interface, adapt or use parts of their codes:
   Stefan Grimme, W. Hujo, H. Kruse,             : VdW corrections, initial TS optimization,
                  C. Bannwarth                     DFT functionals, gCP, sTDA/sTD-DF
   Ed Valeev, F. Pavosevic, A. Kumar             : LibInt (2-el integral package), F12 methods
   Garnet Chan, S. Sharma, J. Yang, R. Olivares  : DMRG
   Ulf Ekstrom                                   : XCFun DFT Library
   Mihaly Kallay                                 : mrcc  (arbitrary order and MRCC methods)
   Andreas Klamt, Michael Diedenhofen            : otool_cosmo (COSMO solvation model)
   Jiri Pittner, Ondrej Demel                    : Mk-CCSD
   Frank Weinhold                                : gennbo (NPA and NBO analysis)
   Christopher J. Cramer and Donald G. Truhlar   : smd solvation model
   Lars Goerigk                                  : TD-DFT with DH, B97 family of functionals
   V. Asgeirsson, H. Jonsson                     : NEB implementation
   FAccTs GmbH                                   : IRC, NEB, NEB-TS, Multilevel, MM, QM/MM, CI optimization
   S Lehtola, MJT Oliveira, MAL Marques          : LibXC Library


 Your calculation uses the libint2 library for the computation of 2-el integrals
 For citations please refer to: http://libint.valeyev.net

 Your ORCA version has been built with support for libXC version: 4.2.3
 For citations please refer to: https://tddft.org/programs/libxc/

 This ORCA versions uses:
   CBLAS   interface :  Fast vector & matrix operations
   LAPACKE interface :  Fast linear algebra routines
   SCALAPACK package :  Parallel linear algebra routines


----- Orbital basis set information -----
Your calculation utilizes the basis: def2-SVP
   F. Weigend and R. Ahlrichs, Phys. Chem. Chem. Phys. 7, 3297 (2005).

----- AuxJ basis set information -----
Your calculation utilizes the auxiliary basis: def2/J
   F. Weigend, Phys. Chem. Chem. Phys. 8, 1057 (2006).

================================================================================
                                        WARNINGS
                       Please study these warnings very carefully!
================================================================================


INFO   : the flag for use of LIBINT has been found!

================================================================================
                                       INPUT FILE
================================================================================
NAME = 54_Xe_atom54.inp
|  1> # input to generate an atomic fitting density for Xe
|  2> # this file is use internally by ORCA
|  3> #
|  4> # atomic ground state (S=1): 1s2 2s2 2p6 3s2 3p6 4s2 3d10 4p6 5s2 4d10 5p6 
|  5> #
|  6> ! RHF AllowRHF def2-SVP def2/J  NoMulliken NoLoewdin NoMayer NoPrintMOs 
|  7> 
|  8> %output print[p_atomdensfit] 2 end
|  9> 
| 10> %scf
| 11>   guess hcore
| 12>   maxiter 1000
| 13>   maxdisk 500000
| 14>   SCFMode Conventional
| 15>   lshift 1.000000
| 16>   hftyp rohf
| 17>   rohf_case sahf
| 18>   rohf_numop   2
| 19>   rohf_norb[1] 3
| 20>   rohf_nel[1]  6
| 21> end
| 22> 
| 23> %basis
| 24>   NewECP 54
| 25>     N_core 28
| 26>     lmax f
| 27>     s 7
| 28>       1      40.0051840000     49.9979620000  2
| 29>       2      17.8122140000    281.0133030000  2
| 30>       3       9.3041500000     61.5382550000  2
| 31>       4      20.8815570000     23.0892950000  2
| 32>       5      20.7834430000     30.0744750000  2
| 33>       6       5.2533890000      0.2882270000  2
| 34>       7       5.3611880000      0.3869240000  2
| 35>     p 8
| 36>       1      15.7017720000     67.4391420000  2
| 37>       2      15.2586080000    134.8747110000  2
| 38>       3       9.2921840000     14.6633000000  2
| 39>       4       8.5590030000     29.3547300000  2
| 40>       5      20.8815570000     23.0892950000  2
| 41>       6      20.7834430000     30.0744750000  2
| 42>       7       5.2533890000      0.2882270000  2
| 43>       8       5.3611880000      0.3869240000  2
| 44>     d 10
| 45>       1      15.1856000000     35.4369080000  2
| 46>       2      14.2845000000     53.1957720000  2
| 47>       3       7.1218890000      9.0462320000  2
| 48>       4       6.9919630000     13.2236810000  2
| 49>       5       0.6239460000      0.0848530000  2
| 50>       6       0.6472840000      0.0441550000  2
| 51>       7      20.8815570000     23.0892950000  2
| 52>       8      20.7834430000     30.0744750000  2
| 53>       9       5.2533890000      0.2882270000  2
| 54>      10       5.3611880000      0.3869240000  2
| 55>     f 4
| 56>       1      20.8815570000    -23.0892950000  2
| 57>       2      20.7834430000    -30.0744750000  2
| 58>       3       5.2533890000     -0.2882270000  2
| 59>       4       5.3611880000     -0.3869240000  2
| 60>   end
| 61>   NewGTO 54
| 62>     s 9 
| 63>      1   18774.3000000000      0.0002098474
| 64>      2    2824.8100000000      0.0015460814
| 65>      3     640.0880000000      0.0064713228
| 66>      4     172.6160000000      0.0138653569
| 67>      5      29.5169000000     -0.1455075542
| 68>      6      18.4448000000      1.1542624130
| 69>      7      11.5238000000     -1.5825763401
| 70>      8       6.6189000000     -1.4770292813
| 71>      9       2.9955200000      1.8407040442
| 72>     s 1 
| 73>      1       1.6532586536      1.0000000000
| 74>     s 3 
| 75>      1      27.0521718350      0.2698370333
| 76>      2      20.9406224150     -0.5800955323
| 77>      3       6.0024591071      1.2407647072
| 78>     s 1 
| 79>      1       0.8755388927      1.0000000000
| 80>     s 1 
| 81>      1       0.4103361665      1.0000000000
| 82>     s 1 
| 83>      1       0.1949358578      1.0000000000
| 84>     s 1 
| 85>      1       0.0901710930      1.0000000000
| 86>     p 7 
| 87>      1     613.3310000000      0.0001532348
| 88>      2     141.7100000000      0.0009471688
| 89>      3      20.3106000000      0.0610984931
| 90>      4      11.0331000000     -0.2809171554
| 91>      5       6.8951300000      0.0108219307
| 92>      6       3.2416600000      0.5849538901
| 93>      7       1.6653500000      0.5572328251
| 94>     p 3 
| 95>      1      18.3889084130     -0.0270339421
| 96>      2       6.1139045431      0.2786237330
| 97>      3       1.8729815691      0.8043463625
| 98>     p 1 
| 99>      1       0.8200466599      1.0000000000
|100>     p 1 
|101>      1       0.3955264825      1.0000000000
|102>     p 1 
|103>      1       0.1744550981      1.0000000000
|104>     p 1 
|105>      1       0.0733899927      1.0000000000
|106>     s 1 
|107>      1       0.0422873486      1.0000000000
|108>     p 1 
|109>      1       0.0199940044      1.0000000000
|110>   end
|111>   NewAuxGTO 54
|112>     S 1
|113>      1 1310.72 1.0
|114>     S 1
|115>      1  655.36 1.0
|116>     S 1
|117>      1  327.68 1.0
|118>     S 1
|119>      1  163.84 1.0
|120>     S 1
|121>      1   81.82 1.0
|122>     S 1
|123>      1   40.96 1.0
|124>     S 1
|125>      1   20.48 1.0
|126>     S 1
|127>      1   10.24 1.0
|128>     S 1
|129>      1    5.12 1.0
|130>     S 1
|131>      1    2.56 1.0
|132>     S 1
|133>      1    1.28 1.0
|134>     S 1
|135>      1    0.64 1.0
|136>     S 1
|137>      1    0.32 1.0
|138>     S 1
|139>      1    0.16 1.0
|140>     S 1
|141>      1    0.08 1.0
|142>     S 1
|143>      1    0.04 1.0
|144>     S 1
|145>      1    0.02 1.0
|146>     S 1
|147>      1    0.01 1.0
|148>   end
|149> end
|150> 
|151> * xyz 0 1
|152> 54  0.0 0.0 0.0
|153> *
|154> 
|155> 
|156>                          ****END OF INPUT****
================================================================================

                       ****************************
                       * Single Point Calculation *
                       ****************************

---------------------------------
CARTESIAN COORDINATES (ANGSTROEM)
---------------------------------
  Xe     0.000000    0.000000    0.000000

----------------------------
CARTESIAN COORDINATES (A.U.)
----------------------------
  NO LB      ZA    FRAG     MASS         X           Y           Z
   0 Xe   26.0000*   0   131.300    0.000000    0.000000    0.000000
* core charge reduced due to ECP

--------------------------------
INTERNAL COORDINATES (ANGSTROEM)
--------------------------------
 Xe     0   0   0     0.000000000000     0.00000000     0.00000000

---------------------------
INTERNAL COORDINATES (A.U.)
---------------------------
 Xe     0   0   0     0.000000000000     0.00000000     0.00000000

---------------------
BASIS SET INFORMATION
---------------------
There are 1 groups of distinct atoms

 Group   1 Type Xe  : 18s15p contracted to 8s7p pattern {91311111/7311111}

Atom   0Xe   basis set group =>   1
---------------------------------
AUXILIARY/J BASIS SET INFORMATION
---------------------------------
There are 1 groups of distinct atoms

 Group   1 Type Xe  : 18s contracted to 18s pattern {111111111111111111}

Atom   0Xe   basis set group =>   1
-------------------------
ECP PARAMETER INFORMATION
-------------------------

 Group 1, Type Xe ECP (replacing 28 core electrons, lmax=3)

Atom   0Xe   ECP group =>   1

------------------------------------------------------------------------------
                           ORCA GTO INTEGRAL CALCULATION
------------------------------------------------------------------------------

                         BASIS SET STATISTICS AND STARTUP INFO

 # of primitive gaussian shells          ...   33
 # of primitive gaussian functions       ...   63
 # of contracted shells                  ...   15
 # of contracted basis functions         ...   29
 Highest angular momentum                ...    1
 Maximum contraction depth               ...    9
 Integral package used                   ... LIBINT
 Integral threshhold            Thresh   ...  1.000e-10
 Primitive cut-off              TCut     ...  1.000e-11
 Storage cut-off                TCutStore... -1.000e+00
 Buffer length                           ... 1048576 integrals/buffer
 Generate file with integrals 4 distinct ...false


------------------------------ INTEGRAL EVALUATION ----------------------------


 * One electron integrals 

   ECP integrals                         ... done
 Pre-screening matrix                    ... done
 Shell pair data                         ... done (   0.000 sec)
 Statistics run                          ... done
 Maximum amount of storage needed        ...     1 MB
 Maximum amount of storage dedicated     ... 500000 MB
 Beginning two electron integral evaluation:
 Starting repulsion integrals
  <ss|ss>  ...          666 b.         0 skpd (  0.0%)     0.000 s. (  0.000 ms/b)
  <ss|sp>  ...         2016 b.         0 skpd (  0.0%)     0.001 s. (  0.001 ms/b)
  <ss|pp>  ...         1008 b.         0 skpd (  0.0%)     0.003 s. (  0.003 ms/b)
  <sp|sp>  ...         1596 b.         0 skpd (  0.0%)     0.003 s. (  0.002 ms/b)
  <sp|pp>  ...         1568 b.         0 skpd (  0.0%)     0.005 s. (  0.003 ms/b)
  <pp|pp>  ...          406 b.         0 skpd (  0.0%)     0.004 s. (  0.009 ms/b)


                                      INTEGRAL STATISTICS

Integral type statistics:
 Number of integrals retained            ...      94830 
 One   Center Integrals retained         ...      94830 (100.0%)
 Two   Center Integrals retained         ...          0 (  0.0%)
 Three Center Integrals retained         ...          0 (  0.0%)
 Four  Center Integrals retained         ...          0 (  0.0%)

Storage statistics:
 Number of char integrals                ...          0 (  0.0%)
 Number of short int integrals           ...          0 (  0.0%)
 Number of double/float integrals        ...      94830 (100.0%)
 Amount of memory used                   ...          1 MB
 Amount of memory estimated              ...          1 MB ( 96.6%)

Prescreening statistics:
 Total number of shell quadruples        ...       7260 
 Number of skipped shell quadruples      ...          0 (  0.0%)
 # of negligible batches done            ...          0 (  0.0%)

Timings:
 Total evaluation time               ...     0.181 sec (   0.003 min)
 One electron matrix time            ...     0.016 sec (   0.000 min) =  9.0%
 Schwartz matrix evaluation time     ...     0.074 sec (   0.001 min) = 40.8%
 Statistics run                      ...     0.001 sec (   0.000 min) =  0.5%
 Repulsion integral time             ...     0.016 sec (   0.000 min) =  9.1%

-------------------------------------------------------------------------------
                                 ORCA SCF
-------------------------------------------------------------------------------

------------
SCF SETTINGS
------------
Hamiltonian:
 Ab initio Hamiltonian  Method          .... Hartree-Fock(GTOs)


General Settings:
 Integral files         IntName         .... 54_Xe_atom54
 Hartree-Fock type      HFTyp           .... ROHF
 Total Charge           Charge          ....    0
 Multiplicity           Mult            ....    1
 Number of Electrons    NEL             ....   26
 Basis Dimension        Dim             ....   29
 Nuclear Repulsion      ENuc            ....      0.0000000000 Eh

Convergence Acceleration:
 DIIS                   CNVDIIS         .... on
   Start iteration      DIISMaxIt       ....    12
   Startup error        DIISStart       ....  0.200000
   # of expansion vecs  DIISMaxEq       ....     5
   Bias factor          DIISBfac        ....   1.050
   Max. coefficient     DIISMaxC        ....  10.000
 Newton-Raphson         CNVNR           .... off
 SOSCF                  CNVSOSCF        .... off
 Level Shifting         CNVShift        .... on
   Level shift para.    LevelShift      ....    1.0000
   Turn off err/grad.   ShiftErr        ....    0.0010
 Zerner damping         CNVZerner       .... off
 Static damping         CNVDamp         .... on
   Fraction old density DampFac         ....    0.7000
   Max. Damping (<1)    DampMax         ....    0.9800
   Min. Damping (>=0)   DampMin         ....    0.0000
   Turn off err/grad.   DampErr         ....    0.1000
 Fernandez-Rico         CNVRico         .... off

SCF Procedure:
 Maximum # iterations   MaxIter         ....  1000
 SCF integral mode      SCFMode         .... Conventional
 Integral Threshold     Thresh          ....  1.000e-10 Eh
 Primitive CutOff       TCut            ....  1.000e-11 Eh
 Integral Buffer length BufferLength    .... 1048576
 Integral index format  IndFormat       ....     0
 Integral value format  ValFormat       ....     0
 Integral Storage       Thresh          ....  1.000e-10 Eh

Convergence Tolerance:
 Convergence Check Mode ConvCheckMode   .... Total+1el-Energy
 Convergence forced     ConvForced      .... 0
 Energy Change          TolE            ....  1.000e-06 Eh
 1-El. energy change                    ....  1.000e-03 Eh
 DIIS Error             TolErr          ....  1.000e-06


Diagonalization of the overlap matrix:
Smallest eigenvalue                        ... 8.669e-04
Time for diagonalization                   ...    0.000 sec
Threshold for overlap eigenvalues          ... 1.000e-08
Number of eigenvalues below threshold      ... 0
Time for construction of square roots      ...    0.003 sec
Total time needed                          ...    0.003 sec

--------------------
INITIAL GUESS: HCORE
--------------------
AVERAGE-CONFIGURATION (SAHF) CASE FOUND

-------------------
FINAL ROHF SETTINGS
-------------------
Number of operators             ... 2
  operator   0:  10 orbitals  20 electrons n(mue)= 2.000
  operator   1:   3 orbitals   6 electrons n(mue)= 2.000
Vector coupling coefficients a and b (Zerner convention):
   1.000    1.000           1.000    1.000 
   1.000    1.000           1.000    1.000 

                      -----------------
                      INTIAL GUESS DONE 
                      -----------------

 InCore treatment chosen:
   Memory dedicated               ...    1024 MB
   Memory needed                  ...      1 MB
   Number of tiny    integrals    ...       0
   Number of small   integrals    ...       0
   Number of regular integrals    ...   94830

--------------
SCF ITERATIONS
--------------
ITER       Energy         Delta-E        Max-DP      RMS-DP      [F,P]     Damp
  0   -269.7464254000   0.00000000000021.62520982  0.99766823  3.1592461 0.7000
  1   -275.4668945049  -5.72046910497717.33948040  0.91832967  0.9696696 0.7000
  2   -278.5604516742  -3.09355716931012.07447846  0.66327351  0.6905418 0.7000
  3   -280.3240157728  -1.763564098574 8.36296887  0.46641484  0.2968313 0.7000
  4   -281.3072517129  -0.983235940084 5.78617900  0.32739293  0.2010509 0.7000
                            ****Activating DIIS****
  5   -281.9697428161  -0.662491103230 3.92902081  0.22707941  0.1290500 0.7000
  6   -282.4635949158  -0.493852099717 9.20720916  0.52939387  0.0380305 0.0000
  7   -283.5156259317  -1.052031015852 0.27455738  0.01143255  0.0611704 0.0000
  8   -283.5241486583  -0.008522726564 0.22270076  0.00897706  0.0427194 0.0000
  9   -283.5299330379  -0.005784379669 0.18156027  0.00832399  0.0249594 0.0000
 10   -283.5334900122  -0.003556974305 0.02460804  0.00162847  0.0060666 0.0000
 11   -283.5338041511  -0.000314138880 0.04092444  0.00230287  0.0046099 0.0000
 12   -283.5340194787  -0.000215327579 0.01110172  0.00074078  0.0029292 0.0000
 13   -283.5340642944  -0.000044815731 0.01129901  0.00056413  0.0020434 0.0000
 14   -283.5340911269  -0.000026832521 0.00709185  0.00029372  0.0011335 0.0000
 15   -283.5341003351  -0.000009208120 0.00426644  0.00021165  0.0005617 0.0000
 16   -283.5341032680  -0.000002932928 0.00171481  0.00010134  0.0002190 0.0000
                 **** Energy Check signals convergence ****

               *****************************************************
               *                     SUCCESS                       *
               *           SCF CONVERGED AFTER  17 CYCLES          *
               *****************************************************


----------------
TOTAL SCF ENERGY
----------------

Total Energy       :         -283.53410379 Eh           -7715.35521 eV

Components:
Nuclear Repulsion  :            0.00000000 Eh               0.00000 eV
Electronic Energy  :         -283.53410379 Eh           -7715.35521 eV
One Electron Energy:         -442.34120459 Eh          -12036.71611 eV
Two Electron Energy:          158.80710080 Eh            4321.36091 eV

Virial components:
Potential Energy   :         -365.57422045 Eh           -9947.78027 eV
Kinetic Energy     :           82.04011665 Eh            2232.42507 eV
Virial Ratio       :            4.45604218


---------------
SCF CONVERGENCE
---------------

  Last Energy change         ...   -5.2266e-07  Tolerance :   1.0000e-06
  Last MAX-Density change    ...    5.2653e-04  Tolerance :   1.0000e-05
  Last RMS-Density change    ...    2.8941e-05  Tolerance :   1.0000e-06
  Last DIIS Error            ...    1.2224e-04  Tolerance :   1.0000e-06

             **** THE GBW FILE WAS UPDATED (54_Xe_atom54.gbw) ****
             **** DENSITY FILE WAS UPDATED (54_Xe_atom54.scfp) ****
             **** ENERGY FILE WAS UPDATED (54_Xe_atom54.en.tmp) ****
             **** THE GBW FILE WAS UPDATED (54_Xe_atom54.gbw) ****
             **** DENSITY FILE WAS UPDATED (54_Xe_atom54.scfp) ****
----------------
ORBITAL ENERGIES
----------------

  NO   OCC          E(Eh)            E(eV) 
   0   2.0000     -13.737665      -373.8209 
   1   2.0000     -11.134263      -302.9787 
   2   2.0000     -11.131729      -302.9097 
   3   2.0000     -11.131357      -302.8996 
   4   2.0000      -3.872675      -105.3808 
   5   2.0000      -2.867061       -78.0167 
   6   2.0000      -2.861755       -77.8723 
   7   2.0000      -2.435776       -66.2808 
   8   2.0000      -0.589026       -16.0282 
   9   2.0000      -0.569881       -15.5072 
  10   2.0000      -1.023217       -27.8431 
  11   2.0000      -0.926925       -25.2229 
  12   2.0000      -0.082581        -2.2471 
  13   0.0000      -0.011993        -0.3264 
  14   0.0000       0.008927         0.2429 
  15   0.0000       0.008927         0.2429 
  16   0.0000       0.251018         6.8306 
  17   0.0000       0.251018         6.8306 
  18   0.0000       0.263140         7.1604 
  19   0.0000       0.391413        10.6509 
  20   0.0000       1.442661        39.2568 
  21   0.0000       1.442661        39.2568 
  22   0.0000       1.453494        39.5516 
  23   0.0000       1.903949        51.8091 
  24   0.0000      16.649984       453.0691 
  25   0.0000      33.104860       900.8290 
  26   0.0000      33.104860       900.8290 
  27   0.0000      33.105991       900.8598 
  28   0.0000      84.288778      2293.6143 
CleanUpVectors: The p-vectors have cracked symmetry
CleanUpVectors: The p-vectors have cracked symmetry
CleanUpVectors: The p-vectors have cracked symmetry
CleanUpVectors: The p-vectors have cracked symmetry
CleanUpVectors: The p-vectors have cracked symmetry
CleanUpVectors: The p-vectors have cracked symmetry
CleanUpVectors: The p-vectors have cracked symmetry
CleanUpVectors: The p-vectors have cracked symmetry
CleanUpVectors: The p-vectors have cracked symmetry
CleanUpVectors: The p-vectors have cracked symmetry
CleanUpVectors: The p-vectors have cracked symmetry
CleanUpVectors: The p-vectors have cracked symmetry
CleanUpVectors: The p-vectors have cracked symmetry
CleanUpVectors: The p-vectors have cracked symmetry
CleanUpVectors: The p-vectors have cracked symmetry
CleanUpVectors: The p-vectors have cracked symmetry
CleanUpVectors: The p-vectors have cracked symmetry
CleanUpVectors: The p-vectors have cracked symmetry
CleanUpVectors: The p-vectors have cracked symmetry
CleanUpVectors: The p-vectors have cracked symmetry
--------------------------
ATOM BASIS FOR ELEMENT Xe
--------------------------
 NewGTO Xe
 S 18
    1      18774.299999999999         0.000080961872
    2       2824.810000000000         0.000596498430
    3        640.088000000000         0.002496720992
    4        172.616000000000         0.005349436075
    5         29.516900000000        -0.056138717902
    6         18.444800000000         0.445329538695
    7         11.523800000000        -0.610578654861
    8          6.618900000000        -0.569857218837
    9          2.995520000000         0.710167699862
   10          1.653258653600         0.921742863718
   11         27.052171835000         0.022186738588
   12         20.940622415000        -0.047697040595
   13          6.002459107100         0.102019066366
   14          0.875538892700        -0.238274698643
   15          0.410336166500         0.177532390332
   16          0.194935857800        -0.103848680090
   17          0.090171093000         0.044513250006
   18          0.042287348600        -0.012336802735
 P 30
    1        613.331000000000        -0.000143449823
    2        141.710000000000        -0.000886686291
    3         20.310600000000        -0.057196981428
    4         11.033100000000         0.262978880576
    5          6.895130000000        -0.010130884378
    6          3.241660000000        -0.547601014213
    7          1.665350000000        -0.521650108396
    8        613.331000000000         0.000056304616
    9        141.710000000000         0.000348027831
   10         20.310600000000         0.022450038523
   11         11.033100000000        -0.103220237368
   12          6.895130000000         0.003976411672
   13          3.241660000000         0.214935536064
   14          1.665350000000         0.204749704212
   15         18.388908413000         0.002096702815
   16          6.113904543100        -0.021609544152
   17          1.872981569100        -0.062383624132
   18         18.388908413000        -0.000822964041
   19          6.113904543100         0.008481830449
   20          1.872981569100         0.024485816035
   21          0.820046659900         0.170598914213
   22          0.820046659900        -0.066960739894
   23          0.395526482500        -0.132457348309
   24          0.395526482500         0.051990026362
   25          0.174455098100         0.065370375009
   26          0.174455098100        -0.025658127415
   27          0.073389992700        -0.023791577238
   28          0.073389992700         0.009338286955
   29          0.019994004400         0.004863912506
   30          0.019994004400        -0.001909104649
 S 18
    1      18774.299999999999         0.000068475679
    2       2824.810000000000         0.000504504577
    3        640.088000000000         0.002111668874
    4        172.616000000000         0.004524429317
    5         29.516900000000        -0.047480829299
    6         18.444800000000         0.376649424828
    7         11.523800000000        -0.516413305616
    8          6.618900000000        -0.481972056779
    9          2.995520000000         0.600643416713
   10          1.653258653600         1.739578440995
   11         27.052171835000         0.057203020419
   12         20.940622415000        -0.122975027458
   13          6.002459107100         0.263030941354
   14          0.875538892700        -1.834407317613
   15          0.410336166500        -0.283467586941
   16          0.194935857800        -0.210371088769
   17          0.090171093000         0.050642925539
   18          0.042287348600        -0.020606282777
 P 30
    1        613.331000000000        -0.000102672637
    2        141.710000000000        -0.000634635989
    3         20.310600000000        -0.040938112187
    4         11.033100000000         0.188224249723
    5          6.895130000000        -0.007251069390
    6          3.241660000000        -0.391939420466
    7          1.665350000000        -0.373365344228
    8        613.331000000000         0.000040299411
    9        141.710000000000         0.000249097103
   10         20.310600000000         0.016068368866
   11         11.033100000000        -0.073878752889
   12          6.895130000000         0.002846073045
   13          3.241660000000         0.153837752759
   14          1.665350000000         0.146547355318
   15         18.388908413000         0.008640223055
   16          6.113904543100        -0.089049950337
   17          1.872981569100        -0.257074309009
   18         18.388908413000        -0.003391321282
   19          6.113904543100         0.034952453180
   20          1.872981569100         0.100902669966
   21          0.820046659900         1.221962750275
   22          0.820046659900        -0.479625150320
   23          0.395526482500         0.096519599096
   24          0.395526482500        -0.037884319481
   25          0.174455098100         0.143499614622
   26          0.174455098100        -0.056324158996
   27          0.073389992700        -0.048573949830
   28          0.073389992700         0.019065464953
   29          0.019994004400         0.010287443102
   30          0.019994004400        -0.004037861582
 S 18
    1      18774.299999999999        -0.000015361996
    2       2824.810000000000        -0.000113181751
    3        640.088000000000        -0.000473736795
    4        172.616000000000        -0.001015021185
    5         29.516900000000         0.010651961660
    6         18.444800000000        -0.084498423720
    7         11.523800000000         0.115853383641
    8          6.618900000000         0.108126752334
    9          2.995520000000        -0.134749766187
   10          1.653258653600        -0.626593332623
   11         27.052171835000        -0.013860291337
   12         20.940622415000         0.029796848056
   13          6.002459107100        -0.063732394743
   14          0.875538892700         1.077678064147
   15          0.410336166500        -0.270362931748
   16          0.194935857800         0.472246186136
   17          0.090171093000        -2.754368311621
   18          0.042287348600         2.636301355241
 S 18
    1      18774.299999999999         0.000028732556
    2       2824.810000000000         0.000211691310
    3        640.088000000000         0.000886061238
    4        172.616000000000         0.001898461208
    5         29.516900000000        -0.019923067906
    6         18.444800000000         0.158042986575
    7         11.523800000000        -0.216688240434
    8          6.618900000000        -0.202236611230
    9          2.995520000000         0.252031393615
   10          1.653258653600         0.696856167858
   11         27.052171835000         0.038216496777
   12         20.940622415000        -0.082157807509
   13          6.002459107100         0.175727104076
   14          0.875538892700        -0.379574728467
   15          0.410336166500        -4.060459628303
   16          0.194935857800         8.950647840565
   17          0.090171093000        -8.261659279372
   18          0.042287348600         3.087482528645
 S 18
    1      18774.299999999999        -0.000071841587
    2       2824.810000000000        -0.000529303395
    3        640.088000000000        -0.002215467521
    4        172.616000000000        -0.004746826704
    5         29.516900000000         0.049814739632
    6         18.444800000000        -0.395163549320
    7         11.523800000000         0.541797494729
    8          6.618900000000         0.505663293436
    9          2.995520000000        -0.630167919496
   10          1.653258653600        -5.055027406228
   11         27.052171835000        -0.041195477131
   12         20.940622415000         0.088562018127
   13          6.002459107100        -0.189425052206
   14          0.875538892700        12.935791091318
   15          0.410336166500       -15.621289325603
   16          0.194935857800        12.204044198582
   17          0.090171093000        -6.078084393648
   18          0.042287348600         1.636868452971
 S 18
    1      18774.299999999999        -0.000236354636
    2       2824.810000000000        -0.001741377337
    3        640.088000000000        -0.007288759093
    4        172.616000000000        -0.015616783354
    5         29.516900000000         0.163887591690
    6         18.444800000000        -1.300065059058
    7         11.523800000000         1.782482198054
    8          6.618900000000         1.663602780613
    9          2.995520000000        -2.073215747978
   10          1.653258653600        11.124912886745
   11         27.052171835000        -1.275153555487
   12         20.940622415000         2.741324537586
   13          6.002459107100        -5.863411365593
   14          0.875538892700       -12.495659581741
   15          0.410336166500         8.703300691085
   16          0.194935857800        -5.122461707244
   17          0.090171093000         2.286117149467
   18          0.042287348600        -0.609365222546
 P 30
    1        613.331000000000        -0.000679909053
    2        141.710000000000        -0.004202626567
    3         20.310600000000        -0.271096503930
    4         11.033100000000         1.246440867178
    5          6.895130000000        -0.048017347559
    6          3.241660000000        -2.595464249940
    7          1.665350000000        -2.472464754774
    8        613.331000000000         0.000266875236
    9        141.710000000000         0.001649598507
   10         20.310600000000         0.106409737074
   11         11.033100000000        -0.489248083367
   12          6.895130000000         0.018847581045
   13          3.241660000000         1.018761453646
   14          1.665350000000         0.970482173939
   15         18.388908413000        -0.112176492942
   16          6.113904543100         1.156140421647
   17          1.872981569100         3.337609946855
   18         18.388908413000         0.044031077298
   19          6.113904543100        -0.453803706448
   20          1.872981569100        -1.310065573526
   21          0.820046659900         0.847884467710
   22          0.820046659900        -0.332808287715
   23          0.395526482500        -0.748942641221
   24          0.395526482500         0.293972029815
   25          0.174455098100         0.406003144892
   26          0.174455098100        -0.159362762976
   27          0.073389992700        -0.151472067810
   28          0.073389992700         0.059455222314
   29          0.019994004400         0.031011932692
   30          0.019994004400        -0.012172682259
 P 15
    1        613.331000000000        -0.000056937737
    2        141.710000000000        -0.000351941259
    3         20.310600000000        -0.022702479808
    4         11.033100000000         0.104380905725
    5          6.895130000000        -0.004021124757
    6          3.241660000000        -0.217352396186
    7          1.665350000000        -0.207052028919
    8         18.388908413000         0.006034264653
    9          6.113904543100        -0.062191793462
   10          1.872981569100        -0.179538700133
   11          0.820046659900         1.078516521607
   12          0.395526482500        -0.010726998836
   13          0.174455098100        -0.905741883756
   14          0.073389992700        -0.361705296436
   15          0.019994004400         0.161610725994
 P 30
    1        613.331000000000        -0.000013241865
    2        141.710000000000        -0.000081850085
    3         20.310600000000        -0.005279858079
    4         11.033100000000         0.024275602185
    5          6.895130000000        -0.000935182774
    6          3.241660000000        -0.050549094847
    7          1.665350000000        -0.048153564588
    8        613.331000000000         0.000005197481
    9        141.710000000000         0.000032126464
   10         20.310600000000         0.002072364029
   11         11.033100000000        -0.009528264585
   12          6.895130000000         0.000367062734
   13          3.241660000000         0.019840708649
   14          1.665350000000         0.018900454069
   15         18.388908413000         0.001449815139
   16          6.113904543100        -0.014942434393
   17          1.872981569100        -0.043136643895
   18         18.388908413000        -0.000569057861
   19          6.113904543100         0.005864961345
   20          1.872981569100         0.016931293947
   21          0.820046659900         0.275850871904
   22          0.820046659900        -0.108272498183
   23          0.395526482500        -0.038859526796
   24          0.395526482500         0.015252509500
   25          0.174455098100        -0.216919271392
   26          0.174455098100         0.085141624732
   27          0.073389992700        -0.297487628684
   28          0.073389992700         0.116765006084
   29          0.019994004400         1.080803511988
   30          0.019994004400        -0.424219417833
 P 30
    1        613.331000000000        -0.000012442477
    2        141.710000000000        -0.000076908941
    3         20.310600000000        -0.004961122444
    4         11.033100000000         0.022810127286
    5          6.895130000000        -0.000878727454
    6          3.241660000000        -0.047497535957
    7          1.665350000000        -0.045246619597
    8        613.331000000000        -0.000031700240
    9        141.710000000000        -0.000195944254
   10         20.310600000000        -0.012639667452
   11         11.033100000000         0.058114353491
   12          6.895130000000        -0.002238772158
   13          3.241660000000        -0.121011538426
   14          1.665350000000        -0.115276780902
   15         18.388908413000         0.001364767667
   16          6.113904543100        -0.014065897630
   17          1.872981569100        -0.040606209212
   18         18.388908413000         0.003477077951
   19          6.113904543100        -0.035836299235
   20          1.872981569100        -0.103454205514
   21          0.820046659900         0.201777812555
   22          0.820046659900         0.514078110059
   23          0.395526482500         0.245004057762
   24          0.395526482500         0.624207495241
   25          0.174455098100        -0.966721384996
   26          0.174455098100        -2.462958123365
   27          0.073389992700         0.935418602355
   28          0.073389992700         2.383206662412
   29          0.019994004400        -0.308725448373
   30          0.019994004400        -0.786553253876
 P 30
    1        613.331000000000        -0.000108182145
    2        141.710000000000        -0.000668691138
    3         20.310600000000        -0.043134888826
    4         11.033100000000         0.198324535562
    5          6.895130000000        -0.007640168422
    6          3.241660000000        -0.412971249173
    7          1.665350000000        -0.393400470971
    8        613.331000000000         0.000042459583
    9        141.710000000000         0.000262449473
   10         20.310600000000         0.016929682746
   11         11.033100000000        -0.077838880759
   12          6.895130000000         0.002998631294
   13          3.241660000000         0.162083928395
   14          1.665350000000         0.154402743279
   15         18.388908413000         0.013649673074
   16          6.113904543100        -0.140679552102
   17          1.872981569100        -0.406121491493
   18         18.388908413000        -0.005357255832
   19          6.113904543100         0.055214241894
   20          1.872981569100         0.159395519353
   21          0.820046659900         3.948021874331
   22          0.820046659900        -1.549528922267
   23          0.395526482500        -5.404881328483
   24          0.395526482500         2.121320551379
   25          0.174455098100         3.803123004123
   26          0.174455098100        -1.492658672443
   27          0.073389992700        -1.525730581652
   28          0.073389992700         0.598822331515
   29          0.019994004400         0.304017212765
   30          0.019994004400        -0.119321391576
 P 15
    1        613.331000000000        -0.000730422818
    2        141.710000000000        -0.004514860226
    3         20.310600000000        -0.291237587589
    4         11.033100000000         1.339045048412
    5          6.895130000000        -0.051584790888
    6          3.241660000000        -2.788293968635
    7          1.665350000000        -2.656156240086
    8         18.388908413000        -0.120507393490
    9          6.113904543100         1.242002357783
   10          1.872981569100         3.585480920605
   11          0.820046659900         0.911129015982
   12          0.395526482500        -0.804861475329
   13          0.174455098100         0.436350824552
   14          0.073389992700        -0.162804530995
   15          0.019994004400         0.033338087343
 end
  // -----------------------------------------------
  // The basis set
  // -----------------------------------------------
  BAS[ATNO] = new BFNGauss[NSH];
  // Basis function   1 L = s
  InitBFNGauss(BAS[ATNO][  0]);
  BAS[ATNO][  0].l  = 0;
  BAS[ATNO][  0].ng = 18;
  BAS[ATNO][  0].a[  0] =     18774.299999999999;     BAS[ATNO][  0].d[  0] =         0.000080961872;
  BAS[ATNO][  0].a[  1] =      2824.810000000000;     BAS[ATNO][  0].d[  1] =         0.000596498430;
  BAS[ATNO][  0].a[  2] =       640.088000000000;     BAS[ATNO][  0].d[  2] =         0.002496720992;
  BAS[ATNO][  0].a[  3] =       172.616000000000;     BAS[ATNO][  0].d[  3] =         0.005349436075;
  BAS[ATNO][  0].a[  4] =        29.516900000000;     BAS[ATNO][  0].d[  4] =        -0.056138717902;
  BAS[ATNO][  0].a[  5] =        18.444800000000;     BAS[ATNO][  0].d[  5] =         0.445329538695;
  BAS[ATNO][  0].a[  6] =        11.523800000000;     BAS[ATNO][  0].d[  6] =        -0.610578654861;
  BAS[ATNO][  0].a[  7] =         6.618900000000;     BAS[ATNO][  0].d[  7] =        -0.569857218837;
  BAS[ATNO][  0].a[  8] =         2.995520000000;     BAS[ATNO][  0].d[  8] =         0.710167699862;
  BAS[ATNO][  0].a[  9] =         1.653258653600;     BAS[ATNO][  0].d[  9] =         0.921742863718;
  BAS[ATNO][  0].a[ 10] =        27.052171835000;     BAS[ATNO][  0].d[ 10] =         0.022186738588;
  BAS[ATNO][  0].a[ 11] =        20.940622415000;     BAS[ATNO][  0].d[ 11] =        -0.047697040595;
  BAS[ATNO][  0].a[ 12] =         6.002459107100;     BAS[ATNO][  0].d[ 12] =         0.102019066366;
  BAS[ATNO][  0].a[ 13] =         0.875538892700;     BAS[ATNO][  0].d[ 13] =        -0.238274698643;
  BAS[ATNO][  0].a[ 14] =         0.410336166500;     BAS[ATNO][  0].d[ 14] =         0.177532390332;
  BAS[ATNO][  0].a[ 15] =         0.194935857800;     BAS[ATNO][  0].d[ 15] =        -0.103848680090;
  BAS[ATNO][  0].a[ 16] =         0.090171093000;     BAS[ATNO][  0].d[ 16] =         0.044513250006;
  BAS[ATNO][  0].a[ 17] =         0.042287348600;     BAS[ATNO][  0].d[ 17] =        -0.012336802735;

  // Basis function   2 L = p
  InitBFNGauss(BAS[ATNO][  1]);
  BAS[ATNO][  1].l  = 1;
  BAS[ATNO][  1].ng = 30;
  BAS[ATNO][  1].a[  0] =       613.331000000000;     BAS[ATNO][  1].d[  0] =         0.000143449823;
  BAS[ATNO][  1].a[  1] =       141.710000000000;     BAS[ATNO][  1].d[  1] =         0.000886686291;
  BAS[ATNO][  1].a[  2] =        20.310600000000;     BAS[ATNO][  1].d[  2] =         0.057196981428;
  BAS[ATNO][  1].a[  3] =        11.033100000000;     BAS[ATNO][  1].d[  3] =        -0.262978880576;
  BAS[ATNO][  1].a[  4] =         6.895130000000;     BAS[ATNO][  1].d[  4] =         0.010130884378;
  BAS[ATNO][  1].a[  5] =         3.241660000000;     BAS[ATNO][  1].d[  5] =         0.547601014213;
  BAS[ATNO][  1].a[  6] =         1.665350000000;     BAS[ATNO][  1].d[  6] =         0.521650108396;
  BAS[ATNO][  1].a[  7] =       613.331000000000;     BAS[ATNO][  1].d[  7] =        -0.000056304616;
  BAS[ATNO][  1].a[  8] =       141.710000000000;     BAS[ATNO][  1].d[  8] =        -0.000348027831;
  BAS[ATNO][  1].a[  9] =        20.310600000000;     BAS[ATNO][  1].d[  9] =        -0.022450038523;
  BAS[ATNO][  1].a[ 10] =        11.033100000000;     BAS[ATNO][  1].d[ 10] =         0.103220237368;
  BAS[ATNO][  1].a[ 11] =         6.895130000000;     BAS[ATNO][  1].d[ 11] =        -0.003976411672;
  BAS[ATNO][  1].a[ 12] =         3.241660000000;     BAS[ATNO][  1].d[ 12] =        -0.214935536064;
  BAS[ATNO][  1].a[ 13] =         1.665350000000;     BAS[ATNO][  1].d[ 13] =        -0.204749704212;
  BAS[ATNO][  1].a[ 14] =        18.388908413000;     BAS[ATNO][  1].d[ 14] =        -0.002096702815;
  BAS[ATNO][  1].a[ 15] =         6.113904543100;     BAS[ATNO][  1].d[ 15] =         0.021609544152;
  BAS[ATNO][  1].a[ 16] =         1.872981569100;     BAS[ATNO][  1].d[ 16] =         0.062383624132;
  BAS[ATNO][  1].a[ 17] =        18.388908413000;     BAS[ATNO][  1].d[ 17] =         0.000822964041;
  BAS[ATNO][  1].a[ 18] =         6.113904543100;     BAS[ATNO][  1].d[ 18] =        -0.008481830449;
  BAS[ATNO][  1].a[ 19] =         1.872981569100;     BAS[ATNO][  1].d[ 19] =        -0.024485816035;
  BAS[ATNO][  1].a[ 20] =         0.820046659900;     BAS[ATNO][  1].d[ 20] =        -0.170598914213;
  BAS[ATNO][  1].a[ 21] =         0.820046659900;     BAS[ATNO][  1].d[ 21] =         0.066960739894;
  BAS[ATNO][  1].a[ 22] =         0.395526482500;     BAS[ATNO][  1].d[ 22] =         0.132457348309;
  BAS[ATNO][  1].a[ 23] =         0.395526482500;     BAS[ATNO][  1].d[ 23] =        -0.051990026362;
  BAS[ATNO][  1].a[ 24] =         0.174455098100;     BAS[ATNO][  1].d[ 24] =        -0.065370375009;
  BAS[ATNO][  1].a[ 25] =         0.174455098100;     BAS[ATNO][  1].d[ 25] =         0.025658127415;
  BAS[ATNO][  1].a[ 26] =         0.073389992700;     BAS[ATNO][  1].d[ 26] =         0.023791577238;
  BAS[ATNO][  1].a[ 27] =         0.073389992700;     BAS[ATNO][  1].d[ 27] =        -0.009338286955;
  BAS[ATNO][  1].a[ 28] =         0.019994004400;     BAS[ATNO][  1].d[ 28] =        -0.004863912506;
  BAS[ATNO][  1].a[ 29] =         0.019994004400;     BAS[ATNO][  1].d[ 29] =         0.001909104649;

  // Basis function   3 L = s
  InitBFNGauss(BAS[ATNO][  2]);
  BAS[ATNO][  2].l  = 0;
  BAS[ATNO][  2].ng = 18;
  BAS[ATNO][  2].a[  0] =     18774.299999999999;     BAS[ATNO][  2].d[  0] =        -0.000068475679;
  BAS[ATNO][  2].a[  1] =      2824.810000000000;     BAS[ATNO][  2].d[  1] =        -0.000504504577;
  BAS[ATNO][  2].a[  2] =       640.088000000000;     BAS[ATNO][  2].d[  2] =        -0.002111668874;
  BAS[ATNO][  2].a[  3] =       172.616000000000;     BAS[ATNO][  2].d[  3] =        -0.004524429317;
  BAS[ATNO][  2].a[  4] =        29.516900000000;     BAS[ATNO][  2].d[  4] =         0.047480829299;
  BAS[ATNO][  2].a[  5] =        18.444800000000;     BAS[ATNO][  2].d[  5] =        -0.376649424828;
  BAS[ATNO][  2].a[  6] =        11.523800000000;     BAS[ATNO][  2].d[  6] =         0.516413305616;
  BAS[ATNO][  2].a[  7] =         6.618900000000;     BAS[ATNO][  2].d[  7] =         0.481972056779;
  BAS[ATNO][  2].a[  8] =         2.995520000000;     BAS[ATNO][  2].d[  8] =        -0.600643416713;
  BAS[ATNO][  2].a[  9] =         1.653258653600;     BAS[ATNO][  2].d[  9] =        -1.739578440995;
  BAS[ATNO][  2].a[ 10] =        27.052171835000;     BAS[ATNO][  2].d[ 10] =        -0.057203020419;
  BAS[ATNO][  2].a[ 11] =        20.940622415000;     BAS[ATNO][  2].d[ 11] =         0.122975027458;
  BAS[ATNO][  2].a[ 12] =         6.002459107100;     BAS[ATNO][  2].d[ 12] =        -0.263030941354;
  BAS[ATNO][  2].a[ 13] =         0.875538892700;     BAS[ATNO][  2].d[ 13] =         1.834407317613;
  BAS[ATNO][  2].a[ 14] =         0.410336166500;     BAS[ATNO][  2].d[ 14] =         0.283467586941;
  BAS[ATNO][  2].a[ 15] =         0.194935857800;     BAS[ATNO][  2].d[ 15] =         0.210371088769;
  BAS[ATNO][  2].a[ 16] =         0.090171093000;     BAS[ATNO][  2].d[ 16] =        -0.050642925539;
  BAS[ATNO][  2].a[ 17] =         0.042287348600;     BAS[ATNO][  2].d[ 17] =         0.020606282777;

  // Basis function   4 L = p
  InitBFNGauss(BAS[ATNO][  3]);
  BAS[ATNO][  3].l  = 1;
  BAS[ATNO][  3].ng = 30;
  BAS[ATNO][  3].a[  0] =       613.331000000000;     BAS[ATNO][  3].d[  0] =        -0.000102672637;
  BAS[ATNO][  3].a[  1] =       141.710000000000;     BAS[ATNO][  3].d[  1] =        -0.000634635989;
  BAS[ATNO][  3].a[  2] =        20.310600000000;     BAS[ATNO][  3].d[  2] =        -0.040938112187;
  BAS[ATNO][  3].a[  3] =        11.033100000000;     BAS[ATNO][  3].d[  3] =         0.188224249723;
  BAS[ATNO][  3].a[  4] =         6.895130000000;     BAS[ATNO][  3].d[  4] =        -0.007251069390;
  BAS[ATNO][  3].a[  5] =         3.241660000000;     BAS[ATNO][  3].d[  5] =        -0.391939420466;
  BAS[ATNO][  3].a[  6] =         1.665350000000;     BAS[ATNO][  3].d[  6] =        -0.373365344228;
  BAS[ATNO][  3].a[  7] =       613.331000000000;     BAS[ATNO][  3].d[  7] =         0.000040299411;
  BAS[ATNO][  3].a[  8] =       141.710000000000;     BAS[ATNO][  3].d[  8] =         0.000249097103;
  BAS[ATNO][  3].a[  9] =        20.310600000000;     BAS[ATNO][  3].d[  9] =         0.016068368866;
  BAS[ATNO][  3].a[ 10] =        11.033100000000;     BAS[ATNO][  3].d[ 10] =        -0.073878752889;
  BAS[ATNO][  3].a[ 11] =         6.895130000000;     BAS[ATNO][  3].d[ 11] =         0.002846073045;
  BAS[ATNO][  3].a[ 12] =         3.241660000000;     BAS[ATNO][  3].d[ 12] =         0.153837752759;
  BAS[ATNO][  3].a[ 13] =         1.665350000000;     BAS[ATNO][  3].d[ 13] =         0.146547355318;
  BAS[ATNO][  3].a[ 14] =        18.388908413000;     BAS[ATNO][  3].d[ 14] =         0.008640223055;
  BAS[ATNO][  3].a[ 15] =         6.113904543100;     BAS[ATNO][  3].d[ 15] =        -0.089049950337;
  BAS[ATNO][  3].a[ 16] =         1.872981569100;     BAS[ATNO][  3].d[ 16] =        -0.257074309009;
  BAS[ATNO][  3].a[ 17] =        18.388908413000;     BAS[ATNO][  3].d[ 17] =        -0.003391321282;
  BAS[ATNO][  3].a[ 18] =         6.113904543100;     BAS[ATNO][  3].d[ 18] =         0.034952453180;
  BAS[ATNO][  3].a[ 19] =         1.872981569100;     BAS[ATNO][  3].d[ 19] =         0.100902669966;
  BAS[ATNO][  3].a[ 20] =         0.820046659900;     BAS[ATNO][  3].d[ 20] =         1.221962750275;
  BAS[ATNO][  3].a[ 21] =         0.820046659900;     BAS[ATNO][  3].d[ 21] =        -0.479625150320;
  BAS[ATNO][  3].a[ 22] =         0.395526482500;     BAS[ATNO][  3].d[ 22] =         0.096519599096;
  BAS[ATNO][  3].a[ 23] =         0.395526482500;     BAS[ATNO][  3].d[ 23] =        -0.037884319481;
  BAS[ATNO][  3].a[ 24] =         0.174455098100;     BAS[ATNO][  3].d[ 24] =         0.143499614622;
  BAS[ATNO][  3].a[ 25] =         0.174455098100;     BAS[ATNO][  3].d[ 25] =        -0.056324158996;
  BAS[ATNO][  3].a[ 26] =         0.073389992700;     BAS[ATNO][  3].d[ 26] =        -0.048573949830;
  BAS[ATNO][  3].a[ 27] =         0.073389992700;     BAS[ATNO][  3].d[ 27] =         0.019065464953;
  BAS[ATNO][  3].a[ 28] =         0.019994004400;     BAS[ATNO][  3].d[ 28] =         0.010287443102;
  BAS[ATNO][  3].a[ 29] =         0.019994004400;     BAS[ATNO][  3].d[ 29] =        -0.004037861582;

  // Basis function   5 L = s
  InitBFNGauss(BAS[ATNO][  4]);
  BAS[ATNO][  4].l  = 0;
  BAS[ATNO][  4].ng = 18;
  BAS[ATNO][  4].a[  0] =     18774.299999999999;     BAS[ATNO][  4].d[  0] =         0.000015361996;
  BAS[ATNO][  4].a[  1] =      2824.810000000000;     BAS[ATNO][  4].d[  1] =         0.000113181751;
  BAS[ATNO][  4].a[  2] =       640.088000000000;     BAS[ATNO][  4].d[  2] =         0.000473736795;
  BAS[ATNO][  4].a[  3] =       172.616000000000;     BAS[ATNO][  4].d[  3] =         0.001015021185;
  BAS[ATNO][  4].a[  4] =        29.516900000000;     BAS[ATNO][  4].d[  4] =        -0.010651961660;
  BAS[ATNO][  4].a[  5] =        18.444800000000;     BAS[ATNO][  4].d[  5] =         0.084498423720;
  BAS[ATNO][  4].a[  6] =        11.523800000000;     BAS[ATNO][  4].d[  6] =        -0.115853383641;
  BAS[ATNO][  4].a[  7] =         6.618900000000;     BAS[ATNO][  4].d[  7] =        -0.108126752334;
  BAS[ATNO][  4].a[  8] =         2.995520000000;     BAS[ATNO][  4].d[  8] =         0.134749766187;
  BAS[ATNO][  4].a[  9] =         1.653258653600;     BAS[ATNO][  4].d[  9] =         0.626593332623;
  BAS[ATNO][  4].a[ 10] =        27.052171835000;     BAS[ATNO][  4].d[ 10] =         0.013860291337;
  BAS[ATNO][  4].a[ 11] =        20.940622415000;     BAS[ATNO][  4].d[ 11] =        -0.029796848056;
  BAS[ATNO][  4].a[ 12] =         6.002459107100;     BAS[ATNO][  4].d[ 12] =         0.063732394743;
  BAS[ATNO][  4].a[ 13] =         0.875538892700;     BAS[ATNO][  4].d[ 13] =        -1.077678064147;
  BAS[ATNO][  4].a[ 14] =         0.410336166500;     BAS[ATNO][  4].d[ 14] =         0.270362931748;
  BAS[ATNO][  4].a[ 15] =         0.194935857800;     BAS[ATNO][  4].d[ 15] =        -0.472246186136;
  BAS[ATNO][  4].a[ 16] =         0.090171093000;     BAS[ATNO][  4].d[ 16] =         2.754368311621;
  BAS[ATNO][  4].a[ 17] =         0.042287348600;     BAS[ATNO][  4].d[ 17] =        -2.636301355241;

  // Basis function   6 L = s
  InitBFNGauss(BAS[ATNO][  5]);
  BAS[ATNO][  5].l  = 0;
  BAS[ATNO][  5].ng = 18;
  BAS[ATNO][  5].a[  0] =     18774.299999999999;     BAS[ATNO][  5].d[  0] =         0.000028732556;
  BAS[ATNO][  5].a[  1] =      2824.810000000000;     BAS[ATNO][  5].d[  1] =         0.000211691310;
  BAS[ATNO][  5].a[  2] =       640.088000000000;     BAS[ATNO][  5].d[  2] =         0.000886061238;
  BAS[ATNO][  5].a[  3] =       172.616000000000;     BAS[ATNO][  5].d[  3] =         0.001898461208;
  BAS[ATNO][  5].a[  4] =        29.516900000000;     BAS[ATNO][  5].d[  4] =        -0.019923067906;
  BAS[ATNO][  5].a[  5] =        18.444800000000;     BAS[ATNO][  5].d[  5] =         0.158042986575;
  BAS[ATNO][  5].a[  6] =        11.523800000000;     BAS[ATNO][  5].d[  6] =        -0.216688240434;
  BAS[ATNO][  5].a[  7] =         6.618900000000;     BAS[ATNO][  5].d[  7] =        -0.202236611230;
  BAS[ATNO][  5].a[  8] =         2.995520000000;     BAS[ATNO][  5].d[  8] =         0.252031393615;
  BAS[ATNO][  5].a[  9] =         1.653258653600;     BAS[ATNO][  5].d[  9] =         0.696856167858;
  BAS[ATNO][  5].a[ 10] =        27.052171835000;     BAS[ATNO][  5].d[ 10] =         0.038216496777;
  BAS[ATNO][  5].a[ 11] =        20.940622415000;     BAS[ATNO][  5].d[ 11] =        -0.082157807509;
  BAS[ATNO][  5].a[ 12] =         6.002459107100;     BAS[ATNO][  5].d[ 12] =         0.175727104076;
  BAS[ATNO][  5].a[ 13] =         0.875538892700;     BAS[ATNO][  5].d[ 13] =        -0.379574728467;
  BAS[ATNO][  5].a[ 14] =         0.410336166500;     BAS[ATNO][  5].d[ 14] =        -4.060459628303;
  BAS[ATNO][  5].a[ 15] =         0.194935857800;     BAS[ATNO][  5].d[ 15] =         8.950647840565;
  BAS[ATNO][  5].a[ 16] =         0.090171093000;     BAS[ATNO][  5].d[ 16] =        -8.261659279372;
  BAS[ATNO][  5].a[ 17] =         0.042287348600;     BAS[ATNO][  5].d[ 17] =         3.087482528645;

  // Basis function   7 L = s
  InitBFNGauss(BAS[ATNO][  6]);
  BAS[ATNO][  6].l  = 0;
  BAS[ATNO][  6].ng = 18;
  BAS[ATNO][  6].a[  0] =     18774.299999999999;     BAS[ATNO][  6].d[  0] =         0.000071841587;
  BAS[ATNO][  6].a[  1] =      2824.810000000000;     BAS[ATNO][  6].d[  1] =         0.000529303395;
  BAS[ATNO][  6].a[  2] =       640.088000000000;     BAS[ATNO][  6].d[  2] =         0.002215467521;
  BAS[ATNO][  6].a[  3] =       172.616000000000;     BAS[ATNO][  6].d[  3] =         0.004746826704;
  BAS[ATNO][  6].a[  4] =        29.516900000000;     BAS[ATNO][  6].d[  4] =        -0.049814739632;
  BAS[ATNO][  6].a[  5] =        18.444800000000;     BAS[ATNO][  6].d[  5] =         0.395163549320;
  BAS[ATNO][  6].a[  6] =        11.523800000000;     BAS[ATNO][  6].d[  6] =        -0.541797494729;
  BAS[ATNO][  6].a[  7] =         6.618900000000;     BAS[ATNO][  6].d[  7] =        -0.505663293436;
  BAS[ATNO][  6].a[  8] =         2.995520000000;     BAS[ATNO][  6].d[  8] =         0.630167919496;
  BAS[ATNO][  6].a[  9] =         1.653258653600;     BAS[ATNO][  6].d[  9] =         5.055027406228;
  BAS[ATNO][  6].a[ 10] =        27.052171835000;     BAS[ATNO][  6].d[ 10] =         0.041195477131;
  BAS[ATNO][  6].a[ 11] =        20.940622415000;     BAS[ATNO][  6].d[ 11] =        -0.088562018127;
  BAS[ATNO][  6].a[ 12] =         6.002459107100;     BAS[ATNO][  6].d[ 12] =         0.189425052206;
  BAS[ATNO][  6].a[ 13] =         0.875538892700;     BAS[ATNO][  6].d[ 13] =       -12.935791091318;
  BAS[ATNO][  6].a[ 14] =         0.410336166500;     BAS[ATNO][  6].d[ 14] =        15.621289325603;
  BAS[ATNO][  6].a[ 15] =         0.194935857800;     BAS[ATNO][  6].d[ 15] =       -12.204044198582;
  BAS[ATNO][  6].a[ 16] =         0.090171093000;     BAS[ATNO][  6].d[ 16] =         6.078084393648;
  BAS[ATNO][  6].a[ 17] =         0.042287348600;     BAS[ATNO][  6].d[ 17] =        -1.636868452971;

  // Basis function   8 L = s
  InitBFNGauss(BAS[ATNO][  7]);
  BAS[ATNO][  7].l  = 0;
  BAS[ATNO][  7].ng = 18;
  BAS[ATNO][  7].a[  0] =     18774.299999999999;     BAS[ATNO][  7].d[  0] =         0.000236354636;
  BAS[ATNO][  7].a[  1] =      2824.810000000000;     BAS[ATNO][  7].d[  1] =         0.001741377337;
  BAS[ATNO][  7].a[  2] =       640.088000000000;     BAS[ATNO][  7].d[  2] =         0.007288759093;
  BAS[ATNO][  7].a[  3] =       172.616000000000;     BAS[ATNO][  7].d[  3] =         0.015616783354;
  BAS[ATNO][  7].a[  4] =        29.516900000000;     BAS[ATNO][  7].d[  4] =        -0.163887591690;
  BAS[ATNO][  7].a[  5] =        18.444800000000;     BAS[ATNO][  7].d[  5] =         1.300065059058;
  BAS[ATNO][  7].a[  6] =        11.523800000000;     BAS[ATNO][  7].d[  6] =        -1.782482198054;
  BAS[ATNO][  7].a[  7] =         6.618900000000;     BAS[ATNO][  7].d[  7] =        -1.663602780613;
  BAS[ATNO][  7].a[  8] =         2.995520000000;     BAS[ATNO][  7].d[  8] =         2.073215747978;
  BAS[ATNO][  7].a[  9] =         1.653258653600;     BAS[ATNO][  7].d[  9] =       -11.124912886745;
  BAS[ATNO][  7].a[ 10] =        27.052171835000;     BAS[ATNO][  7].d[ 10] =         1.275153555487;
  BAS[ATNO][  7].a[ 11] =        20.940622415000;     BAS[ATNO][  7].d[ 11] =        -2.741324537586;
  BAS[ATNO][  7].a[ 12] =         6.002459107100;     BAS[ATNO][  7].d[ 12] =         5.863411365593;
  BAS[ATNO][  7].a[ 13] =         0.875538892700;     BAS[ATNO][  7].d[ 13] =        12.495659581741;
  BAS[ATNO][  7].a[ 14] =         0.410336166500;     BAS[ATNO][  7].d[ 14] =        -8.703300691085;
  BAS[ATNO][  7].a[ 15] =         0.194935857800;     BAS[ATNO][  7].d[ 15] =         5.122461707244;
  BAS[ATNO][  7].a[ 16] =         0.090171093000;     BAS[ATNO][  7].d[ 16] =        -2.286117149467;
  BAS[ATNO][  7].a[ 17] =         0.042287348600;     BAS[ATNO][  7].d[ 17] =         0.609365222546;

  // Basis function   9 L = p
  InitBFNGauss(BAS[ATNO][  8]);
  BAS[ATNO][  8].l  = 1;
  BAS[ATNO][  8].ng = 30;
  BAS[ATNO][  8].a[  0] =       613.331000000000;     BAS[ATNO][  8].d[  0] =        -0.000679909053;
  BAS[ATNO][  8].a[  1] =       141.710000000000;     BAS[ATNO][  8].d[  1] =        -0.004202626567;
  BAS[ATNO][  8].a[  2] =        20.310600000000;     BAS[ATNO][  8].d[  2] =        -0.271096503930;
  BAS[ATNO][  8].a[  3] =        11.033100000000;     BAS[ATNO][  8].d[  3] =         1.246440867178;
  BAS[ATNO][  8].a[  4] =         6.895130000000;     BAS[ATNO][  8].d[  4] =        -0.048017347559;
  BAS[ATNO][  8].a[  5] =         3.241660000000;     BAS[ATNO][  8].d[  5] =        -2.595464249940;
  BAS[ATNO][  8].a[  6] =         1.665350000000;     BAS[ATNO][  8].d[  6] =        -2.472464754774;
  BAS[ATNO][  8].a[  7] =       613.331000000000;     BAS[ATNO][  8].d[  7] =         0.000266875236;
  BAS[ATNO][  8].a[  8] =       141.710000000000;     BAS[ATNO][  8].d[  8] =         0.001649598507;
  BAS[ATNO][  8].a[  9] =        20.310600000000;     BAS[ATNO][  8].d[  9] =         0.106409737074;
  BAS[ATNO][  8].a[ 10] =        11.033100000000;     BAS[ATNO][  8].d[ 10] =        -0.489248083367;
  BAS[ATNO][  8].a[ 11] =         6.895130000000;     BAS[ATNO][  8].d[ 11] =         0.018847581045;
  BAS[ATNO][  8].a[ 12] =         3.241660000000;     BAS[ATNO][  8].d[ 12] =         1.018761453646;
  BAS[ATNO][  8].a[ 13] =         1.665350000000;     BAS[ATNO][  8].d[ 13] =         0.970482173939;
  BAS[ATNO][  8].a[ 14] =        18.388908413000;     BAS[ATNO][  8].d[ 14] =        -0.112176492942;
  BAS[ATNO][  8].a[ 15] =         6.113904543100;     BAS[ATNO][  8].d[ 15] =         1.156140421647;
  BAS[ATNO][  8].a[ 16] =         1.872981569100;     BAS[ATNO][  8].d[ 16] =         3.337609946855;
  BAS[ATNO][  8].a[ 17] =        18.388908413000;     BAS[ATNO][  8].d[ 17] =         0.044031077298;
  BAS[ATNO][  8].a[ 18] =         6.113904543100;     BAS[ATNO][  8].d[ 18] =        -0.453803706448;
  BAS[ATNO][  8].a[ 19] =         1.872981569100;     BAS[ATNO][  8].d[ 19] =        -1.310065573526;
  BAS[ATNO][  8].a[ 20] =         0.820046659900;     BAS[ATNO][  8].d[ 20] =         0.847884467710;
  BAS[ATNO][  8].a[ 21] =         0.820046659900;     BAS[ATNO][  8].d[ 21] =        -0.332808287715;
  BAS[ATNO][  8].a[ 22] =         0.395526482500;     BAS[ATNO][  8].d[ 22] =        -0.748942641221;
  BAS[ATNO][  8].a[ 23] =         0.395526482500;     BAS[ATNO][  8].d[ 23] =         0.293972029815;
  BAS[ATNO][  8].a[ 24] =         0.174455098100;     BAS[ATNO][  8].d[ 24] =         0.406003144892;
  BAS[ATNO][  8].a[ 25] =         0.174455098100;     BAS[ATNO][  8].d[ 25] =        -0.159362762976;
  BAS[ATNO][  8].a[ 26] =         0.073389992700;     BAS[ATNO][  8].d[ 26] =        -0.151472067810;
  BAS[ATNO][  8].a[ 27] =         0.073389992700;     BAS[ATNO][  8].d[ 27] =         0.059455222314;
  BAS[ATNO][  8].a[ 28] =         0.019994004400;     BAS[ATNO][  8].d[ 28] =         0.031011932692;
  BAS[ATNO][  8].a[ 29] =         0.019994004400;     BAS[ATNO][  8].d[ 29] =        -0.012172682259;

  // Basis function  10 L = p
  InitBFNGauss(BAS[ATNO][  9]);
  BAS[ATNO][  9].l  = 1;
  BAS[ATNO][  9].ng = 15;
  BAS[ATNO][  9].a[  0] =       613.331000000000;     BAS[ATNO][  9].d[  0] =        -0.000056937737;
  BAS[ATNO][  9].a[  1] =       141.710000000000;     BAS[ATNO][  9].d[  1] =        -0.000351941259;
  BAS[ATNO][  9].a[  2] =        20.310600000000;     BAS[ATNO][  9].d[  2] =        -0.022702479808;
  BAS[ATNO][  9].a[  3] =        11.033100000000;     BAS[ATNO][  9].d[  3] =         0.104380905725;
  BAS[ATNO][  9].a[  4] =         6.895130000000;     BAS[ATNO][  9].d[  4] =        -0.004021124757;
  BAS[ATNO][  9].a[  5] =         3.241660000000;     BAS[ATNO][  9].d[  5] =        -0.217352396186;
  BAS[ATNO][  9].a[  6] =         1.665350000000;     BAS[ATNO][  9].d[  6] =        -0.207052028919;
  BAS[ATNO][  9].a[  7] =        18.388908413000;     BAS[ATNO][  9].d[  7] =         0.006034264653;
  BAS[ATNO][  9].a[  8] =         6.113904543100;     BAS[ATNO][  9].d[  8] =        -0.062191793462;
  BAS[ATNO][  9].a[  9] =         1.872981569100;     BAS[ATNO][  9].d[  9] =        -0.179538700133;
  BAS[ATNO][  9].a[ 10] =         0.820046659900;     BAS[ATNO][  9].d[ 10] =         1.078516521607;
  BAS[ATNO][  9].a[ 11] =         0.395526482500;     BAS[ATNO][  9].d[ 11] =        -0.010726998836;
  BAS[ATNO][  9].a[ 12] =         0.174455098100;     BAS[ATNO][  9].d[ 12] =        -0.905741883756;
  BAS[ATNO][  9].a[ 13] =         0.073389992700;     BAS[ATNO][  9].d[ 13] =        -0.361705296436;
  BAS[ATNO][  9].a[ 14] =         0.019994004400;     BAS[ATNO][  9].d[ 14] =         0.161610725994;

  // Basis function  11 L = p
  InitBFNGauss(BAS[ATNO][ 10]);
  BAS[ATNO][ 10].l  = 1;
  BAS[ATNO][ 10].ng = 30;
  BAS[ATNO][ 10].a[  0] =       613.331000000000;     BAS[ATNO][ 10].d[  0] =        -0.000013241865;
  BAS[ATNO][ 10].a[  1] =       141.710000000000;     BAS[ATNO][ 10].d[  1] =        -0.000081850085;
  BAS[ATNO][ 10].a[  2] =        20.310600000000;     BAS[ATNO][ 10].d[  2] =        -0.005279858079;
  BAS[ATNO][ 10].a[  3] =        11.033100000000;     BAS[ATNO][ 10].d[  3] =         0.024275602185;
  BAS[ATNO][ 10].a[  4] =         6.895130000000;     BAS[ATNO][ 10].d[  4] =        -0.000935182774;
  BAS[ATNO][ 10].a[  5] =         3.241660000000;     BAS[ATNO][ 10].d[  5] =        -0.050549094847;
  BAS[ATNO][ 10].a[  6] =         1.665350000000;     BAS[ATNO][ 10].d[  6] =        -0.048153564588;
  BAS[ATNO][ 10].a[  7] =       613.331000000000;     BAS[ATNO][ 10].d[  7] =         0.000005197481;
  BAS[ATNO][ 10].a[  8] =       141.710000000000;     BAS[ATNO][ 10].d[  8] =         0.000032126464;
  BAS[ATNO][ 10].a[  9] =        20.310600000000;     BAS[ATNO][ 10].d[  9] =         0.002072364029;
  BAS[ATNO][ 10].a[ 10] =        11.033100000000;     BAS[ATNO][ 10].d[ 10] =        -0.009528264585;
  BAS[ATNO][ 10].a[ 11] =         6.895130000000;     BAS[ATNO][ 10].d[ 11] =         0.000367062734;
  BAS[ATNO][ 10].a[ 12] =         3.241660000000;     BAS[ATNO][ 10].d[ 12] =         0.019840708649;
  BAS[ATNO][ 10].a[ 13] =         1.665350000000;     BAS[ATNO][ 10].d[ 13] =         0.018900454069;
  BAS[ATNO][ 10].a[ 14] =        18.388908413000;     BAS[ATNO][ 10].d[ 14] =         0.001449815139;
  BAS[ATNO][ 10].a[ 15] =         6.113904543100;     BAS[ATNO][ 10].d[ 15] =        -0.014942434393;
  BAS[ATNO][ 10].a[ 16] =         1.872981569100;     BAS[ATNO][ 10].d[ 16] =        -0.043136643895;
  BAS[ATNO][ 10].a[ 17] =        18.388908413000;     BAS[ATNO][ 10].d[ 17] =        -0.000569057861;
  BAS[ATNO][ 10].a[ 18] =         6.113904543100;     BAS[ATNO][ 10].d[ 18] =         0.005864961345;
  BAS[ATNO][ 10].a[ 19] =         1.872981569100;     BAS[ATNO][ 10].d[ 19] =         0.016931293947;
  BAS[ATNO][ 10].a[ 20] =         0.820046659900;     BAS[ATNO][ 10].d[ 20] =         0.275850871904;
  BAS[ATNO][ 10].a[ 21] =         0.820046659900;     BAS[ATNO][ 10].d[ 21] =        -0.108272498183;
  BAS[ATNO][ 10].a[ 22] =         0.395526482500;     BAS[ATNO][ 10].d[ 22] =        -0.038859526796;
  BAS[ATNO][ 10].a[ 23] =         0.395526482500;     BAS[ATNO][ 10].d[ 23] =         0.015252509500;
  BAS[ATNO][ 10].a[ 24] =         0.174455098100;     BAS[ATNO][ 10].d[ 24] =        -0.216919271392;
  BAS[ATNO][ 10].a[ 25] =         0.174455098100;     BAS[ATNO][ 10].d[ 25] =         0.085141624732;
  BAS[ATNO][ 10].a[ 26] =         0.073389992700;     BAS[ATNO][ 10].d[ 26] =        -0.297487628684;
  BAS[ATNO][ 10].a[ 27] =         0.073389992700;     BAS[ATNO][ 10].d[ 27] =         0.116765006084;
  BAS[ATNO][ 10].a[ 28] =         0.019994004400;     BAS[ATNO][ 10].d[ 28] =         1.080803511988;
  BAS[ATNO][ 10].a[ 29] =         0.019994004400;     BAS[ATNO][ 10].d[ 29] =        -0.424219417833;

  // Basis function  12 L = p
  InitBFNGauss(BAS[ATNO][ 11]);
  BAS[ATNO][ 11].l  = 1;
  BAS[ATNO][ 11].ng = 30;
  BAS[ATNO][ 11].a[  0] =       613.331000000000;     BAS[ATNO][ 11].d[  0] =         0.000012442477;
  BAS[ATNO][ 11].a[  1] =       141.710000000000;     BAS[ATNO][ 11].d[  1] =         0.000076908941;
  BAS[ATNO][ 11].a[  2] =        20.310600000000;     BAS[ATNO][ 11].d[  2] =         0.004961122444;
  BAS[ATNO][ 11].a[  3] =        11.033100000000;     BAS[ATNO][ 11].d[  3] =        -0.022810127286;
  BAS[ATNO][ 11].a[  4] =         6.895130000000;     BAS[ATNO][ 11].d[  4] =         0.000878727454;
  BAS[ATNO][ 11].a[  5] =         3.241660000000;     BAS[ATNO][ 11].d[  5] =         0.047497535957;
  BAS[ATNO][ 11].a[  6] =         1.665350000000;     BAS[ATNO][ 11].d[  6] =         0.045246619597;
  BAS[ATNO][ 11].a[  7] =       613.331000000000;     BAS[ATNO][ 11].d[  7] =         0.000031700240;
  BAS[ATNO][ 11].a[  8] =       141.710000000000;     BAS[ATNO][ 11].d[  8] =         0.000195944254;
  BAS[ATNO][ 11].a[  9] =        20.310600000000;     BAS[ATNO][ 11].d[  9] =         0.012639667452;
  BAS[ATNO][ 11].a[ 10] =        11.033100000000;     BAS[ATNO][ 11].d[ 10] =        -0.058114353491;
  BAS[ATNO][ 11].a[ 11] =         6.895130000000;     BAS[ATNO][ 11].d[ 11] =         0.002238772158;
  BAS[ATNO][ 11].a[ 12] =         3.241660000000;     BAS[ATNO][ 11].d[ 12] =         0.121011538426;
  BAS[ATNO][ 11].a[ 13] =         1.665350000000;     BAS[ATNO][ 11].d[ 13] =         0.115276780902;
  BAS[ATNO][ 11].a[ 14] =        18.388908413000;     BAS[ATNO][ 11].d[ 14] =        -0.001364767667;
  BAS[ATNO][ 11].a[ 15] =         6.113904543100;     BAS[ATNO][ 11].d[ 15] =         0.014065897630;
  BAS[ATNO][ 11].a[ 16] =         1.872981569100;     BAS[ATNO][ 11].d[ 16] =         0.040606209212;
  BAS[ATNO][ 11].a[ 17] =        18.388908413000;     BAS[ATNO][ 11].d[ 17] =        -0.003477077951;
  BAS[ATNO][ 11].a[ 18] =         6.113904543100;     BAS[ATNO][ 11].d[ 18] =         0.035836299235;
  BAS[ATNO][ 11].a[ 19] =         1.872981569100;     BAS[ATNO][ 11].d[ 19] =         0.103454205514;
  BAS[ATNO][ 11].a[ 20] =         0.820046659900;     BAS[ATNO][ 11].d[ 20] =        -0.201777812555;
  BAS[ATNO][ 11].a[ 21] =         0.820046659900;     BAS[ATNO][ 11].d[ 21] =        -0.514078110059;
  BAS[ATNO][ 11].a[ 22] =         0.395526482500;     BAS[ATNO][ 11].d[ 22] =        -0.245004057762;
  BAS[ATNO][ 11].a[ 23] =         0.395526482500;     BAS[ATNO][ 11].d[ 23] =        -0.624207495241;
  BAS[ATNO][ 11].a[ 24] =         0.174455098100;     BAS[ATNO][ 11].d[ 24] =         0.966721384996;
  BAS[ATNO][ 11].a[ 25] =         0.174455098100;     BAS[ATNO][ 11].d[ 25] =         2.462958123365;
  BAS[ATNO][ 11].a[ 26] =         0.073389992700;     BAS[ATNO][ 11].d[ 26] =        -0.935418602355;
  BAS[ATNO][ 11].a[ 27] =         0.073389992700;     BAS[ATNO][ 11].d[ 27] =        -2.383206662412;
  BAS[ATNO][ 11].a[ 28] =         0.019994004400;     BAS[ATNO][ 11].d[ 28] =         0.308725448373;
  BAS[ATNO][ 11].a[ 29] =         0.019994004400;     BAS[ATNO][ 11].d[ 29] =         0.786553253876;

  // Basis function  13 L = p
  InitBFNGauss(BAS[ATNO][ 12]);
  BAS[ATNO][ 12].l  = 1;
  BAS[ATNO][ 12].ng = 30;
  BAS[ATNO][ 12].a[  0] =       613.331000000000;     BAS[ATNO][ 12].d[  0] =         0.000108182145;
  BAS[ATNO][ 12].a[  1] =       141.710000000000;     BAS[ATNO][ 12].d[  1] =         0.000668691138;
  BAS[ATNO][ 12].a[  2] =        20.310600000000;     BAS[ATNO][ 12].d[  2] =         0.043134888826;
  BAS[ATNO][ 12].a[  3] =        11.033100000000;     BAS[ATNO][ 12].d[  3] =        -0.198324535562;
  BAS[ATNO][ 12].a[  4] =         6.895130000000;     BAS[ATNO][ 12].d[  4] =         0.007640168422;
  BAS[ATNO][ 12].a[  5] =         3.241660000000;     BAS[ATNO][ 12].d[  5] =         0.412971249173;
  BAS[ATNO][ 12].a[  6] =         1.665350000000;     BAS[ATNO][ 12].d[  6] =         0.393400470971;
  BAS[ATNO][ 12].a[  7] =       613.331000000000;     BAS[ATNO][ 12].d[  7] =        -0.000042459583;
  BAS[ATNO][ 12].a[  8] =       141.710000000000;     BAS[ATNO][ 12].d[  8] =        -0.000262449473;
  BAS[ATNO][ 12].a[  9] =        20.310600000000;     BAS[ATNO][ 12].d[  9] =        -0.016929682746;
  BAS[ATNO][ 12].a[ 10] =        11.033100000000;     BAS[ATNO][ 12].d[ 10] =         0.077838880759;
  BAS[ATNO][ 12].a[ 11] =         6.895130000000;     BAS[ATNO][ 12].d[ 11] =        -0.002998631294;
  BAS[ATNO][ 12].a[ 12] =         3.241660000000;     BAS[ATNO][ 12].d[ 12] =        -0.162083928395;
  BAS[ATNO][ 12].a[ 13] =         1.665350000000;     BAS[ATNO][ 12].d[ 13] =        -0.154402743279;
  BAS[ATNO][ 12].a[ 14] =        18.388908413000;     BAS[ATNO][ 12].d[ 14] =        -0.013649673074;
  BAS[ATNO][ 12].a[ 15] =         6.113904543100;     BAS[ATNO][ 12].d[ 15] =         0.140679552102;
  BAS[ATNO][ 12].a[ 16] =         1.872981569100;     BAS[ATNO][ 12].d[ 16] =         0.406121491493;
  BAS[ATNO][ 12].a[ 17] =        18.388908413000;     BAS[ATNO][ 12].d[ 17] =         0.005357255832;
  BAS[ATNO][ 12].a[ 18] =         6.113904543100;     BAS[ATNO][ 12].d[ 18] =        -0.055214241894;
  BAS[ATNO][ 12].a[ 19] =         1.872981569100;     BAS[ATNO][ 12].d[ 19] =        -0.159395519353;
  BAS[ATNO][ 12].a[ 20] =         0.820046659900;     BAS[ATNO][ 12].d[ 20] =        -3.948021874331;
  BAS[ATNO][ 12].a[ 21] =         0.820046659900;     BAS[ATNO][ 12].d[ 21] =         1.549528922267;
  BAS[ATNO][ 12].a[ 22] =         0.395526482500;     BAS[ATNO][ 12].d[ 22] =         5.404881328483;
  BAS[ATNO][ 12].a[ 23] =         0.395526482500;     BAS[ATNO][ 12].d[ 23] =        -2.121320551379;
  BAS[ATNO][ 12].a[ 24] =         0.174455098100;     BAS[ATNO][ 12].d[ 24] =        -3.803123004123;
  BAS[ATNO][ 12].a[ 25] =         0.174455098100;     BAS[ATNO][ 12].d[ 25] =         1.492658672443;
  BAS[ATNO][ 12].a[ 26] =         0.073389992700;     BAS[ATNO][ 12].d[ 26] =         1.525730581652;
  BAS[ATNO][ 12].a[ 27] =         0.073389992700;     BAS[ATNO][ 12].d[ 27] =        -0.598822331515;
  BAS[ATNO][ 12].a[ 28] =         0.019994004400;     BAS[ATNO][ 12].d[ 28] =        -0.304017212765;
  BAS[ATNO][ 12].a[ 29] =         0.019994004400;     BAS[ATNO][ 12].d[ 29] =         0.119321391576;

  // Basis function  14 L = p
  InitBFNGauss(BAS[ATNO][ 13]);
  BAS[ATNO][ 13].l  = 1;
  BAS[ATNO][ 13].ng = 15;
  BAS[ATNO][ 13].a[  0] =       613.331000000000;     BAS[ATNO][ 13].d[  0] =        -0.000730422818;
  BAS[ATNO][ 13].a[  1] =       141.710000000000;     BAS[ATNO][ 13].d[  1] =        -0.004514860226;
  BAS[ATNO][ 13].a[  2] =        20.310600000000;     BAS[ATNO][ 13].d[  2] =        -0.291237587589;
  BAS[ATNO][ 13].a[  3] =        11.033100000000;     BAS[ATNO][ 13].d[  3] =         1.339045048412;
  BAS[ATNO][ 13].a[  4] =         6.895130000000;     BAS[ATNO][ 13].d[  4] =        -0.051584790888;
  BAS[ATNO][ 13].a[  5] =         3.241660000000;     BAS[ATNO][ 13].d[  5] =        -2.788293968635;
  BAS[ATNO][ 13].a[  6] =         1.665350000000;     BAS[ATNO][ 13].d[  6] =        -2.656156240086;
  BAS[ATNO][ 13].a[  7] =        18.388908413000;     BAS[ATNO][ 13].d[  7] =        -0.120507393490;
  BAS[ATNO][ 13].a[  8] =         6.113904543100;     BAS[ATNO][ 13].d[  8] =         1.242002357783;
  BAS[ATNO][ 13].a[  9] =         1.872981569100;     BAS[ATNO][ 13].d[  9] =         3.585480920605;
  BAS[ATNO][ 13].a[ 10] =         0.820046659900;     BAS[ATNO][ 13].d[ 10] =         0.911129015982;
  BAS[ATNO][ 13].a[ 11] =         0.395526482500;     BAS[ATNO][ 13].d[ 11] =        -0.804861475329;
  BAS[ATNO][ 13].a[ 12] =         0.174455098100;     BAS[ATNO][ 13].d[ 12] =         0.436350824552;
  BAS[ATNO][ 13].a[ 13] =         0.073389992700;     BAS[ATNO][ 13].d[ 13] =        -0.162804530995;
  BAS[ATNO][ 13].a[ 14] =         0.019994004400;     BAS[ATNO][ 13].d[ 14] =         0.033338087343;

-------------------------------------------
RADIAL EXPECTATION VALUES <R**-3> TO <R**3>
-------------------------------------------
   0 :     0.000000     2.839220     1.571719     0.692703     0.519433     0.421808
   1 :     4.701393     2.491636     1.501138     0.728557     0.578142     0.508320
   2 :     4.702262     2.491926     1.501226     0.728505     0.577964     0.506706
   3 :     4.690087     2.486642     1.499169     0.730573     0.583741     0.524281
   4 :     0.000000     1.063812     0.861418     1.372300     2.092178     3.466893
   5 :     1.345523     0.853206     0.803572     1.464115     2.370688     4.176816
   6 :     1.347418     0.854071     0.803999     1.463247     2.366840     4.151046
   7 :     0.000000     0.346980     0.448385     2.747154     8.407324    27.808437
   8 :     0.000000     0.069436     0.197569     5.904736    37.421329   249.252313
   9 :     0.000000     0.173892     0.293765     4.695720    26.836829   175.773600
  10 :     0.000000     0.729815     0.585642     2.679087    10.237511    52.123349
  11 :     0.000000     4.596488     1.816384     0.934612     1.869648     7.425554
  12 :    50.447351    11.262679     3.054178     0.432503     0.344198     0.883886
  13 :     1.579960     0.948054     0.835027     1.530970     3.044997     8.252748
  14 :     0.287171     0.231517     0.388309     3.105668    10.710799    40.115882
  15 :     0.309868     0.245544     0.399871     3.041404    10.582292    43.578772
  16 :     0.064045     0.141665     0.358823     3.036798    10.030906    36.024079
  17 :     0.009397     0.022662     0.135369     8.094961    70.442255   654.404111
  18 :     0.020167     0.028597     0.137699     8.254624    73.444811   694.815556
  19 :     0.020166     0.028597     0.137699     8.254624    73.444812   694.815584
  20 :     0.120172     0.107112     0.244222     5.594116    39.195594   329.112767
  21 :     0.120176     0.107114     0.244223     5.594114    39.195584   329.112675
  22 :     0.112653     0.101356     0.236614     5.805742    42.215785   365.084253
  23 :     0.844035     0.498399     0.529023     2.926223    12.258691    71.693771
  24 :     0.844044     0.498403     0.529024     2.926223    12.258696    71.693797
  25 :     0.837898     0.495164     0.526944     2.939407    12.373458    72.697435
  26 :    50.447351    11.262679     3.054178     0.432503     0.344198     0.883886
  27 :    50.446325    11.262425     3.054118     0.432540     0.344336     0.884699
  28 :     0.000000    35.646222     5.015479     0.363502     0.460869     1.742531
Making the total density                ... o.k.
o.k.
Initializing the integrals              ... done
Making exponents                        ... done
Making rho(0)                           ... done (         2.023081480)
Integral calculation                    ... Two index integrals                     ... done
Solving the equation system             ... done
atomic density will be written to file 54_Xe_atom54.adf

-------
TIMINGS
-------

Total SCF time: 0 days 0 hours 0 min 0 sec 

Total time                  ....       0.546 sec
Sum of individual times     ....       0.182 sec  ( 33.4%)

Fock matrix formation       ....       0.130 sec  ( 23.8%)
Diagonalization             ....       0.024 sec  (  4.4%)
Density matrix formation    ....       0.000 sec  (  0.1%)
Population analysis         ....       0.000 sec  (  0.0%)
Initial guess               ....       0.000 sec  (  0.1%)
Orbital Transformation      ....       0.000 sec  (  0.0%)
Orbital Orthonormalization  ....       0.000 sec  (  0.0%)
DIIS solution               ....       0.028 sec  (  5.0%)

-------------------------   --------------------
FINAL SINGLE POINT ENERGY      -283.534103790660
-------------------------   --------------------


                            ***************************************
                            *     ORCA property calculations      *
                            ***************************************

                                    ---------------------
                                    Active property flags
                                    ---------------------
   (+) Dipole Moment


------------------------------------------------------------------------------
                       ORCA ELECTRIC PROPERTIES CALCULATION
------------------------------------------------------------------------------

Dipole Moment Calculation                       ... on
Quadrupole Moment Calculation                   ... off
Polarizability Calculation                      ... off
GBWName                                         ... 54_Xe_atom54.gbw
Electron density file                           ... 54_Xe_atom54.scfp
The origin for moment calculation is the CENTER OF MASS  = ( 0.000000,  0.000000  0.000000)

-------------
DIPOLE MOMENT
-------------
                                X             Y             Z
Electronic contribution:     -0.00000       0.00000       0.00000
Nuclear contribution   :      0.00000       0.00000       0.00000
                        -----------------------------------------
Total Dipole Moment    :     -0.00000       0.00000       0.00000
                        -----------------------------------------
Magnitude (a.u.)       :      0.00000
Magnitude (Debye)      :      0.00000



--------------------
Rotational spectrum 
--------------------
 
Rotational constants in cm-1:     0.000000     0.000000     0.000000 
Rotational constants in MHz :     0.000000     0.000000     0.000000 

 Dipole components along the rotational axes: 
x,y,z [a.u.] :    -0.000000     0.000000     0.000000 
x,y,z [Debye]:    -0.000000     0.000000     0.000000 

 

Timings for individual modules:

Sum of individual times         ...        0.818 sec (=   0.014 min)
GTO integral calculation        ...        0.247 sec (=   0.004 min)  30.2 %
SCF iterations                  ...        0.571 sec (=   0.010 min)  69.8 %
                             ****ORCA TERMINATED NORMALLY****
TOTAL RUN TIME: 0 days 0 hours 0 minutes 1 seconds 40 msec
