
                                 *****************
                                 * O   R   C   A *
                                 *****************

           --- An Ab Initio, DFT and Semiempirical electronic structure package ---

                  #######################################################
                  #                        -***-                        #
                  #          Department of theory and spectroscopy      #
                  #               Directorship: Frank Neese             #
                  #        Max Planck Institute fuer Kohlenforschung    #
                  #                Kaiser Wilhelm Platz 1               #
                  #                 D-45470 Muelheim/Ruhr               #
                  #                      Germany                        #
                  #                                                     #
                  #                  All rights reserved                #
                  #                        -***-                        #
                  #######################################################


                         Program Version 4.2.0 -  RELEASE  -


 With contributions from (in alphabetic order):
   Daniel Aravena         : Magnetic Suceptibility
   Michael Atanasov       : Ab Initio Ligand Field Theory (pilot matlab implementation)
   Alexander A. Auer      : GIAO ZORA, VPT2
   Ute Becker             : Parallelization
   Giovanni Bistoni       : ED, misc. LED, open-shell LED, HFLED
   Martin Brehm           : Molecular dynamics
   Dmytro Bykov           : SCF Hessian
   Vijay G. Chilkuri      : MRCI spin determinant printing, contributions to CSF-ICE
   Dipayan Datta          : RHF DLPNO-CCSD density
   Achintya Kumar Dutta   : EOM-CC, STEOM-CC
   Dmitry Ganyushin       : Spin-Orbit,Spin-Spin,Magnetic field MRCI
   Miquel Garcia          : C-PCM Hessian, Gaussian charge scheme
   Yang Guo               : DLPNO-NEVPT2, CIM, IAO-localization
   Andreas Hansen         : Spin unrestricted coupled pair/coupled cluster methods
   Benjamin Helmich-Paris : CASSCF linear response (MC-RPA)
   Lee Huntington         : MR-EOM, pCC
   Robert Izsak           : Overlap fitted RIJCOSX, COSX-SCS-MP3, EOM
   Christian Kollmar      : KDIIS, OOCD, Brueckner-CCSD(T), CCSD density
   Simone Kossmann        : Meta GGA functionals, TD-DFT gradient, OOMP2, MP2 Hessian
   Martin Krupicka        : AUTO-CI
   Lucas Lang             : DCDCAS
   Dagmar Lenk            : GEPOL surface, SMD
   Dimitrios Liakos       : Extrapolation schemes; Compound Job, initial MDCI parallelization
   Dimitrios Manganas     : Further ROCIS development; embedding schemes
   Dimitrios Pantazis     : SARC Basis sets
   Taras Petrenko         : DFT Hessian,TD-DFT gradient, ASA, ECA, R-Raman, ABS, FL, XAS/XES, NRVS
   Peter Pinski           : DLPNO-MP2, DLPNO-MP2 Gradient
   Christoph Reimann      : Effective Core Potentials
   Marius Retegan         : Local ZFS, SOC
   Christoph Riplinger    : Optimizer, TS searches, QM/MM, DLPNO-CCSD(T), (RO)-DLPNO pert. Triples
   Tobias Risthaus        : Range-separated hybrids, TD-DFT gradient, RPA, STAB
   Michael Roemelt        : Original ROCIS implementation
   Masaaki Saitow         : Open-shell DLPNO-CCSD energy and density
   Barbara Sandhoefer     : DKH picture change effects
   Avijit Sen             : IP-ROCIS
   Kantharuban Sivalingam : CASSCF convergence, NEVPT2, FIC-MRCI
   Bernardo de Souza      : ESD, SOC TD-DFT
   Georgi Stoychev        : AutoAux, RI-MP2 NMR
   Willem Van den Heuvel  : Paramagnetic NMR
   Boris Wezisla          : Elementary symmetry handling
   Frank Wennmohs         : Technical directorship


 We gratefully acknowledge several colleagues who have allowed us to
 interface, adapt or use parts of their codes:
   Stefan Grimme, W. Hujo, H. Kruse,             : VdW corrections, initial TS optimization,
                  C. Bannwarth                     DFT functionals, gCP, sTDA/sTD-DF
   Ed Valeev, F. Pavosevic, A. Kumar             : LibInt (2-el integral package), F12 methods
   Garnet Chan, S. Sharma, J. Yang, R. Olivares  : DMRG
   Ulf Ekstrom                                   : XCFun DFT Library
   Mihaly Kallay                                 : mrcc  (arbitrary order and MRCC methods)
   Andreas Klamt, Michael Diedenhofen            : otool_cosmo (COSMO solvation model)
   Jiri Pittner, Ondrej Demel                    : Mk-CCSD
   Frank Weinhold                                : gennbo (NPA and NBO analysis)
   Christopher J. Cramer and Donald G. Truhlar   : smd solvation model
   Lars Goerigk                                  : TD-DFT with DH, B97 family of functionals
   V. Asgeirsson, H. Jonsson                     : NEB implementation
   FAccTs GmbH                                   : IRC, NEB, NEB-TS, Multilevel, MM, QM/MM, CI optimization
   S Lehtola, MJT Oliveira, MAL Marques          : LibXC Library


 Your calculation uses the libint2 library for the computation of 2-el integrals
 For citations please refer to: http://libint.valeyev.net

 Your ORCA version has been built with support for libXC version: 4.2.3
 For citations please refer to: https://tddft.org/programs/libxc/

 This ORCA versions uses:
   CBLAS   interface :  Fast vector & matrix operations
   LAPACKE interface :  Fast linear algebra routines
   SCALAPACK package :  Parallel linear algebra routines


----- Orbital basis set information -----
Your calculation utilizes the basis: def2-SVP
   F. Weigend and R. Ahlrichs, Phys. Chem. Chem. Phys. 7, 3297 (2005).

----- AuxJ basis set information -----
Your calculation utilizes the auxiliary basis: def2/J
   F. Weigend, Phys. Chem. Chem. Phys. 8, 1057 (2006).

================================================================================
                                        WARNINGS
                       Please study these warnings very carefully!
================================================================================


INFO   : the flag for use of LIBINT has been found!

================================================================================
                                       INPUT FILE
================================================================================
NAME = 74_W_atom74.inp
|  1> # input to generate an atomic fitting density for W 
|  2> # this file is use internally by ORCA
|  3> #
|  4> # atomic ground state (S=5): 1s2 2s2 2p6 3s2 3p6 4s2 3d10 4p6 5s2 4d10 5p6 6s2 4f14 5d4 
|  5> #
|  6> ! RHF AllowRHF def2-SVP def2/J  NoMulliken NoLoewdin NoMayer NoPrintMOs 
|  7> 
|  8> %output print[p_atomdensfit] 2 end
|  9> 
| 10> %scf
| 11>   guess hcore
| 12>   maxiter 1000
| 13>   maxdisk 500000
| 14>   SCFMode Conventional
| 15>   lshift 0.500000
| 16>   hftyp rohf
| 17>   rohf_case sahf
| 18>   rohf_numop   2
| 19>   rohf_norb[1] 5
| 20>   rohf_nel[1]  4
| 21> end
| 22> 
| 23> %basis
| 24>   NewECP 74
| 25>     N_core 60
| 26>     lmax f
| 27>     s 3
| 28>       1      14.3228564000   1192.3958823000  2
| 29>       2       7.1614281000     32.5229332000  2
| 30>       3       2.2588885000    -14.1525795000  2
| 31>     p 3
| 32>       1      10.0216411000    359.0319671000  2
| 33>       2       5.0108204000     24.0303802000  2
| 34>       3       2.2588885000    -14.1525795000  2
| 35>     d 3
| 36>       1       6.5979974000    108.3013490000  2
| 37>       2       3.2989987000     10.9825283000  2
| 38>       3       2.2588885000    -14.1525795000  2
| 39>     f 1
| 40>       1       2.2588885000     14.1525795000  2
| 41>   end
| 42>   NewGTO 74
| 43>     s 4 
| 44>      1      22.1064878830      6.4354751734
| 45>      2      18.9580626200    -15.1145078412
| 46>      3      13.1286990490     20.7816966137
| 47>      4      10.1494173780    -11.4729180780
| 48>     s 1 
| 49>      1       4.0160322414      1.0000000000
| 50>     s 1 
| 51>      1       1.1234496158      1.0000000000
| 52>     s 1 
| 53>      1       0.5350066282      1.0000000000
| 54>     s 1 
| 55>      1       0.1712744966      1.0000000000
| 56>     s 1 
| 57>      1       0.0804528979      1.0000000000
| 58>     s 1 
| 59>      1       0.0336698722      1.0000000000
| 60>     p 4 
| 61>      1      17.0000000000     -0.0915365247
| 62>      2      12.4319734320      0.2639678450
| 63>      3       5.1586217658     -0.7116151539
| 64>      4       1.2801454812      1.2480085239
| 65>     p 1 
| 66>      1       0.6285679090      1.0000000000
| 67>     p 1 
| 68>      1       0.2938042355      1.0000000000
| 69>     p 1 
| 70>      1       0.1000000000      1.0000000000
| 71>     p 1 
| 72>      1       0.0417000000      1.0000000000
| 73>     d 3 
| 74>      1       7.4064737315      0.1691665879
| 75>      2       5.9026268603     -0.3435591801
| 76>      3       1.2984756750      1.0723513542
| 77>     d 1 
| 78>      1       0.5715350854      1.0000000000
| 79>     d 1 
| 80>      1       0.2384552661      1.0000000000
| 81>     d 1 
| 82>      1       0.0911442673      1.0000000000
| 83>     p 1 
| 84>      1       0.0206378367      1.0000000000
| 85>   end
| 86>   NewAuxGTO 74
| 87>     S 1
| 88>      1 1310.72 1.0
| 89>     S 1
| 90>      1  655.36 1.0
| 91>     S 1
| 92>      1  327.68 1.0
| 93>     S 1
| 94>      1  163.84 1.0
| 95>     S 1
| 96>      1   81.82 1.0
| 97>     S 1
| 98>      1   40.96 1.0
| 99>     S 1
|100>      1   20.48 1.0
|101>     S 1
|102>      1   10.24 1.0
|103>     S 1
|104>      1    5.12 1.0
|105>     S 1
|106>      1    2.56 1.0
|107>     S 1
|108>      1    1.28 1.0
|109>     S 1
|110>      1    0.64 1.0
|111>     S 1
|112>      1    0.32 1.0
|113>     S 1
|114>      1    0.16 1.0
|115>     S 1
|116>      1    0.08 1.0
|117>     S 1
|118>      1    0.04 1.0
|119>     S 1
|120>      1    0.02 1.0
|121>     S 1
|122>      1    0.01 1.0
|123>   end
|124> end
|125> 
|126> * xyz 0 5
|127> 74  0.0 0.0 0.0
|128> *
|129> 
|130> 
|131>                          ****END OF INPUT****
================================================================================

                       ****************************
                       * Single Point Calculation *
                       ****************************

---------------------------------
CARTESIAN COORDINATES (ANGSTROEM)
---------------------------------
  W      0.000000    0.000000    0.000000

----------------------------
CARTESIAN COORDINATES (A.U.)
----------------------------
  NO LB      ZA    FRAG     MASS         X           Y           Z
   0 W    14.0000*   0   183.850    0.000000    0.000000    0.000000
* core charge reduced due to ECP

--------------------------------
INTERNAL COORDINATES (ANGSTROEM)
--------------------------------
 W      0   0   0     0.000000000000     0.00000000     0.00000000

---------------------------
INTERNAL COORDINATES (A.U.)
---------------------------
 W      0   0   0     0.000000000000     0.00000000     0.00000000

---------------------
BASIS SET INFORMATION
---------------------
There are 1 groups of distinct atoms

 Group   1 Type W   : 10s9p6d contracted to 7s6p4d pattern {4111111/411111/3111}

Atom   0W    basis set group =>   1
---------------------------------
AUXILIARY/J BASIS SET INFORMATION
---------------------------------
There are 1 groups of distinct atoms

 Group   1 Type W   : 18s contracted to 18s pattern {111111111111111111}

Atom   0W    basis set group =>   1
-------------------------
ECP PARAMETER INFORMATION
-------------------------

 Group 1, Type W  ECP (replacing 60 core electrons, lmax=3)

Atom   0W    ECP group =>   1

------------------------------------------------------------------------------
                           ORCA GTO INTEGRAL CALCULATION
------------------------------------------------------------------------------

                         BASIS SET STATISTICS AND STARTUP INFO

 # of primitive gaussian shells          ...   25
 # of primitive gaussian functions       ...   67
 # of contracted shells                  ...   17
 # of contracted basis functions         ...   45
 Highest angular momentum                ...    2
 Maximum contraction depth               ...    4
 Integral package used                   ... LIBINT
 Integral threshhold            Thresh   ...  1.000e-10
 Primitive cut-off              TCut     ...  1.000e-11
 Storage cut-off                TCutStore... -1.000e+00
 Buffer length                           ... 1048576 integrals/buffer
 Generate file with integrals 4 distinct ...false


------------------------------ INTEGRAL EVALUATION ----------------------------


 * One electron integrals 

   ECP integrals                         ... done
 Pre-screening matrix                    ... done
 Shell pair data                         ... done (   0.000 sec)
 Statistics run                          ... done
 Maximum amount of storage needed        ...     6 MB
 Maximum amount of storage dedicated     ... 500000 MB
 Beginning two electron integral evaluation:
 Starting repulsion integrals
  <ss|ss>  ...          406 b.         0 skpd (  0.0%)     0.000 s. (  0.000 ms/b)
  <ss|sp>  ...         1176 b.         0 skpd (  0.0%)     0.000 s. (  0.000 ms/b)
  <ss|sd>  ...          784 b.         0 skpd (  0.0%)     0.000 s. (  0.000 ms/b)
  <ss|pp>  ...          588 b.         0 skpd (  0.0%)     0.000 s. (  0.000 ms/b)
  <ss|pd>  ...          672 b.         0 skpd (  0.0%)     0.000 s. (  0.001 ms/b)
  <ss|dd>  ...          280 b.         0 skpd (  0.0%)     0.000 s. (  0.001 ms/b)
  <sp|sp>  ...          903 b.         0 skpd (  0.0%)     0.000 s. (  0.000 ms/b)
  <sp|sd>  ...         1176 b.         0 skpd (  0.0%)     0.001 s. (  0.001 ms/b)
  <sp|pp>  ...          882 b.         0 skpd (  0.0%)     0.001 s. (  0.001 ms/b)
  <sp|pd>  ...         1008 b.         0 skpd (  0.0%)     0.002 s. (  0.002 ms/b)
  <sp|dd>  ...          420 b.         0 skpd (  0.0%)     0.001 s. (  0.003 ms/b)
  <sd|sd>  ...          406 b.         0 skpd (  0.0%)     0.001 s. (  0.001 ms/b)
  <sd|pp>  ...          588 b.         0 skpd (  0.0%)     0.001 s. (  0.002 ms/b)
  <sd|pd>  ...          672 b.         0 skpd (  0.0%)     0.002 s. (  0.003 ms/b)
  <sd|dd>  ...          280 b.         0 skpd (  0.0%)     0.002 s. (  0.006 ms/b)
  <pp|pp>  ...          231 b.         0 skpd (  0.0%)     0.001 s. (  0.003 ms/b)
  <pp|pd>  ...          504 b.         0 skpd (  0.0%)     0.002 s. (  0.004 ms/b)
  <pp|dd>  ...          210 b.         0 skpd (  0.0%)     0.002 s. (  0.009 ms/b)
  <pd|pd>  ...          300 b.         0 skpd (  0.0%)     0.003 s. (  0.009 ms/b)
  <pd|dd>  ...          240 b.         0 skpd (  0.0%)     0.004 s. (  0.017 ms/b)
  <dd|dd>  ...           55 b.         0 skpd (  0.0%)     0.002 s. (  0.040 ms/b)


                                      INTEGRAL STATISTICS

Integral type statistics:
 Number of integrals retained            ...     536130 
 One   Center Integrals retained         ...     536130 (100.0%)
 Two   Center Integrals retained         ...          0 (  0.0%)
 Three Center Integrals retained         ...          0 (  0.0%)
 Four  Center Integrals retained         ...          0 (  0.0%)

Storage statistics:
 Number of char integrals                ...          0 (  0.0%)
 Number of short int integrals           ...          0 (  0.0%)
 Number of double/float integrals        ...     536130 (100.0%)
 Amount of memory used                   ...          6 MB
 Amount of memory estimated              ...          6 MB ( 95.8%)

Prescreening statistics:
 Total number of shell quadruples        ...      11781 
 Number of skipped shell quadruples      ...          0 (  0.0%)
 # of negligible batches done            ...          0 (  0.0%)

Timings:
 Total evaluation time               ...     0.192 sec (   0.003 min)
 One electron matrix time            ...     0.017 sec (   0.000 min) =  8.7%
 Schwartz matrix evaluation time     ...     0.070 sec (   0.001 min) = 36.2%
 Statistics run                      ...     0.004 sec (   0.000 min) =  2.2%
 Repulsion integral time             ...     0.026 sec (   0.000 min) = 13.7%

-------------------------------------------------------------------------------
                                 ORCA SCF
-------------------------------------------------------------------------------

------------
SCF SETTINGS
------------
Hamiltonian:
 Ab initio Hamiltonian  Method          .... Hartree-Fock(GTOs)


General Settings:
 Integral files         IntName         .... 74_W_atom74
 Hartree-Fock type      HFTyp           .... ROHF
 Total Charge           Charge          ....    0
 Multiplicity           Mult            ....    5
 Number of Electrons    NEL             ....   14
 Basis Dimension        Dim             ....   45
 Nuclear Repulsion      ENuc            ....      0.0000000000 Eh

Convergence Acceleration:
 DIIS                   CNVDIIS         .... on
   Start iteration      DIISMaxIt       ....    12
   Startup error        DIISStart       ....  0.200000
   # of expansion vecs  DIISMaxEq       ....     5
   Bias factor          DIISBfac        ....   1.050
   Max. coefficient     DIISMaxC        ....  10.000
 Newton-Raphson         CNVNR           .... off
 SOSCF                  CNVSOSCF        .... off
 Level Shifting         CNVShift        .... on
   Level shift para.    LevelShift      ....    0.5000
   Turn off err/grad.   ShiftErr        ....    0.0010
 Zerner damping         CNVZerner       .... off
 Static damping         CNVDamp         .... on
   Fraction old density DampFac         ....    0.7000
   Max. Damping (<1)    DampMax         ....    0.9800
   Min. Damping (>=0)   DampMin         ....    0.0000
   Turn off err/grad.   DampErr         ....    0.1000
 Fernandez-Rico         CNVRico         .... off

SCF Procedure:
 Maximum # iterations   MaxIter         ....  1000
 SCF integral mode      SCFMode         .... Conventional
 Integral Threshold     Thresh          ....  1.000e-10 Eh
 Primitive CutOff       TCut            ....  1.000e-11 Eh
 Integral Buffer length BufferLength    .... 1048576
 Integral index format  IndFormat       ....     0
 Integral value format  ValFormat       ....     0
 Integral Storage       Thresh          ....  1.000e-10 Eh

Convergence Tolerance:
 Convergence Check Mode ConvCheckMode   .... Total+1el-Energy
 Convergence forced     ConvForced      .... 0
 Energy Change          TolE            ....  1.000e-06 Eh
 1-El. energy change                    ....  1.000e-03 Eh
 DIIS Error             TolErr          ....  1.000e-06


Diagonalization of the overlap matrix:
Smallest eigenvalue                        ... 5.640e-03
Time for diagonalization                   ...    0.001 sec
Threshold for overlap eigenvalues          ... 1.000e-08
Number of eigenvalues below threshold      ... 0
Time for construction of square roots      ...    0.002 sec
Total time needed                          ...    0.003 sec

--------------------
INITIAL GUESS: HCORE
--------------------
AVERAGE-CONFIGURATION (SAHF) CASE FOUND

-------------------
FINAL ROHF SETTINGS
-------------------
Number of operators             ... 2
  operator   0:   5 orbitals  10 electrons n(mue)= 2.000
  operator   1:   5 orbitals   4 electrons n(mue)= 0.800
Vector coupling coefficients a and b (Zerner convention):
   1.000    1.000           1.000    1.000 
   1.000    0.938           1.000    1.875 

                      -----------------
                      INTIAL GUESS DONE 
                      -----------------

 InCore treatment chosen:
   Memory dedicated               ...    1024 MB
   Memory needed                  ...      6 MB
   Number of tiny    integrals    ...       0
   Number of small   integrals    ...       0
   Number of regular integrals    ...  536130

--------------
SCF ITERATIONS
--------------
ITER       Energy         Delta-E        Max-DP      RMS-DP      [F,P]     Damp
  0    -60.1092991760   0.000000000000 2.44564095  0.08915445  1.1677423 0.7000
  1    -64.3180890470  -4.208789870989 1.71226600  0.05873047  0.2072460 0.7000
                            ****Activating DIIS****
  2    -64.3814889250  -0.063399877990 3.99520044  0.12053331  0.0590032 0.0000
  3    -64.4531268771  -0.071637952066 0.02745091  0.00088860  0.2529626 0.7000
  4    -64.4241943144   0.028932562691 0.01814570  0.00058852  0.2705596 0.7000
  5    -64.4201868427   0.004007471684 0.05270411  0.00169470  0.2703798 0.7000
  6    -64.3824769865   0.037709856203 0.02223045  0.00072401  0.2869634 0.7000
  7    -64.3907615438  -0.008284557337 1.73144247  0.05555533  0.2777858 0.7000
  8    -65.8264541091  -1.435692565211 4.04003243  0.13372763  0.0746204 0.0000
  9    -65.9142436907  -0.087789581607 0.00408075  0.00015443  0.1833675 0.7000
 10    -65.8925791590   0.021664531660 0.00279690  0.00010562  0.1970028 0.7000
 11    -65.8894803009   0.003098858112 0.00190177  0.00007186  0.1969319 0.7000
 12    -65.8875210793   0.001959221555 0.00122420  0.00004620  0.1967929 0.7000
 13    -65.8866447723   0.000876307002 0.06430254  0.00246065  0.1964284 0.7000
 14    -66.0616245023  -0.174979729938 0.37565763  0.01223119  0.0610664 0.0000
 15    -66.1739151560  -0.112290653733 0.17851307  0.00447825  0.0488687 0.0000
 16    -66.1853139467  -0.011398790659 0.20324202  0.00482283  0.0322690 0.0000
 17    -66.1961540008  -0.010840054139 0.17812346  0.00398458  0.0295722 0.0000
 18    -66.2028758723  -0.006721871491 0.17446688  0.00399350  0.0276486 0.0000
 19    -66.2072518010  -0.004375928730 0.01182280  0.00027107  0.0268684 0.0000
 20    -66.2075724169  -0.000320615852 0.02243148  0.00056756  0.0279838 0.0000
 21    -66.2080251859  -0.000452769017 0.00909677  0.00026481  0.0282056 0.0000
 22    -66.2078701094   0.000155076469 0.00488439  0.00012763  0.0284507 0.0000
 23    -66.2077744040   0.000095705409 0.03732715  0.00093476  0.0285014 0.0000
 24    -66.2085470520  -0.000772647956 0.00928473  0.00025386  0.0289397 0.0000
 25    -66.2083789385   0.000168113425 0.02188255  0.00055132  0.0290755 0.0000
 26    -66.2088400113  -0.000461072787 0.02318480  0.00058798  0.0295168 0.0000
 27    -66.2083463443   0.000493667056 0.01958097  0.00048571  0.0291471 0.0000
 28    -66.2087742804  -0.000427936118 0.02548810  0.00065995  0.0296030 0.0000
 29    -66.2093097371  -0.000535456696 0.02728002  0.00070398  0.0301138 0.0000
 30    -66.2087244522   0.000585284882 0.01596498  0.00040406  0.0296062 0.0000
 31    -66.2090692975  -0.000344845245 0.00618376  0.00015796  0.0299954 0.0000
 32    -66.2092059729  -0.000136675453 0.02240361  0.00059091  0.0301590 0.0000
 33    -66.2096825928  -0.000476619912 0.01425554  0.00037628  0.0306240 0.0000
 34    -66.2093645167   0.000318076160 0.00251112  0.00006501  0.0303434 0.0000
 35    -66.2094196931  -0.000055176460 0.02290841  0.00059535  0.0304259 0.0000
 36    -66.2099032541  -0.000483561018 0.00086418  0.00002337  0.0309155 0.0000
 37    -66.2098791400   0.000024114159 0.01408610  0.00035450  0.0309020 0.0000
 38    -66.2101557495  -0.000276609567 0.00890075  0.00022459  0.0311800 0.0000
 39    -66.2099726218   0.000183127747 0.01699786  0.00042539  0.0310184 0.0000
 40    -66.2103107573  -0.000338135462 0.01368379  0.00033393  0.0313433 0.0000
 41    -66.2105656671  -0.000254909856 0.00331678  0.00008167  0.0315828 0.0000
 42    -66.2104972407   0.000068426388 0.01349013  0.00032621  0.0315310 0.0000
 43    -66.2107502119  -0.000252971199 0.00069976  0.00001660  0.0317507 0.0000
 44    -66.2107617444  -0.000011532514 0.01731893  0.00041150  0.0317641 0.0000
 45    -66.2110781236  -0.000316379153 0.00329206  0.00007721  0.0320176 0.0000
 46    -66.2111361775  -0.000058053929 0.00585920  0.00013781  0.0320627 0.0000
 47    -66.2112445532  -0.000108375671 0.01074172  0.00025122  0.0321373 0.0000
 48    -66.2114436472  -0.000199094014 0.00557128  0.00013012  0.0322638 0.0000
 49    -66.2115499377  -0.000106290530 0.01163115  0.00026976  0.0323225 0.0000
 50    -66.2117697251  -0.000219787380 0.00475384  0.00011080  0.0324356 0.0000
 51    -66.2118653629  -0.000095637799 0.00826142  0.00019226  0.0324736 0.0000
 52    -66.2120338489  -0.000168485963 0.00883458  0.00020599  0.0325326 0.0000
 53    -66.2122209870  -0.000187138139 0.00750800  0.00017645  0.0325834 0.0000
 54    -66.2123905823  -0.000169595294 0.00860138  0.00020313  0.0326132 0.0000
 55    -66.2125937214  -0.000203139065 0.00716902  0.00017241  0.0326345 0.0000
 56    -66.2127803615  -0.000186640161 0.00811083  0.00019764  0.0326347 0.0000
 57    -66.2130065031  -0.000226141547 0.00830238  0.00020712  0.0326186 0.0000
 58    -66.2132624427  -0.000255939594 0.00821066  0.00021217  0.0325787 0.0000
 59    -66.2135496605  -0.000287217775 0.00845777  0.00022885  0.0325092 0.0000
 60    -66.2138907528  -0.000341092342 0.00866755  0.00025094  0.0323992 0.0000
 61    -66.2143080692  -0.000417316391 0.00929945  0.00029565  0.0322319 0.0000
 62    -66.2148604439  -0.000552374666 0.01024583  0.00037459  0.0319703 0.0000
 63    -66.2156563593  -0.000795915437 0.01154357  0.00052438  0.0315385 0.0000
 64    -66.2169400526  -0.001283693260 0.01406797  0.00080770  0.0307589 0.0000
 65    -66.2192550975  -0.002315044906 0.02360015  0.00124009  0.0292120 0.0000
 66    -66.2234701720  -0.004215074581 0.03706487  0.00162606  0.0261413 0.0000
 67    -66.2299298647  -0.006459692627 0.04299753  0.00175822  0.0208080 0.0000
 68    -66.2376050462  -0.007675181491 0.04946167  0.00104774  0.0185375 0.0000
 69    -66.2406260279  -0.003020981774 0.02766906  0.00093454  0.0198133 0.0000
 70    -66.2380327118   0.002593316083 0.02163773  0.00077876  0.0192144 0.0000
 71    -66.2403240713  -0.002291359447 0.01575107  0.00059041  0.0197576 0.0000
 72    -66.2431417398  -0.002817668522 0.00689062  0.00016754  0.0204560 0.0000
 73    -66.2437772733  -0.000635533443 0.01547624  0.00032582  0.0205600 0.0000
 74    -66.2439217425  -0.000144469277 0.00641342  0.00013683  0.0206641 0.0000
 75    -66.2439641348  -0.000042392220 0.00623440  0.00020996  0.0207026 0.0000
 76    -66.2445230313  -0.000558896508 0.00555629  0.00021626  0.0206830 0.0000
 77    -66.2454597246  -0.000936693319 0.01429445  0.00031565  0.0205553 0.0000
 78    -66.2454210100   0.000038714591 0.00936352  0.00019452  0.0207271 0.0000
 79    -66.2456977168  -0.000276706827 0.01147894  0.00025995  0.0207871 0.0000
 80    -66.2457863029  -0.000088586131 0.00702927  0.00019733  0.0206379 0.0000
 81    -66.2466421960  -0.000855893042 0.00243440  0.00008243  0.0204722 0.0000
 82    -66.2462781840   0.000364011979 0.01006051  0.00020991  0.0206126 0.0000
 83    -66.2466644453  -0.000386261272 0.00593420  0.00021000  0.0206549 0.0000
 84    -66.2475907139  -0.000926268635 0.01255622  0.00034515  0.0202107 0.0000
 85    -66.2461424066   0.001448307344 0.00396994  0.00008890  0.0205994 0.0000
 86    -66.2464528794  -0.000310472836 0.00132521  0.00003321  0.0205705 0.0000
 87    -66.2463822275   0.000070651954 0.00114000  0.00004181  0.0206017 0.0000
 88    -66.2464673892  -0.000085161789 0.00572866  0.00013901  0.0205902 0.0000
 89    -66.2463425459   0.000124843355 0.02119789  0.00066201  0.0205515 0.0000
 90    -66.2492299273  -0.002887381420 0.02816364  0.00095909  0.0243153 0.0000
 91    -66.2447353456   0.004494581701 0.00054368  0.00002729  0.0207149 0.0000
 92    -66.2448284937  -0.000093148060 0.00062897  0.00002384  0.0207124 0.0000
 93    -66.2448619476  -0.000033453963 0.00076581  0.00001979  0.0207059 0.0000
 94    -66.2448683829  -0.000006435262 0.00009878  0.00000385  0.0206982 0.0000
 95    -66.2448806365  -0.000012253571 0.01777799  0.00059783  0.0206949 0.0000
 96    -66.2476377946  -0.002757158104 0.01464919  0.00049914  0.0205239 0.0000
 97    -66.2453271942   0.002310600393 0.00045669  0.00001579  0.0206913 0.0000
 98    -66.2453470490  -0.000019854807 0.00037305  0.00001294  0.0206831 0.0000
 99    -66.2453672402  -0.000020191201 0.00021713  0.00001140  0.0206751 0.0000
100    -66.2453955725  -0.000028332285 0.00037928  0.00001914  0.0206673 0.0000
101    -66.2454349288  -0.000039356284 0.01815862  0.00060272  0.0206563 0.0000
102    -66.2481966931  -0.002761764322 0.01893953  0.00063632  0.0224463 0.0000
103    -66.2452517918   0.002944901264 0.00057616  0.00001584  0.0206725 0.0000
104    -66.2452426325   0.000009159278 0.00056737  0.00001580  0.0206660 0.0000
105    -66.2452330580   0.000009574568 0.00060536  0.00001649  0.0206595 0.0000
106    -66.2452218804   0.000011177611 0.00055452  0.00001411  0.0206527 0.0000
107    -66.2452086305   0.000013249844 0.01979233  0.00063399  0.0206464 0.0000
108    -66.2480681754  -0.002859544928 0.01981781  0.00062758  0.0222027 0.0000
109    -66.2452572367   0.002810938704 0.00087378  0.00002458  0.0206383 0.0000
110    -66.2452446019   0.000012634878 0.00102464  0.00002894  0.0206274 0.0000
111    -66.2452287892   0.000015812691 0.00123063  0.00003510  0.0206146 0.0000
112    -66.2452088134   0.000019975778 0.00156158  0.00004556  0.0205991 0.0000
113    -66.2451833262   0.000025487234 0.02277645  0.00067698  0.0205795 0.0000
114    -66.2480764851  -0.002893158985 0.02283340  0.00067486  0.0226155 0.0000
115    -66.2452061565   0.002870328598 0.00178908  0.00005372  0.0205725 0.0000
116    -66.2451736129   0.000032543670 0.00211179  0.00006485  0.0205493 0.0000
117    -66.2451341044   0.000039508482 0.00247092  0.00007788  0.0205216 0.0000
118    -66.2450867765   0.000047327879 0.00281055  0.00009124  0.0204888 0.0000
119    -66.2450314979   0.000055278616 0.02842939  0.00078741  0.0204510 0.0000
120    -66.2480303167  -0.002998818818 0.02831385  0.00078365  0.0233234 0.0000
121    -66.2451016204   0.002928696288 0.00343119  0.00011677  0.0204261 0.0000
122    -66.2450273403   0.000074280098 0.00393789  0.00013866  0.0203781 0.0000
123    -66.2449396839   0.000087656394 0.00443472  0.00016248  0.0203237 0.0000
124    -66.2448390377   0.000100646245 0.00489663  0.00018815  0.0202643 0.0000
125    -66.2447276072   0.000111430473 0.03699753  0.00102720  0.0202027 0.0000
126    -66.2479079304  -0.003180323163 0.03415130  0.00096384  0.0252531 0.0000
127    -66.2449760514   0.002931878999 0.00529932  0.00021147  0.0201071 0.0000
128    -66.2448376873   0.000138364103 0.00560589  0.00023595  0.0200444 0.0000
129    -66.2446884392   0.000149248109 0.00582224  0.00026714  0.0200104 0.0000
130    -66.2445416142   0.000146824946 0.00547173  0.00030705  0.0200295 0.0000
131    -66.2444656793   0.000075934959 0.01829888  0.00061059  0.0201224 0.0000
132    -66.2469217684  -0.002456089165 0.02985225  0.00083753  0.0208043 0.0000
133    -66.2504555733  -0.003533804837 0.01839367  0.00050856  0.0213043 0.0000
134    -66.2525047131  -0.002049139839 0.01009273  0.00027895  0.0215018 0.0000
135    -66.2513721799   0.001132533161 0.00402517  0.00011188  0.0214042 0.0000
136    -66.2509218672   0.000450312759 0.00307565  0.00009932  0.0213578 0.0000
137    -66.2513430310  -0.000421163866 0.02442448  0.00068979  0.0214020 0.0000
138    -66.2543382863  -0.002995255249 0.00027471  0.00001053  0.0216852 0.0000
139    -66.2543817004  -0.000043414143 0.00158623  0.00005013  0.0216889 0.0000
140    -66.2546046813  -0.000222980824 0.00582521  0.00017222  0.0217069 0.0000
141    -66.2553782817  -0.000773600390 0.01041571  0.00030692  0.0217660 0.0000
142    -66.2567641128  -0.001385831110 0.01318492  0.00038940  0.0218600 0.0000
143    -66.2585342722  -0.001770159453 0.00212528  0.00006388  0.0219581 0.0000
144    -66.2588278908  -0.000293618630 0.00789267  0.00023911  0.0219720 0.0000
145    -66.2599330936  -0.001105202758 0.00988448  0.00030198  0.0220169 0.0000
146    -66.2613384419  -0.001405348287 0.01170524  0.00036127  0.0220591 0.0000
147    -66.2630325025  -0.001694060591 0.01224176  0.00038314  0.0220877 0.0000
148    -66.2648437035  -0.001811200967 0.01282443  0.00040849  0.0220907 0.0000
149    -66.2667901572  -0.001946453744 0.01851567  0.00060184  0.0220609 0.0000
150    -66.2696809329  -0.002890775752 0.03337085  0.00112462  0.0219514 0.0000
151    -66.2751326889  -0.005451755910 0.08953490  0.00340524  0.0215197 0.0000
152    -66.2914179134  -0.016285224578 0.07120432  0.00485419  0.0179956 0.0000
153    -66.3030930729  -0.011675159454 0.03510086  0.00239006  0.0119780 0.0000
154    -66.3015978519   0.001495221007 0.04050603  0.00270156  0.0120404 0.0000
155    -66.3051218831  -0.003524031229 0.00980423  0.00066200  0.0096929 0.0000
156    -66.3065653584  -0.001443475318 0.01142457  0.00065750  0.0046511 0.0000
157    -66.3073278058  -0.000762447354 0.01143238  0.00058685  0.0032599 0.0000
158    -66.3077207029  -0.000392897140 0.00522872  0.00026730  0.0014875 0.0000
159    -66.3078049807  -0.000084277788 0.00203985  0.00008951  0.0009359 0.0000
160    -66.3078199323  -0.000014951556 0.00178582  0.00007668  0.0006725 0.0000
161    -66.3078265717  -0.000006639440 0.00282841  0.00006801  0.0003879 0.0000
162    -66.3078288135  -0.000002241808 0.00210708  0.00004394  0.0001908 0.0000
                 **** Energy Check signals convergence ****

               *****************************************************
               *                     SUCCESS                       *
               *           SCF CONVERGED AFTER 163 CYCLES          *
               *****************************************************


----------------
TOTAL SCF ENERGY
----------------

Total Energy       :          -66.30782940 Eh           -1804.32777 eV

Components:
Nuclear Repulsion  :            0.00000000 Eh               0.00000 eV
Electronic Energy  :          -66.30782940 Eh           -1804.32777 eV
One Electron Energy:         -112.44605461 Eh           -3059.81270 eV
Two Electron Energy:           46.13822521 Eh            1255.48494 eV

Virial components:
Potential Energy   :          -89.15207257 Eh           -2425.95123 eV
Kinetic Energy     :           22.84424318 Eh             621.62346 eV
Virial Ratio       :            3.90260565


---------------
SCF CONVERGENCE
---------------

  Last Energy change         ...   -5.8367e-07  Tolerance :   1.0000e-06
  Last MAX-Density change    ...    1.4995e-03  Tolerance :   1.0000e-05
  Last RMS-Density change    ...    3.0559e-05  Tolerance :   1.0000e-06
  Last DIIS Error            ...    1.0403e-04  Tolerance :   1.0000e-06

             **** THE GBW FILE WAS UPDATED (74_W_atom74.gbw) ****
             **** DENSITY FILE WAS UPDATED (74_W_atom74.scfp) ****
             **** ENERGY FILE WAS UPDATED (74_W_atom74.en.tmp) ****
             **** THE GBW FILE WAS UPDATED (74_W_atom74.gbw) ****
             **** DENSITY FILE WAS UPDATED (74_W_atom74.scfp) ****
----------------
ORBITAL ENERGIES
----------------

  NO   OCC          E(Eh)            E(eV) 
   0   2.0000      -3.410205       -92.7964 
   1   2.0000      -1.889510       -51.4162 
   2   2.0000      -1.889478       -51.4153 
   3   2.0000      -1.889475       -51.4152 
   4   2.0000      -0.260311        -7.0834 
   5   0.8000      -0.373073       -10.1518 
   6   0.8000      -0.373065       -10.1516 
   7   0.8000      -0.373060       -10.1515 
   8   0.8000      -0.373013       -10.1502 
   9   0.8000      -0.373012       -10.1502 
  10   0.0000      -0.018162        -0.4942 
  11   0.0000      -0.018149        -0.4939 
  12   0.0000      -0.018148        -0.4938 
  13   0.0000       0.044836         1.2201 
  14   0.0000       0.044861         1.2207 
  15   0.0000       0.044864         1.2208 
  16   0.0000       0.062767         1.7080 
  17   0.0000       0.240959         6.5568 
  18   0.0000       0.240967         6.5570 
  19   0.0000       0.240971         6.5571 
  20   0.0000       0.241002         6.5580 
  21   0.0000       0.241002         6.5580 
  22   0.0000       0.262296         7.1374 
  23   0.0000       0.262354         7.1390 
  24   0.0000       0.262359         7.1392 
  25   0.0000       0.522578        14.2201 
  26   0.0000       1.090698        29.6794 
  27   0.0000       1.090780        29.6816 
  28   0.0000       1.090788        29.6819 
  29   0.0000       1.087268        29.5861 
  30   0.0000       1.087281        29.5864 
  31   0.0000       1.087287        29.5866 
  32   0.0000       1.087337        29.5880 
  33   0.0000       1.087337        29.5880 
  34   0.0000       2.769630        75.3655 
  35   0.0000       4.238550       115.3368 
  36   0.0000       4.238560       115.3371 
  37   0.0000       4.238564       115.3372 
  38   0.0000       4.238604       115.3383 
  39   0.0000       4.238604       115.3383 
  40   0.0000      40.414056      1099.7224 
  41   0.0000      40.414084      1099.7231 
  42   0.0000      40.414087      1099.7232 
  43   0.0000      76.902988      2092.6367 
  44   0.0000     604.539370     16450.3526 
CleanUpVectors: The p-vectors have cracked symmetry
CleanUpVectors: The p-vectors have cracked symmetry
CleanUpVectors: The p-vectors have cracked symmetry
CleanUpVectors: The d-vectors have cracked symmetry at i=5
CleanUpVectors: The d-vectors have cracked symmetry at i=6
CleanUpVectors: The d-vectors have cracked symmetry at i=7
CleanUpVectors: The d-vectors have cracked symmetry at i=8
CleanUpVectors: The d-vectors have cracked symmetry at i=9
CleanUpVectors: The p-vectors have cracked symmetry
CleanUpVectors: The p-vectors have cracked symmetry
CleanUpVectors: The p-vectors have cracked symmetry
CleanUpVectors: The p-vectors have cracked symmetry
CleanUpVectors: The p-vectors have cracked symmetry
CleanUpVectors: The p-vectors have cracked symmetry
CleanUpVectors: The d-vectors have cracked symmetry at i=17
CleanUpVectors: The d-vectors have cracked symmetry at i=18
CleanUpVectors: The d-vectors have cracked symmetry at i=19
CleanUpVectors: The d-vectors have cracked symmetry at i=20
CleanUpVectors: The d-vectors have cracked symmetry at i=21
CleanUpVectors: The p-vectors have cracked symmetry
CleanUpVectors: The p-vectors have cracked symmetry
CleanUpVectors: The p-vectors have cracked symmetry
CleanUpVectors: The p-vectors have cracked symmetry
CleanUpVectors: The p-vectors have cracked symmetry
CleanUpVectors: The p-vectors have cracked symmetry
CleanUpVectors: The d-vectors have cracked symmetry at i=29
CleanUpVectors: The d-vectors have cracked symmetry at i=30
CleanUpVectors: The d-vectors have cracked symmetry at i=31
CleanUpVectors: The d-vectors have cracked symmetry at i=32
CleanUpVectors: The d-vectors have cracked symmetry at i=33
CleanUpVectors: The d-vectors have cracked symmetry at i=35
CleanUpVectors: The d-vectors have cracked symmetry at i=36
CleanUpVectors: The d-vectors have cracked symmetry at i=37
CleanUpVectors: The d-vectors have cracked symmetry at i=38
CleanUpVectors: The d-vectors have cracked symmetry at i=39
CleanUpVectors: The p-vectors have cracked symmetry
CleanUpVectors: The p-vectors have cracked symmetry
CleanUpVectors: The p-vectors have cracked symmetry
--------------------------
ATOM BASIS FOR ELEMENT W 
--------------------------
 NewGTO W 
 S 10
    1         22.106487883000         0.647885571928
    2         18.958062620000        -1.521639240811
    3         13.128699049000         2.092178282632
    4         10.149417378000        -1.155025524980
    5          4.016032241400        -0.655205055229
    6          1.123449615800         0.798146740620
    7          0.535006628200         0.542302695981
    8          0.171274496600         0.036174072748
    9          0.080452897900        -0.007990567455
   10          0.033669872200         0.001638820926
 P 25
    1         17.000000000000        -0.008733293520
    2         12.431973432000         0.025184577169
    3          5.158621765800        -0.067893598018
    4          1.280145481200         0.119069680544
    5         17.000000000000        -0.003190922375
    6         12.431973432000         0.009201801200
    7          5.158621765800        -0.024806586489
    8          1.280145481200         0.043505019837
    9         17.000000000000        -0.035000722025
   10         12.431973432000         0.100933099620
   11          5.158621765800        -0.272099517348
   12          1.280145481200         0.477199670549
   13          0.628567909000         0.120376188591
   14          0.628567909000         0.043982384505
   15          0.628567909000         0.482435807966
   16          0.293804235500         0.039616234474
   17          0.293804235500         0.014474760147
   18          0.293804235500         0.158771350968
   19          0.100000000000         0.002599103558
   20          0.100000000000         0.000949646050
   21          0.100000000000         0.010416517085
   22          0.041700000000        -0.000189980230
   23          0.041700000000        -0.000069413923
   24          0.041700000000        -0.000761390328
   25          0.020637836700         0.000076861465
 S 10
    1         22.106487883000         0.210782333452
    2         18.958062620000        -0.495048329130
    3         13.128699049000         0.680666833031
    4         10.149417378000        -0.375774652038
    5          4.016032241400        -0.230679155605
    6          1.123449615800         0.346372497069
    7          0.535006628200         0.396590484219
    8          0.171274496600        -0.189661750365
    9          0.080452897900        -0.680652336521
   10          0.033669872200        -0.350129882513
 D 25
    1         22.106487883000        -0.000003483153
    2         18.958062620000         0.000009539196
    3         13.128699049000        -0.000018939610
    4         10.149417378000         0.000013525225
    5          4.016032241400         0.000021110648
    6          1.123449615800        -0.000119837699
    7          0.535006628200        -0.000260871644
    8          0.171274496600         0.000694855137
    9          0.080452897900         0.003582036748
   10          0.033669872200        -0.001932535624
   11          7.406473731500        -0.017155984861
   12          5.902626860300         0.034841963568
   13          1.298475675000        -0.108752229540
   14          7.406473731500         0.000470851911
   15          5.902626860300        -0.000956249686
   16          1.298475675000         0.002984742382
   17          7.406473731500         0.016488393626
   18          5.902626860300        -0.033486157436
   19          1.298475675000         0.104520351525
   20          7.406473731500        -0.031866132172
   21          5.902626860300         0.064716693633
   22          1.298475675000        -0.202000231915
   23          7.406473731500         0.006118745828
   24          5.902626860300        -0.012426515933
   25          1.298475675000         0.038786887268
 S 10
    1         22.106487883000         5.168531733802
    2         18.958062620000       -12.138934781528
    3         13.128699049000        16.690431636521
    4         10.149417378000        -9.214259952483
    5          4.016032241400        -1.957036238656
    6          1.123449615800         2.362154397577
    7          0.535006628200        -1.908070898977
    8          0.171274496600         1.074501268768
    9          0.080452897900        -0.680169024113
   10          0.033669872200         0.186499099201
 S 10
    1         22.106487883000         5.771393236233
    2         18.958062620000       -13.554829437342
    3         13.128699049000        18.637216373625
    4         10.149417378000       -10.289018294858
    5          4.016032241400         0.169268391087
    6          1.123449615800         0.315585422723
    7          0.535006628200        -0.283521916591
    8          0.171274496600         0.168559893778
    9          0.080452897900        -0.108180064745
   10          0.033669872200         0.029889999515
 D 25
    1          7.406473731500         0.007825514926
    2          5.902626860300        -0.015892780750
    3          1.298475675000         0.049606140505
    4          7.406473731500        -0.006931760128
    5          5.902626860300         0.014077660700
    6          1.298475675000        -0.043940605840
    7          7.406473731500         0.017762309536
    8          5.902626860300        -0.036073343896
    9          1.298475675000         0.112595737264
   10          7.406473731500        -0.001753622348
   11          5.902626860300         0.003561418739
   12          1.298475675000        -0.011116257196
   13          7.406473731500        -0.034522575496
   14          5.902626860300         0.070111644857
   15          1.298475675000        -0.218839494510
   16          0.571535085400         0.085749412454
   17          0.571535085400        -0.075955942053
   18          0.571535085400         0.194633531594
   19          0.571535085400        -0.019215615518
   20          0.571535085400        -0.378287000058
   21          0.238455266100         0.074024145020
   22          0.238455266100        -0.065569821516
   23          0.238455266100         0.168019585863
   24          0.238455266100        -0.016588096280
   25          0.238455266100        -0.326560508698
 P 25
    1         17.000000000000         0.001948732283
    2         12.431973432000        -0.005619643776
    3          5.158621765800         0.015149662151
    4          1.280145481200        -0.026569006288
    5         17.000000000000        -0.003701825843
    6         12.431973432000         0.010675115681
    7          5.158621765800        -0.028778407038
    8          1.280145481200         0.050470675183
    9         17.000000000000        -0.000148757278
   10         12.431973432000         0.000428977813
   11          5.158621765800        -0.001156455676
   12          1.280145481200         0.002028155996
   13          0.628567909000        -0.040145634746
   14          0.628567909000         0.076260936117
   15          0.628567909000         0.003064533500
   16          0.293804235500        -0.015920222500
   17          0.293804235500         0.030242169010
   18          0.293804235500         0.001215276716
   19          0.100000000000         0.138363395341
   20          0.100000000000        -0.262836099612
   21          0.100000000000        -0.010562026553
   22          0.041700000000        -0.161507668250
   23          0.041700000000         0.306801126669
   24          0.041700000000         0.012328754121
   25          0.020637836700         0.537413307349
 P 25
    1         17.000000000000         0.003074269667
    2         12.431973432000        -0.008865404729
    3          5.158621765800         0.023899715325
    4          1.280145481200        -0.041914577396
    5         17.000000000000        -0.005839904979
    6         12.431973432000         0.016840787186
    7          5.158621765800        -0.045400072744
    8          1.280145481200         0.079621235523
    9         17.000000000000        -0.000234675616
   10         12.431973432000         0.000676744247
   11          5.158621765800        -0.001824394413
   12          1.280145481200         0.003199566179
   13          0.628567909000        -0.086993190955
   14          0.628567909000         0.165252897115
   15          0.628567909000         0.006640660336
   16          0.293804235500         0.067295984206
   17          0.293804235500        -0.127835940170
   18          0.293804235500        -0.005137066110
   19          0.100000000000        -0.144722494095
   20          0.100000000000         0.274915900477
   21          0.100000000000         0.011047449986
   22          0.041700000000         1.078789516129
   23          0.041700000000        -2.049276396928
   24          0.041700000000        -0.082349833034
   25          0.020637836700        -0.865657361012
 D 25
    1         22.106487883000         0.000000133594
    2         18.958062620000        -0.000000365869
    3         13.128699049000         0.000000726415
    4         10.149417378000        -0.000000518750
    5          4.016032241400        -0.000000897105
    6          1.123449615800         0.000014670614
    7          0.535006628200        -0.000065821732
    8          0.171274496600         0.000786364300
    9          0.080452897900        -0.002662979304
   10          0.033669872200         0.002973223400
   11          7.406473731500        -0.011006778786
   12          5.902626860300         0.022353586144
   13          1.298475675000        -0.069772253985
   14          7.406473731500        -0.001278620520
   15          5.902626860300         0.002596741018
   16          1.298475675000        -0.008105208383
   17          7.406473731500         0.010145174653
   18          5.902626860300        -0.020603760641
   19          1.298475675000         0.064310523209
   20          7.406473731500        -0.018240002706
   21          5.902626860300         0.037043487444
   22          1.298475675000        -0.115623846563
   23          7.406473731500         0.003908085751
   24          5.902626860300        -0.007936902630
   25          1.298475675000         0.024773456151
 P 25
    1         17.000000000000        -0.008636113039
    2         12.431973432000         0.024904333605
    3          5.158621765800        -0.067138106125
    4          1.280145481200         0.117744722359
    5         17.000000000000        -0.004649890282
    6         12.431973432000         0.013409090212
    7          5.158621765800        -0.036148765751
    8          1.280145481200         0.063396581056
    9         17.000000000000         0.002578779633
   10         12.431973432000        -0.007436538636
   11          5.158621765800         0.020047720533
   12          1.280145481200        -0.035159068736
   13          0.628567909000         0.122856361132
   14          0.628567909000         0.066148809906
   15          0.628567909000        -0.036685425547
   16          0.293804235500         0.401960159717
   17          0.293804235500         0.216424985649
   18          0.293804235500        -0.120026992304
   19          0.100000000000        -2.265650159883
   20          0.100000000000        -1.219880357506
   21          0.100000000000         0.676532655616
   22          0.041700000000         2.708851223580
   23          0.041700000000         1.458510434472
   24          0.041700000000        -0.808874355101
   25          0.020637836700        -1.189757058632
 P 25
    1         17.000000000000        -0.023467082507
    2         12.431973432000         0.067673043282
    3          5.158621765800        -0.182435717160
    4          1.280145481200         0.319950086548
    5         17.000000000000        -0.012635241118
    6         12.431973432000         0.036436792634
    7          5.158621765800        -0.098227773910
    8          1.280145481200         0.172268814754
    9         17.000000000000         0.007007369539
   10         12.431973432000        -0.020207455355
   11          5.158621765800         0.054476072465
   12          1.280145481200        -0.095538441547
   13          0.628567909000         1.295633968942
   14          0.628567909000         0.697600461976
   15          0.628567909000        -0.386881752539
   16          0.293804235500        -2.692810919226
   17          0.293804235500        -1.449874105107
   18          0.293804235500         0.804084666395
   19          0.100000000000         2.250142742058
   20          0.100000000000         1.211530921541
   21          0.100000000000        -0.671902086838
   22          0.041700000000        -1.548269339168
   23          0.041700000000        -0.833625415941
   24          0.041700000000         0.462319736668
   25          0.020637836700         0.592489858801
 D 25
    1          7.406473731500        -0.005923894546
    2          5.902626860300         0.012030793898
    3          1.298475675000        -0.037551719981
    4          7.406473731500        -0.003091137258
    5          5.902626860300         0.006277767939
    6          1.298475675000        -0.019594798629
    7          7.406473731500        -0.012685827114
    8          5.902626860300         0.025763553053
    9          1.298475675000        -0.080415784546
   10          7.406473731500        -0.004765834306
   11          5.902626860300         0.009678897865
   12          1.298475675000        -0.030210746312
   13          7.406473731500        -0.007007084993
   14          5.902626860300         0.014230637415
   15          1.298475675000        -0.044418092100
   16          0.571535085400        -0.455766558992
   17          0.571535085400        -0.237822766831
   18          0.571535085400        -0.976009232852
   19          0.571535085400        -0.366668900860
   20          0.571535085400        -0.539103961246
   21          0.238455266100         0.691309452959
   22          0.238455266100         0.360731000543
   23          0.238455266100         1.480416664043
   24          0.238455266100         0.556165590190
   25          0.238455266100         0.817716125030
 D 25
    1          7.406473731500        -0.113788085240
    2          5.902626860300         0.231091386043
    3          1.298475675000        -0.721305600669
    4          7.406473731500        -0.059375565880
    5          5.902626860300         0.120585400373
    6          1.298475675000        -0.376383240144
    7          7.406473731500        -0.243673475958
    8          5.902626860300         0.494874671479
    9          1.298475675000        -1.544652435035
   10          7.406473731500        -0.091543688937
   11          5.902626860300         0.185915405075
   12          1.298475675000        -0.580297800049
   13          7.406473731500        -0.134594358191
   14          5.902626860300         0.273346692868
   15          1.298475675000        -0.853197100359
   16          0.571535085400         0.882992648264
   17          0.571535085400         0.460752881536
   18          0.571535085400         1.890899977753
   19          0.571535085400         0.710376698547
   20          0.571535085400         1.044448797344
   21          0.238455266100        -0.484368548819
   22          0.238455266100        -0.252747522907
   23          0.238455266100        -1.037259460753
   24          0.238455266100        -0.389679496502
   25          0.238455266100        -0.572935855446
 P 25
    1         17.000000000000        -0.205679813800
    2         12.431973432000         0.593127796656
    3          5.158621765800        -1.598977816029
    4          1.280145481200         2.804237561545
    5         17.000000000000        -0.110742941753
    6         12.431973432000         0.319354222584
    7          5.158621765800        -0.860927982545
    8          1.280145481200         1.509868718775
    9         17.000000000000         0.061416862142
   10         12.431973432000        -0.177110468191
   11          5.158621765800         0.477461537329
   12          1.280145481200        -0.837357193920
   13          0.628567909000        -3.704635209610
   14          0.628567909000        -1.994664394404
   15          0.628567909000         1.106219739068
   16          0.293804235500         2.353956533875
   17          0.293804235500         1.267426620552
   18          0.293804235500        -0.702901374993
   19          0.100000000000        -1.161558909461
   20          0.100000000000        -0.625411158619
   21          0.100000000000         0.346846402151
   22          0.041700000000         0.755805362298
   23          0.041700000000         0.406943723194
   24          0.041700000000        -0.225686677193
   25          0.020637836700        -0.295066661961
 end
  // -----------------------------------------------
  // The basis set
  // -----------------------------------------------
  BAS[ATNO] = new BFNGauss[NSH];
  // Basis function   1 L = s
  InitBFNGauss(BAS[ATNO][  0]);
  BAS[ATNO][  0].l  = 0;
  BAS[ATNO][  0].ng = 10;
  BAS[ATNO][  0].a[  0] =        22.106487883000;     BAS[ATNO][  0].d[  0] =         0.647885571928;
  BAS[ATNO][  0].a[  1] =        18.958062620000;     BAS[ATNO][  0].d[  1] =        -1.521639240811;
  BAS[ATNO][  0].a[  2] =        13.128699049000;     BAS[ATNO][  0].d[  2] =         2.092178282632;
  BAS[ATNO][  0].a[  3] =        10.149417378000;     BAS[ATNO][  0].d[  3] =        -1.155025524980;
  BAS[ATNO][  0].a[  4] =         4.016032241400;     BAS[ATNO][  0].d[  4] =        -0.655205055229;
  BAS[ATNO][  0].a[  5] =         1.123449615800;     BAS[ATNO][  0].d[  5] =         0.798146740620;
  BAS[ATNO][  0].a[  6] =         0.535006628200;     BAS[ATNO][  0].d[  6] =         0.542302695981;
  BAS[ATNO][  0].a[  7] =         0.171274496600;     BAS[ATNO][  0].d[  7] =         0.036174072748;
  BAS[ATNO][  0].a[  8] =         0.080452897900;     BAS[ATNO][  0].d[  8] =        -0.007990567455;
  BAS[ATNO][  0].a[  9] =         0.033669872200;     BAS[ATNO][  0].d[  9] =         0.001638820926;

  // Basis function   2 L = p
  InitBFNGauss(BAS[ATNO][  1]);
  BAS[ATNO][  1].l  = 1;
  BAS[ATNO][  1].ng = 25;
  BAS[ATNO][  1].a[  0] =        17.000000000000;     BAS[ATNO][  1].d[  0] =        -0.008733293520;
  BAS[ATNO][  1].a[  1] =        12.431973432000;     BAS[ATNO][  1].d[  1] =         0.025184577169;
  BAS[ATNO][  1].a[  2] =         5.158621765800;     BAS[ATNO][  1].d[  2] =        -0.067893598018;
  BAS[ATNO][  1].a[  3] =         1.280145481200;     BAS[ATNO][  1].d[  3] =         0.119069680544;
  BAS[ATNO][  1].a[  4] =        17.000000000000;     BAS[ATNO][  1].d[  4] =        -0.003190922375;
  BAS[ATNO][  1].a[  5] =        12.431973432000;     BAS[ATNO][  1].d[  5] =         0.009201801200;
  BAS[ATNO][  1].a[  6] =         5.158621765800;     BAS[ATNO][  1].d[  6] =        -0.024806586489;
  BAS[ATNO][  1].a[  7] =         1.280145481200;     BAS[ATNO][  1].d[  7] =         0.043505019837;
  BAS[ATNO][  1].a[  8] =        17.000000000000;     BAS[ATNO][  1].d[  8] =        -0.035000722025;
  BAS[ATNO][  1].a[  9] =        12.431973432000;     BAS[ATNO][  1].d[  9] =         0.100933099620;
  BAS[ATNO][  1].a[ 10] =         5.158621765800;     BAS[ATNO][  1].d[ 10] =        -0.272099517348;
  BAS[ATNO][  1].a[ 11] =         1.280145481200;     BAS[ATNO][  1].d[ 11] =         0.477199670549;
  BAS[ATNO][  1].a[ 12] =         0.628567909000;     BAS[ATNO][  1].d[ 12] =         0.120376188591;
  BAS[ATNO][  1].a[ 13] =         0.628567909000;     BAS[ATNO][  1].d[ 13] =         0.043982384505;
  BAS[ATNO][  1].a[ 14] =         0.628567909000;     BAS[ATNO][  1].d[ 14] =         0.482435807966;
  BAS[ATNO][  1].a[ 15] =         0.293804235500;     BAS[ATNO][  1].d[ 15] =         0.039616234474;
  BAS[ATNO][  1].a[ 16] =         0.293804235500;     BAS[ATNO][  1].d[ 16] =         0.014474760147;
  BAS[ATNO][  1].a[ 17] =         0.293804235500;     BAS[ATNO][  1].d[ 17] =         0.158771350968;
  BAS[ATNO][  1].a[ 18] =         0.100000000000;     BAS[ATNO][  1].d[ 18] =         0.002599103558;
  BAS[ATNO][  1].a[ 19] =         0.100000000000;     BAS[ATNO][  1].d[ 19] =         0.000949646050;
  BAS[ATNO][  1].a[ 20] =         0.100000000000;     BAS[ATNO][  1].d[ 20] =         0.010416517085;
  BAS[ATNO][  1].a[ 21] =         0.041700000000;     BAS[ATNO][  1].d[ 21] =        -0.000189980230;
  BAS[ATNO][  1].a[ 22] =         0.041700000000;     BAS[ATNO][  1].d[ 22] =        -0.000069413923;
  BAS[ATNO][  1].a[ 23] =         0.041700000000;     BAS[ATNO][  1].d[ 23] =        -0.000761390328;
  BAS[ATNO][  1].a[ 24] =         0.020637836700;     BAS[ATNO][  1].d[ 24] =         0.000076861465;

  // Basis function   3 L = s
  InitBFNGauss(BAS[ATNO][  2]);
  BAS[ATNO][  2].l  = 0;
  BAS[ATNO][  2].ng = 10;
  BAS[ATNO][  2].a[  0] =        22.106487883000;     BAS[ATNO][  2].d[  0] =         0.210782333452;
  BAS[ATNO][  2].a[  1] =        18.958062620000;     BAS[ATNO][  2].d[  1] =        -0.495048329130;
  BAS[ATNO][  2].a[  2] =        13.128699049000;     BAS[ATNO][  2].d[  2] =         0.680666833031;
  BAS[ATNO][  2].a[  3] =        10.149417378000;     BAS[ATNO][  2].d[  3] =        -0.375774652038;
  BAS[ATNO][  2].a[  4] =         4.016032241400;     BAS[ATNO][  2].d[  4] =        -0.230679155605;
  BAS[ATNO][  2].a[  5] =         1.123449615800;     BAS[ATNO][  2].d[  5] =         0.346372497069;
  BAS[ATNO][  2].a[  6] =         0.535006628200;     BAS[ATNO][  2].d[  6] =         0.396590484219;
  BAS[ATNO][  2].a[  7] =         0.171274496600;     BAS[ATNO][  2].d[  7] =        -0.189661750365;
  BAS[ATNO][  2].a[  8] =         0.080452897900;     BAS[ATNO][  2].d[  8] =        -0.680652336521;
  BAS[ATNO][  2].a[  9] =         0.033669872200;     BAS[ATNO][  2].d[  9] =        -0.350129882513;

  // Basis function   4 L = d
  InitBFNGauss(BAS[ATNO][  3]);
  BAS[ATNO][  3].l  = 2;
  BAS[ATNO][  3].ng = 25;
  BAS[ATNO][  3].a[  0] =        22.106487883000;     BAS[ATNO][  3].d[  0] =         0.000003483153;
  BAS[ATNO][  3].a[  1] =        18.958062620000;     BAS[ATNO][  3].d[  1] =        -0.000009539196;
  BAS[ATNO][  3].a[  2] =        13.128699049000;     BAS[ATNO][  3].d[  2] =         0.000018939610;
  BAS[ATNO][  3].a[  3] =        10.149417378000;     BAS[ATNO][  3].d[  3] =        -0.000013525225;
  BAS[ATNO][  3].a[  4] =         4.016032241400;     BAS[ATNO][  3].d[  4] =        -0.000021110648;
  BAS[ATNO][  3].a[  5] =         1.123449615800;     BAS[ATNO][  3].d[  5] =         0.000119837699;
  BAS[ATNO][  3].a[  6] =         0.535006628200;     BAS[ATNO][  3].d[  6] =         0.000260871644;
  BAS[ATNO][  3].a[  7] =         0.171274496600;     BAS[ATNO][  3].d[  7] =        -0.000694855137;
  BAS[ATNO][  3].a[  8] =         0.080452897900;     BAS[ATNO][  3].d[  8] =        -0.003582036748;
  BAS[ATNO][  3].a[  9] =         0.033669872200;     BAS[ATNO][  3].d[  9] =         0.001932535624;
  BAS[ATNO][  3].a[ 10] =         7.406473731500;     BAS[ATNO][  3].d[ 10] =         0.017155984861;
  BAS[ATNO][  3].a[ 11] =         5.902626860300;     BAS[ATNO][  3].d[ 11] =        -0.034841963568;
  BAS[ATNO][  3].a[ 12] =         1.298475675000;     BAS[ATNO][  3].d[ 12] =         0.108752229540;
  BAS[ATNO][  3].a[ 13] =         7.406473731500;     BAS[ATNO][  3].d[ 13] =        -0.000470851911;
  BAS[ATNO][  3].a[ 14] =         5.902626860300;     BAS[ATNO][  3].d[ 14] =         0.000956249686;
  BAS[ATNO][  3].a[ 15] =         1.298475675000;     BAS[ATNO][  3].d[ 15] =        -0.002984742382;
  BAS[ATNO][  3].a[ 16] =         7.406473731500;     BAS[ATNO][  3].d[ 16] =        -0.016488393626;
  BAS[ATNO][  3].a[ 17] =         5.902626860300;     BAS[ATNO][  3].d[ 17] =         0.033486157436;
  BAS[ATNO][  3].a[ 18] =         1.298475675000;     BAS[ATNO][  3].d[ 18] =        -0.104520351525;
  BAS[ATNO][  3].a[ 19] =         7.406473731500;     BAS[ATNO][  3].d[ 19] =         0.031866132172;
  BAS[ATNO][  3].a[ 20] =         5.902626860300;     BAS[ATNO][  3].d[ 20] =        -0.064716693633;
  BAS[ATNO][  3].a[ 21] =         1.298475675000;     BAS[ATNO][  3].d[ 21] =         0.202000231915;
  BAS[ATNO][  3].a[ 22] =         7.406473731500;     BAS[ATNO][  3].d[ 22] =        -0.006118745828;
  BAS[ATNO][  3].a[ 23] =         5.902626860300;     BAS[ATNO][  3].d[ 23] =         0.012426515933;
  BAS[ATNO][  3].a[ 24] =         1.298475675000;     BAS[ATNO][  3].d[ 24] =        -0.038786887268;

  // Basis function   5 L = s
  InitBFNGauss(BAS[ATNO][  4]);
  BAS[ATNO][  4].l  = 0;
  BAS[ATNO][  4].ng = 10;
  BAS[ATNO][  4].a[  0] =        22.106487883000;     BAS[ATNO][  4].d[  0] =         5.168531733802;
  BAS[ATNO][  4].a[  1] =        18.958062620000;     BAS[ATNO][  4].d[  1] =       -12.138934781528;
  BAS[ATNO][  4].a[  2] =        13.128699049000;     BAS[ATNO][  4].d[  2] =        16.690431636521;
  BAS[ATNO][  4].a[  3] =        10.149417378000;     BAS[ATNO][  4].d[  3] =        -9.214259952483;
  BAS[ATNO][  4].a[  4] =         4.016032241400;     BAS[ATNO][  4].d[  4] =        -1.957036238656;
  BAS[ATNO][  4].a[  5] =         1.123449615800;     BAS[ATNO][  4].d[  5] =         2.362154397577;
  BAS[ATNO][  4].a[  6] =         0.535006628200;     BAS[ATNO][  4].d[  6] =        -1.908070898977;
  BAS[ATNO][  4].a[  7] =         0.171274496600;     BAS[ATNO][  4].d[  7] =         1.074501268768;
  BAS[ATNO][  4].a[  8] =         0.080452897900;     BAS[ATNO][  4].d[  8] =        -0.680169024113;
  BAS[ATNO][  4].a[  9] =         0.033669872200;     BAS[ATNO][  4].d[  9] =         0.186499099201;

  // Basis function   6 L = s
  InitBFNGauss(BAS[ATNO][  5]);
  BAS[ATNO][  5].l  = 0;
  BAS[ATNO][  5].ng = 10;
  BAS[ATNO][  5].a[  0] =        22.106487883000;     BAS[ATNO][  5].d[  0] =         5.771393236233;
  BAS[ATNO][  5].a[  1] =        18.958062620000;     BAS[ATNO][  5].d[  1] =       -13.554829437342;
  BAS[ATNO][  5].a[  2] =        13.128699049000;     BAS[ATNO][  5].d[  2] =        18.637216373625;
  BAS[ATNO][  5].a[  3] =        10.149417378000;     BAS[ATNO][  5].d[  3] =       -10.289018294858;
  BAS[ATNO][  5].a[  4] =         4.016032241400;     BAS[ATNO][  5].d[  4] =         0.169268391087;
  BAS[ATNO][  5].a[  5] =         1.123449615800;     BAS[ATNO][  5].d[  5] =         0.315585422723;
  BAS[ATNO][  5].a[  6] =         0.535006628200;     BAS[ATNO][  5].d[  6] =        -0.283521916591;
  BAS[ATNO][  5].a[  7] =         0.171274496600;     BAS[ATNO][  5].d[  7] =         0.168559893778;
  BAS[ATNO][  5].a[  8] =         0.080452897900;     BAS[ATNO][  5].d[  8] =        -0.108180064745;
  BAS[ATNO][  5].a[  9] =         0.033669872200;     BAS[ATNO][  5].d[  9] =         0.029889999515;

  // Basis function   7 L = d
  InitBFNGauss(BAS[ATNO][  6]);
  BAS[ATNO][  6].l  = 2;
  BAS[ATNO][  6].ng = 25;
  BAS[ATNO][  6].a[  0] =         7.406473731500;     BAS[ATNO][  6].d[  0] =        -0.007825514926;
  BAS[ATNO][  6].a[  1] =         5.902626860300;     BAS[ATNO][  6].d[  1] =         0.015892780750;
  BAS[ATNO][  6].a[  2] =         1.298475675000;     BAS[ATNO][  6].d[  2] =        -0.049606140505;
  BAS[ATNO][  6].a[  3] =         7.406473731500;     BAS[ATNO][  6].d[  3] =         0.006931760128;
  BAS[ATNO][  6].a[  4] =         5.902626860300;     BAS[ATNO][  6].d[  4] =        -0.014077660700;
  BAS[ATNO][  6].a[  5] =         1.298475675000;     BAS[ATNO][  6].d[  5] =         0.043940605840;
  BAS[ATNO][  6].a[  6] =         7.406473731500;     BAS[ATNO][  6].d[  6] =        -0.017762309536;
  BAS[ATNO][  6].a[  7] =         5.902626860300;     BAS[ATNO][  6].d[  7] =         0.036073343896;
  BAS[ATNO][  6].a[  8] =         1.298475675000;     BAS[ATNO][  6].d[  8] =        -0.112595737264;
  BAS[ATNO][  6].a[  9] =         7.406473731500;     BAS[ATNO][  6].d[  9] =         0.001753622348;
  BAS[ATNO][  6].a[ 10] =         5.902626860300;     BAS[ATNO][  6].d[ 10] =        -0.003561418739;
  BAS[ATNO][  6].a[ 11] =         1.298475675000;     BAS[ATNO][  6].d[ 11] =         0.011116257196;
  BAS[ATNO][  6].a[ 12] =         7.406473731500;     BAS[ATNO][  6].d[ 12] =         0.034522575496;
  BAS[ATNO][  6].a[ 13] =         5.902626860300;     BAS[ATNO][  6].d[ 13] =        -0.070111644857;
  BAS[ATNO][  6].a[ 14] =         1.298475675000;     BAS[ATNO][  6].d[ 14] =         0.218839494510;
  BAS[ATNO][  6].a[ 15] =         0.571535085400;     BAS[ATNO][  6].d[ 15] =        -0.085749412454;
  BAS[ATNO][  6].a[ 16] =         0.571535085400;     BAS[ATNO][  6].d[ 16] =         0.075955942053;
  BAS[ATNO][  6].a[ 17] =         0.571535085400;     BAS[ATNO][  6].d[ 17] =        -0.194633531594;
  BAS[ATNO][  6].a[ 18] =         0.571535085400;     BAS[ATNO][  6].d[ 18] =         0.019215615518;
  BAS[ATNO][  6].a[ 19] =         0.571535085400;     BAS[ATNO][  6].d[ 19] =         0.378287000058;
  BAS[ATNO][  6].a[ 20] =         0.238455266100;     BAS[ATNO][  6].d[ 20] =        -0.074024145020;
  BAS[ATNO][  6].a[ 21] =         0.238455266100;     BAS[ATNO][  6].d[ 21] =         0.065569821516;
  BAS[ATNO][  6].a[ 22] =         0.238455266100;     BAS[ATNO][  6].d[ 22] =        -0.168019585863;
  BAS[ATNO][  6].a[ 23] =         0.238455266100;     BAS[ATNO][  6].d[ 23] =         0.016588096280;
  BAS[ATNO][  6].a[ 24] =         0.238455266100;     BAS[ATNO][  6].d[ 24] =         0.326560508698;

  // Basis function   8 L = p
  InitBFNGauss(BAS[ATNO][  7]);
  BAS[ATNO][  7].l  = 1;
  BAS[ATNO][  7].ng = 25;
  BAS[ATNO][  7].a[  0] =        17.000000000000;     BAS[ATNO][  7].d[  0] =         0.001948732283;
  BAS[ATNO][  7].a[  1] =        12.431973432000;     BAS[ATNO][  7].d[  1] =        -0.005619643776;
  BAS[ATNO][  7].a[  2] =         5.158621765800;     BAS[ATNO][  7].d[  2] =         0.015149662151;
  BAS[ATNO][  7].a[  3] =         1.280145481200;     BAS[ATNO][  7].d[  3] =        -0.026569006288;
  BAS[ATNO][  7].a[  4] =        17.000000000000;     BAS[ATNO][  7].d[  4] =        -0.003701825843;
  BAS[ATNO][  7].a[  5] =        12.431973432000;     BAS[ATNO][  7].d[  5] =         0.010675115681;
  BAS[ATNO][  7].a[  6] =         5.158621765800;     BAS[ATNO][  7].d[  6] =        -0.028778407038;
  BAS[ATNO][  7].a[  7] =         1.280145481200;     BAS[ATNO][  7].d[  7] =         0.050470675183;
  BAS[ATNO][  7].a[  8] =        17.000000000000;     BAS[ATNO][  7].d[  8] =        -0.000148757278;
  BAS[ATNO][  7].a[  9] =        12.431973432000;     BAS[ATNO][  7].d[  9] =         0.000428977813;
  BAS[ATNO][  7].a[ 10] =         5.158621765800;     BAS[ATNO][  7].d[ 10] =        -0.001156455676;
  BAS[ATNO][  7].a[ 11] =         1.280145481200;     BAS[ATNO][  7].d[ 11] =         0.002028155996;
  BAS[ATNO][  7].a[ 12] =         0.628567909000;     BAS[ATNO][  7].d[ 12] =        -0.040145634746;
  BAS[ATNO][  7].a[ 13] =         0.628567909000;     BAS[ATNO][  7].d[ 13] =         0.076260936117;
  BAS[ATNO][  7].a[ 14] =         0.628567909000;     BAS[ATNO][  7].d[ 14] =         0.003064533500;
  BAS[ATNO][  7].a[ 15] =         0.293804235500;     BAS[ATNO][  7].d[ 15] =        -0.015920222500;
  BAS[ATNO][  7].a[ 16] =         0.293804235500;     BAS[ATNO][  7].d[ 16] =         0.030242169010;
  BAS[ATNO][  7].a[ 17] =         0.293804235500;     BAS[ATNO][  7].d[ 17] =         0.001215276716;
  BAS[ATNO][  7].a[ 18] =         0.100000000000;     BAS[ATNO][  7].d[ 18] =         0.138363395341;
  BAS[ATNO][  7].a[ 19] =         0.100000000000;     BAS[ATNO][  7].d[ 19] =        -0.262836099612;
  BAS[ATNO][  7].a[ 20] =         0.100000000000;     BAS[ATNO][  7].d[ 20] =        -0.010562026553;
  BAS[ATNO][  7].a[ 21] =         0.041700000000;     BAS[ATNO][  7].d[ 21] =        -0.161507668250;
  BAS[ATNO][  7].a[ 22] =         0.041700000000;     BAS[ATNO][  7].d[ 22] =         0.306801126669;
  BAS[ATNO][  7].a[ 23] =         0.041700000000;     BAS[ATNO][  7].d[ 23] =         0.012328754121;
  BAS[ATNO][  7].a[ 24] =         0.020637836700;     BAS[ATNO][  7].d[ 24] =         0.537413307349;

  // Basis function   9 L = p
  InitBFNGauss(BAS[ATNO][  8]);
  BAS[ATNO][  8].l  = 1;
  BAS[ATNO][  8].ng = 25;
  BAS[ATNO][  8].a[  0] =        17.000000000000;     BAS[ATNO][  8].d[  0] =        -0.003074269667;
  BAS[ATNO][  8].a[  1] =        12.431973432000;     BAS[ATNO][  8].d[  1] =         0.008865404729;
  BAS[ATNO][  8].a[  2] =         5.158621765800;     BAS[ATNO][  8].d[  2] =        -0.023899715325;
  BAS[ATNO][  8].a[  3] =         1.280145481200;     BAS[ATNO][  8].d[  3] =         0.041914577396;
  BAS[ATNO][  8].a[  4] =        17.000000000000;     BAS[ATNO][  8].d[  4] =         0.005839904979;
  BAS[ATNO][  8].a[  5] =        12.431973432000;     BAS[ATNO][  8].d[  5] =        -0.016840787186;
  BAS[ATNO][  8].a[  6] =         5.158621765800;     BAS[ATNO][  8].d[  6] =         0.045400072744;
  BAS[ATNO][  8].a[  7] =         1.280145481200;     BAS[ATNO][  8].d[  7] =        -0.079621235523;
  BAS[ATNO][  8].a[  8] =        17.000000000000;     BAS[ATNO][  8].d[  8] =         0.000234675616;
  BAS[ATNO][  8].a[  9] =        12.431973432000;     BAS[ATNO][  8].d[  9] =        -0.000676744247;
  BAS[ATNO][  8].a[ 10] =         5.158621765800;     BAS[ATNO][  8].d[ 10] =         0.001824394413;
  BAS[ATNO][  8].a[ 11] =         1.280145481200;     BAS[ATNO][  8].d[ 11] =        -0.003199566179;
  BAS[ATNO][  8].a[ 12] =         0.628567909000;     BAS[ATNO][  8].d[ 12] =         0.086993190955;
  BAS[ATNO][  8].a[ 13] =         0.628567909000;     BAS[ATNO][  8].d[ 13] =        -0.165252897115;
  BAS[ATNO][  8].a[ 14] =         0.628567909000;     BAS[ATNO][  8].d[ 14] =        -0.006640660336;
  BAS[ATNO][  8].a[ 15] =         0.293804235500;     BAS[ATNO][  8].d[ 15] =        -0.067295984206;
  BAS[ATNO][  8].a[ 16] =         0.293804235500;     BAS[ATNO][  8].d[ 16] =         0.127835940170;
  BAS[ATNO][  8].a[ 17] =         0.293804235500;     BAS[ATNO][  8].d[ 17] =         0.005137066110;
  BAS[ATNO][  8].a[ 18] =         0.100000000000;     BAS[ATNO][  8].d[ 18] =         0.144722494095;
  BAS[ATNO][  8].a[ 19] =         0.100000000000;     BAS[ATNO][  8].d[ 19] =        -0.274915900477;
  BAS[ATNO][  8].a[ 20] =         0.100000000000;     BAS[ATNO][  8].d[ 20] =        -0.011047449986;
  BAS[ATNO][  8].a[ 21] =         0.041700000000;     BAS[ATNO][  8].d[ 21] =        -1.078789516129;
  BAS[ATNO][  8].a[ 22] =         0.041700000000;     BAS[ATNO][  8].d[ 22] =         2.049276396928;
  BAS[ATNO][  8].a[ 23] =         0.041700000000;     BAS[ATNO][  8].d[ 23] =         0.082349833034;
  BAS[ATNO][  8].a[ 24] =         0.020637836700;     BAS[ATNO][  8].d[ 24] =         0.865657361012;

  // Basis function  10 L = d
  InitBFNGauss(BAS[ATNO][  9]);
  BAS[ATNO][  9].l  = 2;
  BAS[ATNO][  9].ng = 25;
  BAS[ATNO][  9].a[  0] =        22.106487883000;     BAS[ATNO][  9].d[  0] =        -0.000000133594;
  BAS[ATNO][  9].a[  1] =        18.958062620000;     BAS[ATNO][  9].d[  1] =         0.000000365869;
  BAS[ATNO][  9].a[  2] =        13.128699049000;     BAS[ATNO][  9].d[  2] =        -0.000000726415;
  BAS[ATNO][  9].a[  3] =        10.149417378000;     BAS[ATNO][  9].d[  3] =         0.000000518750;
  BAS[ATNO][  9].a[  4] =         4.016032241400;     BAS[ATNO][  9].d[  4] =         0.000000897105;
  BAS[ATNO][  9].a[  5] =         1.123449615800;     BAS[ATNO][  9].d[  5] =        -0.000014670614;
  BAS[ATNO][  9].a[  6] =         0.535006628200;     BAS[ATNO][  9].d[  6] =         0.000065821732;
  BAS[ATNO][  9].a[  7] =         0.171274496600;     BAS[ATNO][  9].d[  7] =        -0.000786364300;
  BAS[ATNO][  9].a[  8] =         0.080452897900;     BAS[ATNO][  9].d[  8] =         0.002662979304;
  BAS[ATNO][  9].a[  9] =         0.033669872200;     BAS[ATNO][  9].d[  9] =        -0.002973223400;
  BAS[ATNO][  9].a[ 10] =         7.406473731500;     BAS[ATNO][  9].d[ 10] =         0.011006778786;
  BAS[ATNO][  9].a[ 11] =         5.902626860300;     BAS[ATNO][  9].d[ 11] =        -0.022353586144;
  BAS[ATNO][  9].a[ 12] =         1.298475675000;     BAS[ATNO][  9].d[ 12] =         0.069772253985;
  BAS[ATNO][  9].a[ 13] =         7.406473731500;     BAS[ATNO][  9].d[ 13] =         0.001278620520;
  BAS[ATNO][  9].a[ 14] =         5.902626860300;     BAS[ATNO][  9].d[ 14] =        -0.002596741018;
  BAS[ATNO][  9].a[ 15] =         1.298475675000;     BAS[ATNO][  9].d[ 15] =         0.008105208383;
  BAS[ATNO][  9].a[ 16] =         7.406473731500;     BAS[ATNO][  9].d[ 16] =        -0.010145174653;
  BAS[ATNO][  9].a[ 17] =         5.902626860300;     BAS[ATNO][  9].d[ 17] =         0.020603760641;
  BAS[ATNO][  9].a[ 18] =         1.298475675000;     BAS[ATNO][  9].d[ 18] =        -0.064310523209;
  BAS[ATNO][  9].a[ 19] =         7.406473731500;     BAS[ATNO][  9].d[ 19] =         0.018240002706;
  BAS[ATNO][  9].a[ 20] =         5.902626860300;     BAS[ATNO][  9].d[ 20] =        -0.037043487444;
  BAS[ATNO][  9].a[ 21] =         1.298475675000;     BAS[ATNO][  9].d[ 21] =         0.115623846563;
  BAS[ATNO][  9].a[ 22] =         7.406473731500;     BAS[ATNO][  9].d[ 22] =        -0.003908085751;
  BAS[ATNO][  9].a[ 23] =         5.902626860300;     BAS[ATNO][  9].d[ 23] =         0.007936902630;
  BAS[ATNO][  9].a[ 24] =         1.298475675000;     BAS[ATNO][  9].d[ 24] =        -0.024773456151;

  // Basis function  11 L = p
  InitBFNGauss(BAS[ATNO][ 10]);
  BAS[ATNO][ 10].l  = 1;
  BAS[ATNO][ 10].ng = 25;
  BAS[ATNO][ 10].a[  0] =        17.000000000000;     BAS[ATNO][ 10].d[  0] =        -0.008636113039;
  BAS[ATNO][ 10].a[  1] =        12.431973432000;     BAS[ATNO][ 10].d[  1] =         0.024904333605;
  BAS[ATNO][ 10].a[  2] =         5.158621765800;     BAS[ATNO][ 10].d[  2] =        -0.067138106125;
  BAS[ATNO][ 10].a[  3] =         1.280145481200;     BAS[ATNO][ 10].d[  3] =         0.117744722359;
  BAS[ATNO][ 10].a[  4] =        17.000000000000;     BAS[ATNO][ 10].d[  4] =        -0.004649890282;
  BAS[ATNO][ 10].a[  5] =        12.431973432000;     BAS[ATNO][ 10].d[  5] =         0.013409090212;
  BAS[ATNO][ 10].a[  6] =         5.158621765800;     BAS[ATNO][ 10].d[  6] =        -0.036148765751;
  BAS[ATNO][ 10].a[  7] =         1.280145481200;     BAS[ATNO][ 10].d[  7] =         0.063396581056;
  BAS[ATNO][ 10].a[  8] =        17.000000000000;     BAS[ATNO][ 10].d[  8] =         0.002578779633;
  BAS[ATNO][ 10].a[  9] =        12.431973432000;     BAS[ATNO][ 10].d[  9] =        -0.007436538636;
  BAS[ATNO][ 10].a[ 10] =         5.158621765800;     BAS[ATNO][ 10].d[ 10] =         0.020047720533;
  BAS[ATNO][ 10].a[ 11] =         1.280145481200;     BAS[ATNO][ 10].d[ 11] =        -0.035159068736;
  BAS[ATNO][ 10].a[ 12] =         0.628567909000;     BAS[ATNO][ 10].d[ 12] =         0.122856361132;
  BAS[ATNO][ 10].a[ 13] =         0.628567909000;     BAS[ATNO][ 10].d[ 13] =         0.066148809906;
  BAS[ATNO][ 10].a[ 14] =         0.628567909000;     BAS[ATNO][ 10].d[ 14] =        -0.036685425547;
  BAS[ATNO][ 10].a[ 15] =         0.293804235500;     BAS[ATNO][ 10].d[ 15] =         0.401960159717;
  BAS[ATNO][ 10].a[ 16] =         0.293804235500;     BAS[ATNO][ 10].d[ 16] =         0.216424985649;
  BAS[ATNO][ 10].a[ 17] =         0.293804235500;     BAS[ATNO][ 10].d[ 17] =        -0.120026992304;
  BAS[ATNO][ 10].a[ 18] =         0.100000000000;     BAS[ATNO][ 10].d[ 18] =        -2.265650159883;
  BAS[ATNO][ 10].a[ 19] =         0.100000000000;     BAS[ATNO][ 10].d[ 19] =        -1.219880357506;
  BAS[ATNO][ 10].a[ 20] =         0.100000000000;     BAS[ATNO][ 10].d[ 20] =         0.676532655616;
  BAS[ATNO][ 10].a[ 21] =         0.041700000000;     BAS[ATNO][ 10].d[ 21] =         2.708851223580;
  BAS[ATNO][ 10].a[ 22] =         0.041700000000;     BAS[ATNO][ 10].d[ 22] =         1.458510434472;
  BAS[ATNO][ 10].a[ 23] =         0.041700000000;     BAS[ATNO][ 10].d[ 23] =        -0.808874355101;
  BAS[ATNO][ 10].a[ 24] =         0.020637836700;     BAS[ATNO][ 10].d[ 24] =        -1.189757058632;

  // Basis function  12 L = p
  InitBFNGauss(BAS[ATNO][ 11]);
  BAS[ATNO][ 11].l  = 1;
  BAS[ATNO][ 11].ng = 25;
  BAS[ATNO][ 11].a[  0] =        17.000000000000;     BAS[ATNO][ 11].d[  0] =         0.023467082507;
  BAS[ATNO][ 11].a[  1] =        12.431973432000;     BAS[ATNO][ 11].d[  1] =        -0.067673043282;
  BAS[ATNO][ 11].a[  2] =         5.158621765800;     BAS[ATNO][ 11].d[  2] =         0.182435717160;
  BAS[ATNO][ 11].a[  3] =         1.280145481200;     BAS[ATNO][ 11].d[  3] =        -0.319950086548;
  BAS[ATNO][ 11].a[  4] =        17.000000000000;     BAS[ATNO][ 11].d[  4] =         0.012635241118;
  BAS[ATNO][ 11].a[  5] =        12.431973432000;     BAS[ATNO][ 11].d[  5] =        -0.036436792634;
  BAS[ATNO][ 11].a[  6] =         5.158621765800;     BAS[ATNO][ 11].d[  6] =         0.098227773910;
  BAS[ATNO][ 11].a[  7] =         1.280145481200;     BAS[ATNO][ 11].d[  7] =        -0.172268814754;
  BAS[ATNO][ 11].a[  8] =        17.000000000000;     BAS[ATNO][ 11].d[  8] =        -0.007007369539;
  BAS[ATNO][ 11].a[  9] =        12.431973432000;     BAS[ATNO][ 11].d[  9] =         0.020207455355;
  BAS[ATNO][ 11].a[ 10] =         5.158621765800;     BAS[ATNO][ 11].d[ 10] =        -0.054476072465;
  BAS[ATNO][ 11].a[ 11] =         1.280145481200;     BAS[ATNO][ 11].d[ 11] =         0.095538441547;
  BAS[ATNO][ 11].a[ 12] =         0.628567909000;     BAS[ATNO][ 11].d[ 12] =        -1.295633968942;
  BAS[ATNO][ 11].a[ 13] =         0.628567909000;     BAS[ATNO][ 11].d[ 13] =        -0.697600461976;
  BAS[ATNO][ 11].a[ 14] =         0.628567909000;     BAS[ATNO][ 11].d[ 14] =         0.386881752539;
  BAS[ATNO][ 11].a[ 15] =         0.293804235500;     BAS[ATNO][ 11].d[ 15] =         2.692810919226;
  BAS[ATNO][ 11].a[ 16] =         0.293804235500;     BAS[ATNO][ 11].d[ 16] =         1.449874105107;
  BAS[ATNO][ 11].a[ 17] =         0.293804235500;     BAS[ATNO][ 11].d[ 17] =        -0.804084666395;
  BAS[ATNO][ 11].a[ 18] =         0.100000000000;     BAS[ATNO][ 11].d[ 18] =        -2.250142742058;
  BAS[ATNO][ 11].a[ 19] =         0.100000000000;     BAS[ATNO][ 11].d[ 19] =        -1.211530921541;
  BAS[ATNO][ 11].a[ 20] =         0.100000000000;     BAS[ATNO][ 11].d[ 20] =         0.671902086838;
  BAS[ATNO][ 11].a[ 21] =         0.041700000000;     BAS[ATNO][ 11].d[ 21] =         1.548269339168;
  BAS[ATNO][ 11].a[ 22] =         0.041700000000;     BAS[ATNO][ 11].d[ 22] =         0.833625415941;
  BAS[ATNO][ 11].a[ 23] =         0.041700000000;     BAS[ATNO][ 11].d[ 23] =        -0.462319736668;
  BAS[ATNO][ 11].a[ 24] =         0.020637836700;     BAS[ATNO][ 11].d[ 24] =        -0.592489858801;

  // Basis function  13 L = d
  InitBFNGauss(BAS[ATNO][ 12]);
  BAS[ATNO][ 12].l  = 2;
  BAS[ATNO][ 12].ng = 25;
  BAS[ATNO][ 12].a[  0] =         7.406473731500;     BAS[ATNO][ 12].d[  0] =        -0.005923894546;
  BAS[ATNO][ 12].a[  1] =         5.902626860300;     BAS[ATNO][ 12].d[  1] =         0.012030793898;
  BAS[ATNO][ 12].a[  2] =         1.298475675000;     BAS[ATNO][ 12].d[  2] =        -0.037551719981;
  BAS[ATNO][ 12].a[  3] =         7.406473731500;     BAS[ATNO][ 12].d[  3] =        -0.003091137258;
  BAS[ATNO][ 12].a[  4] =         5.902626860300;     BAS[ATNO][ 12].d[  4] =         0.006277767939;
  BAS[ATNO][ 12].a[  5] =         1.298475675000;     BAS[ATNO][ 12].d[  5] =        -0.019594798629;
  BAS[ATNO][ 12].a[  6] =         7.406473731500;     BAS[ATNO][ 12].d[  6] =        -0.012685827114;
  BAS[ATNO][ 12].a[  7] =         5.902626860300;     BAS[ATNO][ 12].d[  7] =         0.025763553053;
  BAS[ATNO][ 12].a[  8] =         1.298475675000;     BAS[ATNO][ 12].d[  8] =        -0.080415784546;
  BAS[ATNO][ 12].a[  9] =         7.406473731500;     BAS[ATNO][ 12].d[  9] =        -0.004765834306;
  BAS[ATNO][ 12].a[ 10] =         5.902626860300;     BAS[ATNO][ 12].d[ 10] =         0.009678897865;
  BAS[ATNO][ 12].a[ 11] =         1.298475675000;     BAS[ATNO][ 12].d[ 11] =        -0.030210746312;
  BAS[ATNO][ 12].a[ 12] =         7.406473731500;     BAS[ATNO][ 12].d[ 12] =        -0.007007084993;
  BAS[ATNO][ 12].a[ 13] =         5.902626860300;     BAS[ATNO][ 12].d[ 13] =         0.014230637415;
  BAS[ATNO][ 12].a[ 14] =         1.298475675000;     BAS[ATNO][ 12].d[ 14] =        -0.044418092100;
  BAS[ATNO][ 12].a[ 15] =         0.571535085400;     BAS[ATNO][ 12].d[ 15] =        -0.455766558992;
  BAS[ATNO][ 12].a[ 16] =         0.571535085400;     BAS[ATNO][ 12].d[ 16] =        -0.237822766831;
  BAS[ATNO][ 12].a[ 17] =         0.571535085400;     BAS[ATNO][ 12].d[ 17] =        -0.976009232852;
  BAS[ATNO][ 12].a[ 18] =         0.571535085400;     BAS[ATNO][ 12].d[ 18] =        -0.366668900860;
  BAS[ATNO][ 12].a[ 19] =         0.571535085400;     BAS[ATNO][ 12].d[ 19] =        -0.539103961246;
  BAS[ATNO][ 12].a[ 20] =         0.238455266100;     BAS[ATNO][ 12].d[ 20] =         0.691309452959;
  BAS[ATNO][ 12].a[ 21] =         0.238455266100;     BAS[ATNO][ 12].d[ 21] =         0.360731000543;
  BAS[ATNO][ 12].a[ 22] =         0.238455266100;     BAS[ATNO][ 12].d[ 22] =         1.480416664043;
  BAS[ATNO][ 12].a[ 23] =         0.238455266100;     BAS[ATNO][ 12].d[ 23] =         0.556165590190;
  BAS[ATNO][ 12].a[ 24] =         0.238455266100;     BAS[ATNO][ 12].d[ 24] =         0.817716125030;

  // Basis function  14 L = d
  InitBFNGauss(BAS[ATNO][ 13]);
  BAS[ATNO][ 13].l  = 2;
  BAS[ATNO][ 13].ng = 25;
  BAS[ATNO][ 13].a[  0] =         7.406473731500;     BAS[ATNO][ 13].d[  0] =        -0.113788085240;
  BAS[ATNO][ 13].a[  1] =         5.902626860300;     BAS[ATNO][ 13].d[  1] =         0.231091386043;
  BAS[ATNO][ 13].a[  2] =         1.298475675000;     BAS[ATNO][ 13].d[  2] =        -0.721305600669;
  BAS[ATNO][ 13].a[  3] =         7.406473731500;     BAS[ATNO][ 13].d[  3] =        -0.059375565880;
  BAS[ATNO][ 13].a[  4] =         5.902626860300;     BAS[ATNO][ 13].d[  4] =         0.120585400373;
  BAS[ATNO][ 13].a[  5] =         1.298475675000;     BAS[ATNO][ 13].d[  5] =        -0.376383240144;
  BAS[ATNO][ 13].a[  6] =         7.406473731500;     BAS[ATNO][ 13].d[  6] =        -0.243673475958;
  BAS[ATNO][ 13].a[  7] =         5.902626860300;     BAS[ATNO][ 13].d[  7] =         0.494874671479;
  BAS[ATNO][ 13].a[  8] =         1.298475675000;     BAS[ATNO][ 13].d[  8] =        -1.544652435035;
  BAS[ATNO][ 13].a[  9] =         7.406473731500;     BAS[ATNO][ 13].d[  9] =        -0.091543688937;
  BAS[ATNO][ 13].a[ 10] =         5.902626860300;     BAS[ATNO][ 13].d[ 10] =         0.185915405075;
  BAS[ATNO][ 13].a[ 11] =         1.298475675000;     BAS[ATNO][ 13].d[ 11] =        -0.580297800049;
  BAS[ATNO][ 13].a[ 12] =         7.406473731500;     BAS[ATNO][ 13].d[ 12] =        -0.134594358191;
  BAS[ATNO][ 13].a[ 13] =         5.902626860300;     BAS[ATNO][ 13].d[ 13] =         0.273346692868;
  BAS[ATNO][ 13].a[ 14] =         1.298475675000;     BAS[ATNO][ 13].d[ 14] =        -0.853197100359;
  BAS[ATNO][ 13].a[ 15] =         0.571535085400;     BAS[ATNO][ 13].d[ 15] =         0.882992648264;
  BAS[ATNO][ 13].a[ 16] =         0.571535085400;     BAS[ATNO][ 13].d[ 16] =         0.460752881536;
  BAS[ATNO][ 13].a[ 17] =         0.571535085400;     BAS[ATNO][ 13].d[ 17] =         1.890899977753;
  BAS[ATNO][ 13].a[ 18] =         0.571535085400;     BAS[ATNO][ 13].d[ 18] =         0.710376698547;
  BAS[ATNO][ 13].a[ 19] =         0.571535085400;     BAS[ATNO][ 13].d[ 19] =         1.044448797344;
  BAS[ATNO][ 13].a[ 20] =         0.238455266100;     BAS[ATNO][ 13].d[ 20] =        -0.484368548819;
  BAS[ATNO][ 13].a[ 21] =         0.238455266100;     BAS[ATNO][ 13].d[ 21] =        -0.252747522907;
  BAS[ATNO][ 13].a[ 22] =         0.238455266100;     BAS[ATNO][ 13].d[ 22] =        -1.037259460753;
  BAS[ATNO][ 13].a[ 23] =         0.238455266100;     BAS[ATNO][ 13].d[ 23] =        -0.389679496502;
  BAS[ATNO][ 13].a[ 24] =         0.238455266100;     BAS[ATNO][ 13].d[ 24] =        -0.572935855446;

  // Basis function  15 L = p
  InitBFNGauss(BAS[ATNO][ 14]);
  BAS[ATNO][ 14].l  = 1;
  BAS[ATNO][ 14].ng = 25;
  BAS[ATNO][ 14].a[  0] =        17.000000000000;     BAS[ATNO][ 14].d[  0] =         0.205679813800;
  BAS[ATNO][ 14].a[  1] =        12.431973432000;     BAS[ATNO][ 14].d[  1] =        -0.593127796656;
  BAS[ATNO][ 14].a[  2] =         5.158621765800;     BAS[ATNO][ 14].d[  2] =         1.598977816029;
  BAS[ATNO][ 14].a[  3] =         1.280145481200;     BAS[ATNO][ 14].d[  3] =        -2.804237561545;
  BAS[ATNO][ 14].a[  4] =        17.000000000000;     BAS[ATNO][ 14].d[  4] =         0.110742941753;
  BAS[ATNO][ 14].a[  5] =        12.431973432000;     BAS[ATNO][ 14].d[  5] =        -0.319354222584;
  BAS[ATNO][ 14].a[  6] =         5.158621765800;     BAS[ATNO][ 14].d[  6] =         0.860927982545;
  BAS[ATNO][ 14].a[  7] =         1.280145481200;     BAS[ATNO][ 14].d[  7] =        -1.509868718775;
  BAS[ATNO][ 14].a[  8] =        17.000000000000;     BAS[ATNO][ 14].d[  8] =        -0.061416862142;
  BAS[ATNO][ 14].a[  9] =        12.431973432000;     BAS[ATNO][ 14].d[  9] =         0.177110468191;
  BAS[ATNO][ 14].a[ 10] =         5.158621765800;     BAS[ATNO][ 14].d[ 10] =        -0.477461537329;
  BAS[ATNO][ 14].a[ 11] =         1.280145481200;     BAS[ATNO][ 14].d[ 11] =         0.837357193920;
  BAS[ATNO][ 14].a[ 12] =         0.628567909000;     BAS[ATNO][ 14].d[ 12] =         3.704635209610;
  BAS[ATNO][ 14].a[ 13] =         0.628567909000;     BAS[ATNO][ 14].d[ 13] =         1.994664394404;
  BAS[ATNO][ 14].a[ 14] =         0.628567909000;     BAS[ATNO][ 14].d[ 14] =        -1.106219739068;
  BAS[ATNO][ 14].a[ 15] =         0.293804235500;     BAS[ATNO][ 14].d[ 15] =        -2.353956533875;
  BAS[ATNO][ 14].a[ 16] =         0.293804235500;     BAS[ATNO][ 14].d[ 16] =        -1.267426620552;
  BAS[ATNO][ 14].a[ 17] =         0.293804235500;     BAS[ATNO][ 14].d[ 17] =         0.702901374993;
  BAS[ATNO][ 14].a[ 18] =         0.100000000000;     BAS[ATNO][ 14].d[ 18] =         1.161558909461;
  BAS[ATNO][ 14].a[ 19] =         0.100000000000;     BAS[ATNO][ 14].d[ 19] =         0.625411158619;
  BAS[ATNO][ 14].a[ 20] =         0.100000000000;     BAS[ATNO][ 14].d[ 20] =        -0.346846402151;
  BAS[ATNO][ 14].a[ 21] =         0.041700000000;     BAS[ATNO][ 14].d[ 21] =        -0.755805362298;
  BAS[ATNO][ 14].a[ 22] =         0.041700000000;     BAS[ATNO][ 14].d[ 22] =        -0.406943723194;
  BAS[ATNO][ 14].a[ 23] =         0.041700000000;     BAS[ATNO][ 14].d[ 23] =         0.225686677193;
  BAS[ATNO][ 14].a[ 24] =         0.020637836700;     BAS[ATNO][ 14].d[ 24] =         0.295066661961;

-------------------------------------------
RADIAL EXPECTATION VALUES <R**-3> TO <R**3>
-------------------------------------------
   0 :     0.000000     1.043303     0.980026     1.112110     1.351520     1.797953
   1 :     0.834519     0.805115     0.854257     1.295588     1.862898     2.979093
   2 :     0.834511     0.805109     0.854253     1.295597     1.862931     2.979198
   3 :     0.834510     0.805108     0.854253     1.295598     1.862936     2.979212
   4 :     0.000000     0.160022     0.347387     3.442071    13.594298    60.793640
   5 :     0.336463     0.414873     0.595027     1.982493     4.651245    64.427164
   6 :     0.336502     0.414910     0.595059     1.982344     4.650442    64.408562
   7 :     0.000000     0.056865     0.190099     6.435513    45.549397   341.404104
   8 :     0.000000     0.185089     0.351524     3.971984    20.545230   129.990578
   9 :     0.000000     0.697989     0.720849     2.032513     6.422104    30.864443
  10 :     0.000000     5.361770     2.082531     0.578721     0.564975     1.602693
  11 :     0.000000    49.363503     5.685340     0.225048     0.068465     0.057719
  12 :     0.336502     0.414911     0.595059     1.982347     4.650459    64.409078
  13 :     0.336523     0.414930     0.595074     1.982289     4.650179    64.403210
  14 :     0.336525     0.414932     0.595076     1.982278     4.650118    64.401754
  15 :     0.014117     0.035910     0.162215     7.383961    61.748484   566.694998
  16 :     0.014120     0.035914     0.162220     7.383874    61.747481   566.685077
  17 :     0.014120     0.035914     0.162221     7.383857    61.747266   566.682780
  18 :     0.029103     0.054972     0.187749     7.330047    66.706209   690.756947
  19 :     0.029106     0.054974     0.187749     7.330110    66.707271   690.770646
  20 :     0.029106     0.054974     0.187749     7.330121    66.707466   690.773124
  21 :     0.057078     0.095402     0.258560     4.584488    22.758173   593.322854
  22 :     0.057079     0.095402     0.258561     4.584485    22.758155   593.322434
  23 :     0.057096     0.095420     0.258577     4.584389    22.757602   593.308913
  24 :     0.057072     0.095396     0.258554     4.584522    22.758378   593.328031
  25 :     0.057074     0.095397     0.258555     4.584516    22.758342   593.327177
  26 :    11.398896     3.664391     1.559217     1.297162     3.894923    22.950180
  27 :     0.061197     0.099120     0.257663     5.389873    38.225604   335.232887
  28 :     0.061198     0.099120     0.257662     5.389888    38.225582   335.230237
  29 :     0.061198     0.099120     0.257662     5.389892    38.225604   335.230171
  30 :     0.312333     0.329940     0.477157     3.076445    14.079933    94.320611
  31 :     0.312333     0.329939     0.477156     3.076445    14.079865    94.319397
  32 :     0.312333     0.329939     0.477156     3.076446    14.079859    94.319271
  33 :     0.249085     0.296513     0.465959     2.846154    10.141355   215.672233
  34 :     0.249068     0.296498     0.465948     2.846198    10.141561   215.676540
  35 :     0.249068     0.296498     0.465947     2.846198    10.141560   215.676410
  36 :     0.249057     0.296488     0.465940     2.846223    10.141650   215.677598
  37 :     0.249058     0.296489     0.465940     2.846220    10.141636   215.677287
  38 :     0.661530     0.637600     0.721659     1.804029     4.425111    73.487601
  39 :     0.661526     0.637597     0.721657     1.804032     4.425121    73.487739
  40 :     0.661526     0.637597     0.721656     1.804033     4.425123    73.487774
  41 :     0.661520     0.637592     0.721654     1.804038     4.425140    73.488022
  42 :     0.661520     0.637592     0.721654     1.804038     4.425140    73.488025
  43 :    11.398896     3.664391     1.559217     1.297162     3.894924    22.950202
  44 :    11.398896     3.664391     1.559217     1.297162     3.894923    22.950182
Making the total density                ... o.k.
o.k.
Initializing the integrals              ... done
Making exponents                        ... done
Making rho(0)                           ... done (         0.000006836)
Integral calculation                    ... Two index integrals                     ... done
Solving the equation system             ... done
atomic density will be written to file 74_W_atom74.adf

-------
TIMINGS
-------

Total SCF time: 0 days 0 hours 0 min 4 sec 

Total time                  ....       4.508 sec
Sum of individual times     ....       3.755 sec  ( 83.3%)

Fock matrix formation       ....       3.106 sec  ( 68.9%)
Diagonalization             ....       0.293 sec  (  6.5%)
Density matrix formation    ....       0.005 sec  (  0.1%)
Population analysis         ....       0.000 sec  (  0.0%)
Initial guess               ....       0.001 sec  (  0.0%)
Orbital Transformation      ....       0.000 sec  (  0.0%)
Orbital Orthonormalization  ....       0.000 sec  (  0.0%)
DIIS solution               ....       0.350 sec  (  7.8%)

-------------------------   --------------------
FINAL SINGLE POINT ENERGY       -66.307829397188
-------------------------   --------------------


                            ***************************************
                            *     ORCA property calculations      *
                            ***************************************

                                    ---------------------
                                    Active property flags
                                    ---------------------
   (+) Dipole Moment


------------------------------------------------------------------------------
                       ORCA ELECTRIC PROPERTIES CALCULATION
------------------------------------------------------------------------------

Dipole Moment Calculation                       ... on
Quadrupole Moment Calculation                   ... off
Polarizability Calculation                      ... off
GBWName                                         ... 74_W_atom74.gbw
Electron density file                           ... 74_W_atom74.scfp
The origin for moment calculation is the CENTER OF MASS  = ( 0.000000,  0.000000  0.000000)

-------------
DIPOLE MOMENT
-------------
                                X             Y             Z
Electronic contribution:      0.00000       0.00000      -0.00000
Nuclear contribution   :      0.00000       0.00000       0.00000
                        -----------------------------------------
Total Dipole Moment    :      0.00000       0.00000      -0.00000
                        -----------------------------------------
Magnitude (a.u.)       :      0.00000
Magnitude (Debye)      :      0.00000



--------------------
Rotational spectrum 
--------------------
 
Rotational constants in cm-1:     0.000000     0.000000     0.000000 
Rotational constants in MHz :     0.000000     0.000000     0.000000 

 Dipole components along the rotational axes: 
x,y,z [a.u.] :     0.000000     0.000000    -0.000000 
x,y,z [Debye]:     0.000000     0.000000    -0.000000 

 

Timings for individual modules:

Sum of individual times         ...        4.815 sec (=   0.080 min)
GTO integral calculation        ...        0.274 sec (=   0.005 min)   5.7 %
SCF iterations                  ...        4.541 sec (=   0.076 min)  94.3 %
                             ****ORCA TERMINATED NORMALLY****
TOTAL RUN TIME: 0 days 0 hours 0 minutes 5 seconds 38 msec
