
                                 *****************
                                 * O   R   C   A *
                                 *****************

           --- An Ab Initio, DFT and Semiempirical electronic structure package ---

                  #######################################################
                  #                        -***-                        #
                  #          Department of theory and spectroscopy      #
                  #               Directorship: Frank Neese             #
                  #        Max Planck Institute fuer Kohlenforschung    #
                  #                Kaiser Wilhelm Platz 1               #
                  #                 D-45470 Muelheim/Ruhr               #
                  #                      Germany                        #
                  #                                                     #
                  #                  All rights reserved                #
                  #                        -***-                        #
                  #######################################################


                         Program Version 4.2.0 -  RELEASE  -


 With contributions from (in alphabetic order):
   Daniel Aravena         : Magnetic Suceptibility
   Michael Atanasov       : Ab Initio Ligand Field Theory (pilot matlab implementation)
   Alexander A. Auer      : GIAO ZORA, VPT2
   Ute Becker             : Parallelization
   Giovanni Bistoni       : ED, misc. LED, open-shell LED, HFLED
   Martin Brehm           : Molecular dynamics
   Dmytro Bykov           : SCF Hessian
   Vijay G. Chilkuri      : MRCI spin determinant printing, contributions to CSF-ICE
   Dipayan Datta          : RHF DLPNO-CCSD density
   Achintya Kumar Dutta   : EOM-CC, STEOM-CC
   Dmitry Ganyushin       : Spin-Orbit,Spin-Spin,Magnetic field MRCI
   Miquel Garcia          : C-PCM Hessian, Gaussian charge scheme
   Yang Guo               : DLPNO-NEVPT2, CIM, IAO-localization
   Andreas Hansen         : Spin unrestricted coupled pair/coupled cluster methods
   Benjamin Helmich-Paris : CASSCF linear response (MC-RPA)
   Lee Huntington         : MR-EOM, pCC
   Robert Izsak           : Overlap fitted RIJCOSX, COSX-SCS-MP3, EOM
   Christian Kollmar      : KDIIS, OOCD, Brueckner-CCSD(T), CCSD density
   Simone Kossmann        : Meta GGA functionals, TD-DFT gradient, OOMP2, MP2 Hessian
   Martin Krupicka        : AUTO-CI
   Lucas Lang             : DCDCAS
   Dagmar Lenk            : GEPOL surface, SMD
   Dimitrios Liakos       : Extrapolation schemes; Compound Job, initial MDCI parallelization
   Dimitrios Manganas     : Further ROCIS development; embedding schemes
   Dimitrios Pantazis     : SARC Basis sets
   Taras Petrenko         : DFT Hessian,TD-DFT gradient, ASA, ECA, R-Raman, ABS, FL, XAS/XES, NRVS
   Peter Pinski           : DLPNO-MP2, DLPNO-MP2 Gradient
   Christoph Reimann      : Effective Core Potentials
   Marius Retegan         : Local ZFS, SOC
   Christoph Riplinger    : Optimizer, TS searches, QM/MM, DLPNO-CCSD(T), (RO)-DLPNO pert. Triples
   Tobias Risthaus        : Range-separated hybrids, TD-DFT gradient, RPA, STAB
   Michael Roemelt        : Original ROCIS implementation
   Masaaki Saitow         : Open-shell DLPNO-CCSD energy and density
   Barbara Sandhoefer     : DKH picture change effects
   Avijit Sen             : IP-ROCIS
   Kantharuban Sivalingam : CASSCF convergence, NEVPT2, FIC-MRCI
   Bernardo de Souza      : ESD, SOC TD-DFT
   Georgi Stoychev        : AutoAux, RI-MP2 NMR
   Willem Van den Heuvel  : Paramagnetic NMR
   Boris Wezisla          : Elementary symmetry handling
   Frank Wennmohs         : Technical directorship


 We gratefully acknowledge several colleagues who have allowed us to
 interface, adapt or use parts of their codes:
   Stefan Grimme, W. Hujo, H. Kruse,             : VdW corrections, initial TS optimization,
                  C. Bannwarth                     DFT functionals, gCP, sTDA/sTD-DF
   Ed Valeev, F. Pavosevic, A. Kumar             : LibInt (2-el integral package), F12 methods
   Garnet Chan, S. Sharma, J. Yang, R. Olivares  : DMRG
   Ulf Ekstrom                                   : XCFun DFT Library
   Mihaly Kallay                                 : mrcc  (arbitrary order and MRCC methods)
   Andreas Klamt, Michael Diedenhofen            : otool_cosmo (COSMO solvation model)
   Jiri Pittner, Ondrej Demel                    : Mk-CCSD
   Frank Weinhold                                : gennbo (NPA and NBO analysis)
   Christopher J. Cramer and Donald G. Truhlar   : smd solvation model
   Lars Goerigk                                  : TD-DFT with DH, B97 family of functionals
   V. Asgeirsson, H. Jonsson                     : NEB implementation
   FAccTs GmbH                                   : IRC, NEB, NEB-TS, Multilevel, MM, QM/MM, CI optimization
   S Lehtola, MJT Oliveira, MAL Marques          : LibXC Library


 Your calculation uses the libint2 library for the computation of 2-el integrals
 For citations please refer to: http://libint.valeyev.net

 Your ORCA version has been built with support for libXC version: 4.2.3
 For citations please refer to: https://tddft.org/programs/libxc/

 This ORCA versions uses:
   CBLAS   interface :  Fast vector & matrix operations
   LAPACKE interface :  Fast linear algebra routines
   SCALAPACK package :  Parallel linear algebra routines


----- Orbital basis set information -----
Your calculation utilizes the basis: def2-SVP
   F. Weigend and R. Ahlrichs, Phys. Chem. Chem. Phys. 7, 3297 (2005).

----- AuxJ basis set information -----
Your calculation utilizes the auxiliary basis: def2/J
   F. Weigend, Phys. Chem. Chem. Phys. 8, 1057 (2006).

================================================================================
                                        WARNINGS
                       Please study these warnings very carefully!
================================================================================


INFO   : the flag for use of LIBINT has been found!

================================================================================
                                       INPUT FILE
================================================================================
NAME = 75_Re_atom75.inp
|  1> # input to generate an atomic fitting density for Re
|  2> # this file is use internally by ORCA
|  3> #
|  4> # atomic ground state (S=6): 1s2 2s2 2p6 3s2 3p6 4s2 3d10 4p6 5s2 4d10 5p6 6s2 4f14 5d5 
|  5> #
|  6> ! RHF AllowRHF def2-SVP def2/J  NoMulliken NoLoewdin NoMayer NoPrintMOs 
|  7> 
|  8> %output print[p_atomdensfit] 2 end
|  9> 
| 10> %scf
| 11>   guess hcore
| 12>   maxiter 1000
| 13>   maxdisk 500000
| 14>   SCFMode Conventional
| 15>   lshift 0.500000
| 16>   hftyp rohf
| 17>   rohf_case sahf
| 18>   rohf_numop   2
| 19>   rohf_norb[1] 5
| 20>   rohf_nel[1]  5
| 21> end
| 22> 
| 23> %basis
| 24>   NewECP 75
| 25>     N_core 60
| 26>     lmax f
| 27>     s 3
| 28>       1      14.0993051000   1038.9515723000  2
| 29>       2       7.0496525000     29.5617383000  2
| 30>       3       2.5086506000    -16.4498523000  2
| 31>     p 3
| 32>       1      10.1077169000    339.5435096000  2
| 33>       2       5.0538583000     24.9136965000  2
| 34>       3       2.5086506000    -16.4498523000  2
| 35>     d 3
| 36>       1       6.8486179000    111.6996527000  2
| 37>       2       3.4243090000     12.6243293000  2
| 38>       3       2.5086506000    -16.4498523000  2
| 39>     f 1
| 40>       1       2.5086506000     16.4498523000  2
| 41>   end
| 42>   NewGTO 75
| 43>     s 4 
| 44>      1      24.0000000000      2.6150378908
| 45>      2      18.2042627490    -13.1482597401
| 46>      3      14.0481924870     18.4275193491
| 47>      4       9.5166786954     -7.3333962699
| 48>     s 1 
| 49>      1       4.1714667981      1.0000000000
| 50>     s 1 
| 51>      1       1.1944213976      1.0000000000
| 52>     s 1 
| 53>      1       0.5675544780      1.0000000000
| 54>     s 1 
| 55>      1       0.1753385487      1.0000000000
| 56>     s 1 
| 57>      1       0.0820142505      1.0000000000
| 58>     s 1 
| 59>      1       0.0346078927      1.0000000000
| 60>     p 4 
| 61>      1      18.0000000000     -0.0654422411
| 62>      2      12.3186062500      0.2426593672
| 63>      3       5.3719234505     -0.7127910952
| 64>      4       1.3506646748      1.2524914706
| 65>     p 1 
| 66>      1       0.6621281681      1.0000000000
| 67>     p 1 
| 68>      1       0.3107138519      1.0000000000
| 69>     p 1 
| 70>      1       0.1080000000      1.0000000000
| 71>     p 1 
| 72>      1       0.0450000000      1.0000000000
| 73>     d 3 
| 74>      1       7.7352877672      0.1637238665
| 75>      2       6.0949443610     -0.3458277141
| 76>      3       1.3871105497      1.0779055520
| 77>     d 1 
| 78>      1       0.6232402785      1.0000000000
| 79>     d 1 
| 80>      1       0.2651732855      1.0000000000
| 81>     d 1 
| 82>      1       0.1032109685      1.0000000000
| 83>     p 1 
| 84>      1       0.0219302517      1.0000000000
| 85>   end
| 86>   NewAuxGTO 75
| 87>     S 1
| 88>      1 1310.72 1.0
| 89>     S 1
| 90>      1  655.36 1.0
| 91>     S 1
| 92>      1  327.68 1.0
| 93>     S 1
| 94>      1  163.84 1.0
| 95>     S 1
| 96>      1   81.82 1.0
| 97>     S 1
| 98>      1   40.96 1.0
| 99>     S 1
|100>      1   20.48 1.0
|101>     S 1
|102>      1   10.24 1.0
|103>     S 1
|104>      1    5.12 1.0
|105>     S 1
|106>      1    2.56 1.0
|107>     S 1
|108>      1    1.28 1.0
|109>     S 1
|110>      1    0.64 1.0
|111>     S 1
|112>      1    0.32 1.0
|113>     S 1
|114>      1    0.16 1.0
|115>     S 1
|116>      1    0.08 1.0
|117>     S 1
|118>      1    0.04 1.0
|119>     S 1
|120>      1    0.02 1.0
|121>     S 1
|122>      1    0.01 1.0
|123>   end
|124> end
|125> 
|126> * xyz 0 6
|127> 75  0.0 0.0 0.0
|128> *
|129> 
|130> 
|131>                          ****END OF INPUT****
================================================================================

                       ****************************
                       * Single Point Calculation *
                       ****************************

---------------------------------
CARTESIAN COORDINATES (ANGSTROEM)
---------------------------------
  Re     0.000000    0.000000    0.000000

----------------------------
CARTESIAN COORDINATES (A.U.)
----------------------------
  NO LB      ZA    FRAG     MASS         X           Y           Z
   0 Re   15.0000*   0   186.207    0.000000    0.000000    0.000000
* core charge reduced due to ECP

--------------------------------
INTERNAL COORDINATES (ANGSTROEM)
--------------------------------
 Re     0   0   0     0.000000000000     0.00000000     0.00000000

---------------------------
INTERNAL COORDINATES (A.U.)
---------------------------
 Re     0   0   0     0.000000000000     0.00000000     0.00000000

---------------------
BASIS SET INFORMATION
---------------------
There are 1 groups of distinct atoms

 Group   1 Type Re  : 10s9p6d contracted to 7s6p4d pattern {4111111/411111/3111}

Atom   0Re   basis set group =>   1
---------------------------------
AUXILIARY/J BASIS SET INFORMATION
---------------------------------
There are 1 groups of distinct atoms

 Group   1 Type Re  : 18s contracted to 18s pattern {111111111111111111}

Atom   0Re   basis set group =>   1
-------------------------
ECP PARAMETER INFORMATION
-------------------------

 Group 1, Type Re ECP (replacing 60 core electrons, lmax=3)

Atom   0Re   ECP group =>   1

------------------------------------------------------------------------------
                           ORCA GTO INTEGRAL CALCULATION
------------------------------------------------------------------------------

                         BASIS SET STATISTICS AND STARTUP INFO

 # of primitive gaussian shells          ...   25
 # of primitive gaussian functions       ...   67
 # of contracted shells                  ...   17
 # of contracted basis functions         ...   45
 Highest angular momentum                ...    2
 Maximum contraction depth               ...    4
 Integral package used                   ... LIBINT
 Integral threshhold            Thresh   ...  1.000e-10
 Primitive cut-off              TCut     ...  1.000e-11
 Storage cut-off                TCutStore... -1.000e+00
 Buffer length                           ... 1048576 integrals/buffer
 Generate file with integrals 4 distinct ...false


------------------------------ INTEGRAL EVALUATION ----------------------------


 * One electron integrals 

   ECP integrals                         ... done
 Pre-screening matrix                    ... done
 Shell pair data                         ... done (   0.000 sec)
 Statistics run                          ... done
 Maximum amount of storage needed        ...     6 MB
 Maximum amount of storage dedicated     ... 500000 MB
 Beginning two electron integral evaluation:
 Starting repulsion integrals
  <ss|ss>  ...          406 b.         0 skpd (  0.0%)     0.000 s. (  0.000 ms/b)
  <ss|sp>  ...         1176 b.         0 skpd (  0.0%)     0.000 s. (  0.000 ms/b)
  <ss|sd>  ...          784 b.         0 skpd (  0.0%)     0.000 s. (  0.000 ms/b)
  <ss|pp>  ...          588 b.         0 skpd (  0.0%)     0.000 s. (  0.000 ms/b)
  <ss|pd>  ...          672 b.         0 skpd (  0.0%)     0.001 s. (  0.001 ms/b)
  <ss|dd>  ...          280 b.         0 skpd (  0.0%)     0.000 s. (  0.001 ms/b)
  <sp|sp>  ...          903 b.         0 skpd (  0.0%)     0.000 s. (  0.000 ms/b)
  <sp|sd>  ...         1176 b.         0 skpd (  0.0%)     0.001 s. (  0.001 ms/b)
  <sp|pp>  ...          882 b.         0 skpd (  0.0%)     0.001 s. (  0.001 ms/b)
  <sp|pd>  ...         1008 b.         0 skpd (  0.0%)     0.002 s. (  0.002 ms/b)
  <sp|dd>  ...          420 b.         0 skpd (  0.0%)     0.001 s. (  0.003 ms/b)
  <sd|sd>  ...          406 b.         0 skpd (  0.0%)     0.001 s. (  0.001 ms/b)
  <sd|pp>  ...          588 b.         0 skpd (  0.0%)     0.001 s. (  0.002 ms/b)
  <sd|pd>  ...          672 b.         0 skpd (  0.0%)     0.002 s. (  0.003 ms/b)
  <sd|dd>  ...          280 b.         0 skpd (  0.0%)     0.002 s. (  0.006 ms/b)
  <pp|pp>  ...          231 b.         0 skpd (  0.0%)     0.001 s. (  0.003 ms/b)
  <pp|pd>  ...          504 b.         0 skpd (  0.0%)     0.002 s. (  0.004 ms/b)
  <pp|dd>  ...          210 b.         0 skpd (  0.0%)     0.002 s. (  0.009 ms/b)
  <pd|pd>  ...          300 b.         0 skpd (  0.0%)     0.003 s. (  0.009 ms/b)
  <pd|dd>  ...          240 b.         0 skpd (  0.0%)     0.004 s. (  0.017 ms/b)
  <dd|dd>  ...           55 b.         0 skpd (  0.0%)     0.002 s. (  0.040 ms/b)


                                      INTEGRAL STATISTICS

Integral type statistics:
 Number of integrals retained            ...     536130 
 One   Center Integrals retained         ...     536130 (100.0%)
 Two   Center Integrals retained         ...          0 (  0.0%)
 Three Center Integrals retained         ...          0 (  0.0%)
 Four  Center Integrals retained         ...          0 (  0.0%)

Storage statistics:
 Number of char integrals                ...          0 (  0.0%)
 Number of short int integrals           ...          0 (  0.0%)
 Number of double/float integrals        ...     536130 (100.0%)
 Amount of memory used                   ...          6 MB
 Amount of memory estimated              ...          6 MB ( 95.8%)

Prescreening statistics:
 Total number of shell quadruples        ...      11781 
 Number of skipped shell quadruples      ...          0 (  0.0%)
 # of negligible batches done            ...          0 (  0.0%)

Timings:
 Total evaluation time               ...     0.193 sec (   0.003 min)
 One electron matrix time            ...     0.017 sec (   0.000 min) =  9.0%
 Schwartz matrix evaluation time     ...     0.069 sec (   0.001 min) = 35.7%
 Statistics run                      ...     0.004 sec (   0.000 min) =  2.1%
 Repulsion integral time             ...     0.026 sec (   0.000 min) = 13.7%

-------------------------------------------------------------------------------
                                 ORCA SCF
-------------------------------------------------------------------------------

------------
SCF SETTINGS
------------
Hamiltonian:
 Ab initio Hamiltonian  Method          .... Hartree-Fock(GTOs)


General Settings:
 Integral files         IntName         .... 75_Re_atom75
 Hartree-Fock type      HFTyp           .... ROHF
 Total Charge           Charge          ....    0
 Multiplicity           Mult            ....    6
 Number of Electrons    NEL             ....   15
 Basis Dimension        Dim             ....   45
 Nuclear Repulsion      ENuc            ....      0.0000000000 Eh

Convergence Acceleration:
 DIIS                   CNVDIIS         .... on
   Start iteration      DIISMaxIt       ....    12
   Startup error        DIISStart       ....  0.200000
   # of expansion vecs  DIISMaxEq       ....     5
   Bias factor          DIISBfac        ....   1.050
   Max. coefficient     DIISMaxC        ....  10.000
 Newton-Raphson         CNVNR           .... off
 SOSCF                  CNVSOSCF        .... off
 Level Shifting         CNVShift        .... on
   Level shift para.    LevelShift      ....    0.5000
   Turn off err/grad.   ShiftErr        ....    0.0010
 Zerner damping         CNVZerner       .... off
 Static damping         CNVDamp         .... on
   Fraction old density DampFac         ....    0.7000
   Max. Damping (<1)    DampMax         ....    0.9800
   Min. Damping (>=0)   DampMin         ....    0.0000
   Turn off err/grad.   DampErr         ....    0.1000
 Fernandez-Rico         CNVRico         .... off

SCF Procedure:
 Maximum # iterations   MaxIter         ....  1000
 SCF integral mode      SCFMode         .... Conventional
 Integral Threshold     Thresh          ....  1.000e-10 Eh
 Primitive CutOff       TCut            ....  1.000e-11 Eh
 Integral Buffer length BufferLength    .... 1048576
 Integral index format  IndFormat       ....     0
 Integral value format  ValFormat       ....     0
 Integral Storage       Thresh          ....  1.000e-10 Eh

Convergence Tolerance:
 Convergence Check Mode ConvCheckMode   .... Total+1el-Energy
 Convergence forced     ConvForced      .... 0
 Energy Change          TolE            ....  1.000e-06 Eh
 1-El. energy change                    ....  1.000e-03 Eh
 DIIS Error             TolErr          ....  1.000e-06


Diagonalization of the overlap matrix:
Smallest eigenvalue                        ... 5.960e-03
Time for diagonalization                   ...    0.001 sec
Threshold for overlap eigenvalues          ... 1.000e-08
Number of eigenvalues below threshold      ... 0
Time for construction of square roots      ...    0.002 sec
Total time needed                          ...    0.003 sec

--------------------
INITIAL GUESS: HCORE
--------------------
AVERAGE-CONFIGURATION (SAHF) CASE FOUND

-------------------
FINAL ROHF SETTINGS
-------------------
Number of operators             ... 2
  operator   0:   5 orbitals  10 electrons n(mue)= 2.000
  operator   1:   5 orbitals   5 electrons n(mue)= 1.000
Vector coupling coefficients a and b (Zerner convention):
   1.000    1.000           1.000    1.000 
   1.000    1.000           1.000    2.000 

                      -----------------
                      INTIAL GUESS DONE 
                      -----------------

 InCore treatment chosen:
   Memory dedicated               ...    1024 MB
   Memory needed                  ...      6 MB
   Number of tiny    integrals    ...       0
   Number of small   integrals    ...       0
   Number of regular integrals    ...  536130

--------------
SCF ITERATIONS
--------------
ITER       Energy         Delta-E        Max-DP      RMS-DP      [F,P]     Damp
  0    -70.2562632058   0.000000000000 2.67908552  0.09019955  1.2539991 0.7000
  1    -74.9779905077  -4.721727301873 1.87543034  0.05872431  0.2624792 0.7000
                            ****Activating DIIS****
  2    -74.7847497219   0.193240785780 4.37038258  0.11951934  0.0800937 0.0000
  3    -74.4453422663   0.339407455573 0.08531469  0.00288997  0.3647844 0.7000
  4    -74.3323441977   0.112998068621 0.05686064  0.00195132  0.4203554 0.7000
  5    -74.3062712038   0.026072993883 0.07858675  0.00265155  0.4257057 0.7000
  6    -74.2360717552   0.070199448601 0.03556177  0.00121923  0.4499945 0.7000
  7    -74.2589395362  -0.022867780935 1.20553573  0.05245395  0.4286212 0.7000
  8    -76.8841079232  -2.625168387037 2.81291669  0.12528858  0.0952149 0.0000
  9    -76.9858790210  -0.101771097760 0.00616343  0.00025309  0.2433916 0.7000
 10    -76.9433076513   0.042571369664 0.00429508  0.00017393  0.2624429 0.7000
 11    -76.9366800669   0.006627584357 0.00311588  0.00012289  0.2626067 0.7000
 12    -76.9313451035   0.005334963466 0.00427677  0.00015926  0.2630606 0.7000
 13    -76.9137031021   0.017642001363 0.10249204  0.00346341  0.2696674 0.7000
 14    -77.2614252387  -0.347722136642 0.42851180  0.01377286  0.0685853 0.0000
 15    -77.4324543982  -0.171029159419 0.09569892  0.00330143  0.0704109 0.0000
 16    -77.4482635831  -0.015809184965 0.12203192  0.00394815  0.0232750 0.0000
 17    -77.4567710275  -0.008507444382 0.07633408  0.00207150  0.0131240 0.0000
 18    -77.4591168570  -0.002345829529 0.06297803  0.00148365  0.0097595 0.0000
 19    -77.4600026025  -0.000885745457 0.06619149  0.00145505  0.0078742 0.0000
 20    -77.4606421300  -0.000639527502 0.06721610  0.00140568  0.0055924 0.0000
 21    -77.4610439286  -0.000401798580 0.03702643  0.00075916  0.0041962 0.0000
 22    -77.4611765805  -0.000132651917 0.01655264  0.00034406  0.0042353 0.0000
 23    -77.4612192230  -0.000042642541 0.00768144  0.00016932  0.0042557 0.0000
 24    -77.4612371190  -0.000017895926 0.00422614  0.00009474  0.0042702 0.0000
 25    -77.4612454294  -0.000008310423 0.00268015  0.00005913  0.0042788 0.0000
 26    -77.4612498578  -0.000004428422 0.00178140  0.00003865  0.0042843 0.0000
 27    -77.4612524684  -0.000002610608 0.00192706  0.00004093  0.0042882 0.0000
 28    -77.4612548939  -0.000002425458 0.00196855  0.00004177  0.0042921 0.0000
 29    -77.4612571522  -0.000002258280 0.00175648  0.00003721  0.0042963 0.0000
 30    -77.4612590098  -0.000001857635 0.00150563  0.00003183  0.0043002 0.0000
 31    -77.4612605045  -0.000001494763 0.00128373  0.00002711  0.0043039 0.0000
 32    -77.4612617272  -0.000001222656 0.00113258  0.00002392  0.0043074 0.0000
 33    -77.4612627777  -0.000001050524 0.00102064  0.00002160  0.0043107 0.0000
                 **** Energy Check signals convergence ****

               *****************************************************
               *                     SUCCESS                       *
               *           SCF CONVERGED AFTER  34 CYCLES          *
               *****************************************************


----------------
TOTAL SCF ENERGY
----------------

Total Energy       :          -77.46126371 Eh           -2107.82815 eV

Components:
Nuclear Repulsion  :            0.00000000 Eh               0.00000 eV
Electronic Energy  :          -77.46126371 Eh           -2107.82815 eV
One Electron Energy:         -133.61946687 Eh           -3635.97054 eV
Two Electron Energy:           56.15820315 Eh            1528.14240 eV

Virial components:
Potential Energy   :         -104.50158693 Eh           -2843.63275 eV
Kinetic Energy     :           27.04032321 Eh             735.80460 eV
Virial Ratio       :            3.86465746


---------------
SCF CONVERGENCE
---------------

  Last Energy change         ...   -9.3666e-07  Tolerance :   1.0000e-06
  Last MAX-Density change    ...    9.1717e-04  Tolerance :   1.0000e-05
  Last RMS-Density change    ...    1.9478e-05  Tolerance :   1.0000e-06
  Last DIIS Error            ...    4.3140e-03  Tolerance :   1.0000e-06

             **** THE GBW FILE WAS UPDATED (75_Re_atom75.gbw) ****
             **** DENSITY FILE WAS UPDATED (75_Re_atom75.scfp) ****
             **** ENERGY FILE WAS UPDATED (75_Re_atom75.en.tmp) ****
             **** THE GBW FILE WAS UPDATED (75_Re_atom75.gbw) ****
             **** DENSITY FILE WAS UPDATED (75_Re_atom75.scfp) ****
----------------
ORBITAL ENERGIES
----------------

  NO   OCC          E(Eh)            E(eV) 
   0   2.0000      -3.582540       -97.4859 
   1   2.0000      -1.990134       -54.1543 
   2   2.0000      -1.987609       -54.0856 
   3   2.0000      -1.979356       -53.8610 
   4   2.0000      -0.259205        -7.0533 
   5   1.0000      -0.363038        -9.8788 
   6   1.0000      -0.362442        -9.8626 
   7   1.0000      -0.348282        -9.4772 
   8   1.0000      -0.343696        -9.3525 
   9   1.0000      -0.288207        -7.8425 
  10   0.0000       0.026045         0.7087 
  11   0.0000       0.027108         0.7376 
  12   0.0000       0.030269         0.8236 
  13   0.0000       0.095011         2.5854 
  14   0.0000       0.096937         2.6378 
  15   0.0000       0.102799         2.7973 
  16   0.0000       0.113144         3.0788 
  17   0.0000       0.340186         9.2569 
  18   0.0000       0.340311         9.2603 
  19   0.0000       0.356480         9.7003 
  20   0.0000       0.345610         9.4045 
  21   0.0000       0.347394         9.4531 
  22   0.0000       0.347515         9.4564 
  23   0.0000       0.351209         9.5569 
  24   0.0000       0.362208         9.8562 
  25   0.0000       0.627155        17.0658 
  26   0.0000       1.279655        34.8212 
  27   0.0000       1.286865        35.0174 
  28   0.0000       1.309663        35.6377 
  29   0.0000       1.333903        36.2974 
  30   0.0000       1.334118        36.3032 
  31   0.0000       1.344317        36.5807 
  32   0.0000       1.369263        37.2595 
  33   0.0000       1.347646        36.6713 
  34   0.0000       3.051310        83.0304 
  35   0.0000       4.861755       132.2951 
  36   0.0000       4.861998       132.3017 
  37   0.0000       4.875288       132.6633 
  38   0.0000       4.879322       132.7731 
  39   0.0000       4.906392       133.5097 
  40   0.0000      39.469473      1074.0190 
  41   0.0000      39.474989      1074.1691 
  42   0.0000      39.494152      1074.6905 
  43   0.0000      73.594498      2002.6081 
  44   0.0000     530.787279     14443.4561 
CleanUpVectors: The p-vectors have cracked symmetry
CleanUpVectors: The p-vectors have cracked symmetry
CleanUpVectors: The p-vectors have cracked symmetry
CleanUpVectors: The d-vectors have cracked symmetry at i=4
CleanUpVectors: The d-vectors have cracked symmetry at i=6
CleanUpVectors: The d-vectors have cracked symmetry at i=7
CleanUpVectors: The d-vectors have cracked symmetry at i=8
CleanUpVectors: The d-vectors have cracked symmetry at i=9
CleanUpVectors: The p-vectors have cracked symmetry
CleanUpVectors: The p-vectors have cracked symmetry
CleanUpVectors: The p-vectors have cracked symmetry
CleanUpVectors: The p-vectors have cracked symmetry
CleanUpVectors: The p-vectors have cracked symmetry
CleanUpVectors: The p-vectors have cracked symmetry
CleanUpVectors: The d-vectors have cracked symmetry at i=17
CleanUpVectors: The d-vectors have cracked symmetry at i=18
CleanUpVectors: The d-vectors have cracked symmetry at i=19
CleanUpVectors: The d-vectors have cracked symmetry at i=20
CleanUpVectors: The d-vectors have cracked symmetry at i=21
CleanUpVectors: The p-vectors have cracked symmetry
CleanUpVectors: The p-vectors have cracked symmetry
CleanUpVectors: The p-vectors have cracked symmetry
CleanUpVectors: The p-vectors have cracked symmetry
CleanUpVectors: The p-vectors have cracked symmetry
CleanUpVectors: The p-vectors have cracked symmetry
CleanUpVectors: The d-vectors have cracked symmetry at i=29
CleanUpVectors: The d-vectors have cracked symmetry at i=30
CleanUpVectors: The d-vectors have cracked symmetry at i=31
CleanUpVectors: The d-vectors have cracked symmetry at i=32
CleanUpVectors: The d-vectors have cracked symmetry at i=33
CleanUpVectors: The d-vectors have cracked symmetry at i=35
CleanUpVectors: The d-vectors have cracked symmetry at i=36
CleanUpVectors: The d-vectors have cracked symmetry at i=37
CleanUpVectors: The d-vectors have cracked symmetry at i=38
CleanUpVectors: The d-vectors have cracked symmetry at i=39
CleanUpVectors: The p-vectors have cracked symmetry
CleanUpVectors: The p-vectors have cracked symmetry
CleanUpVectors: The p-vectors have cracked symmetry
--------------------------
ATOM BASIS FOR ELEMENT Re
--------------------------
 NewGTO Re
 S 10
    1         24.000000000000         0.262704749354
    2         18.204262749000        -1.320864333023
    3         14.048192487000         1.851214802221
    4          9.516678695400        -0.736707500788
    5          4.171466798100        -0.664593909797
    6          1.194421397600         0.815100356787
    7          0.567554478000         0.540501225235
    8          0.175338548700         0.040190164872
    9          0.082014250500        -0.014246611365
   10          0.034607892700         0.001068263293
 P 25
    1         18.000000000000        -0.018503509876
    2         12.318606250000         0.068610883764
    3          5.371923450500        -0.201538591092
    4          1.350664674800         0.354136531783
    5         18.000000000000         0.000994133573
    6         12.318606250000        -0.003686240260
    7          5.371923450500         0.010828014852
    8          1.350664674800        -0.019026607287
    9         18.000000000000         0.019326209658
   10         12.318606250000        -0.071661448738
   11          5.371923450500         0.210499364269
   12          1.350664674800        -0.369882087598
   13          0.662128168100         0.336940439244
   14          0.662128168100        -0.018102717006
   15          0.662128168100        -0.351921425435
   16          0.310713851900         0.112442028042
   17          0.310713851900        -0.006041145485
   18          0.310713851900        -0.117441405597
   19          0.108000000000         0.006243540445
   20          0.108000000000        -0.000335445179
   21          0.108000000000        -0.006521139636
   22          0.045000000000         0.000030806791
   23          0.045000000000        -0.000032176517
   24          0.021930251700        -0.000064287706
   25          0.021930251700         0.000067146055
 D 25
    1         24.000000000000        -0.000057935363
    2         18.204262749000         0.000384036206
    3         14.048192487000        -0.000697466603
    4          9.516678695400         0.000409729032
    5          4.171466798100         0.000921867779
    6          1.194421397600        -0.005453341773
    7          0.567554478000        -0.008269698945
    8          0.175338548700         0.036228519774
    9          0.082014250500         0.089808378217
   10          0.034607892700        -0.044933262698
   11          7.735287767200         0.018428304450
   12          6.094944361000        -0.038925408609
   13          1.387110549700         0.121326060181
   14          7.735287767200        -0.005104501328
   15          6.094944361000         0.010782044570
   16          1.387110549700        -0.033606403508
   17          7.735287767200         0.003696033025
   18          6.094944361000        -0.007806990390
   19          1.387110549700         0.024333498857
   20          7.735287767200        -0.031963189838
   21          6.094944361000         0.067514633713
   22          1.387110549700        -0.210435414958
   23          7.735287767200        -0.001785610322
   24          6.094944361000         0.003771676965
   25          1.387110549700        -0.011755887037
 S 10
    1         24.000000000000         0.419661204837
    2         18.204262749000        -2.110032341576
    3         14.048192487000         2.957247770443
    4          9.516678695400        -1.176863220605
    5          4.171466798100        -1.348805907357
    6          1.194421397600         5.557180671585
    7          0.567554478000        -6.589916826075
    8          0.175338548700         4.653674547820
    9          0.082014250500        -3.038368507521
   10          0.034607892700         0.831575486727
 S 10
    1         24.000000000000         2.078972319054
    2         18.204262749000       -10.452952953214
    3         14.048192487000        14.649999057527
    4          9.516678695400        -5.830098257243
    5          4.171466798100        -1.928311155311
    6          1.194421397600         2.394805645371
    7          0.567554478000        -1.873472116907
    8          0.175338548700         1.028664479147
    9          0.082014250500        -0.666324351279
   10          0.034607892700         0.186855395366
 S 10
    1         24.000000000000         2.288657236435
    2         18.204262749000       -11.507236628032
    3         14.048192487000        16.127596336648
    4          9.516678695400        -6.418121320459
    5          4.171466798100         0.240175965197
    6          1.194421397600         0.321507844488
    7          0.567554478000        -0.282240842545
    8          0.175338548700         0.164286923032
    9          0.082014250500        -0.107941377511
   10          0.034607892700         0.030504638265
 D 25
    1          7.735287767200        -0.033192261587
    2          6.094944361000         0.070110755357
    3          1.387110549700        -0.218527230101
    4          7.735287767200         0.002953874802
    5          6.094944361000        -0.006239357721
    6          1.387110549700         0.019447366575
    7          7.735287767200         0.001568838602
    8          6.094944361000        -0.003313798282
    9          1.387110549700         0.010328731391
   10          7.735287767200        -0.019370331681
   11          6.094944361000         0.040915217005
   12          1.387110549700        -0.127528066065
   13          7.735287767200        -0.001018750665
   14          6.094944361000         0.002151868393
   15          1.387110549700        -0.006707128416
   16          0.623240278500        -0.360527797367
   17          0.623240278500         0.032084405375
   18          0.623240278500         0.017040415404
   19          0.623240278500        -0.210396721451
   20          0.623240278500        -0.011065468745
   21          0.265173285500        -0.324295108467
   22          0.265173285500         0.028859954203
   23          0.265173285500         0.015327870422
   24          0.265173285500        -0.189252057962
   25          0.265173285500        -0.009953400024
 P 25
    1         18.000000000000         0.000158418684
    2         12.318606250000        -0.000587415361
    3          5.371923450500         0.001725482280
    4          1.350664674800        -0.003031956843
    5         18.000000000000         0.002030429834
    6         12.318606250000        -0.007528819467
    7          5.371923450500         0.022115261962
    8          1.350664674800        -0.038860161363
    9         18.000000000000         0.000047230328
   10         12.318606250000        -0.000175129722
   11          5.371923450500         0.000514428550
   12          1.350664674800        -0.000903935775
   13          0.662128168100        -0.003617279039
   14          0.662128168100        -0.046362153043
   15          0.662128168100        -0.001078441449
   16          0.310713851900        -0.004163248457
   17          0.310713851900        -0.053359765733
   18          0.310713851900        -0.001241214639
   19          0.108000000000         0.021536023748
   20          0.108000000000         0.276024165720
   21          0.108000000000         0.006420666032
   22          0.045000000000        -0.048140763600
   23          0.045000000000        -0.617013347733
   24          0.045000000000        -0.014352499293
   25          0.021930251700         0.108000141595
 P 25
    1         18.000000000000         0.000363470924
    2         12.318606250000        -0.001347747614
    3          5.371923450500         0.003958893115
    4          1.350664674800        -0.006956427897
    5         18.000000000000         0.004658555341
    6         12.318606250000        -0.017273890260
    7          5.371923450500         0.050740572262
    8          1.350664674800        -0.089159550953
    9         18.000000000000         0.000108363802
   10         12.318606250000        -0.000401812211
   11          5.371923450500         0.001180288936
   12          1.350664674800        -0.002073962252
   13          0.662128168100        -0.013974711513
   14          0.662128168100        -0.179111897893
   15          0.662128168100        -0.004166365926
   16          0.310713851900         0.012485507076
   17          0.310713851900         0.160024975571
   18          0.310713851900         0.003722380330
   19          0.108000000000        -0.035141183421
   20          0.108000000000        -0.450399570028
   21          0.108000000000        -0.010476855216
   22          0.045000000000         0.188099691299
   23          0.045000000000         2.410847098342
   24          0.045000000000         0.056079307526
   25          0.021930251700        -0.132563572364
 D 25
    1         24.000000000000        -0.000028152776
    2         18.204262749000         0.000186616339
    3         14.048192487000        -0.000338922898
    4          9.516678695400         0.000199101362
    5          4.171466798100         0.000440493918
    6          1.194421397600        -0.001403147876
    7          0.567554478000        -0.014490958891
    8          0.175338548700         0.142832413320
    9          0.082014250500        -0.322701975397
   10          0.034607892700         0.315871522687
   11          7.735287767200         0.013813151652
   12          6.094944361000        -0.029176996381
   13          1.387110549700         0.090941370827
   14          7.735287767200        -0.003842877410
   15          6.094944361000         0.008117164214
   16          1.387110549700        -0.025300275300
   17          7.735287767200         0.003750456364
   18          6.094944361000        -0.007921946744
   19          1.387110549700         0.024691804705
   20          7.735287767200        -0.023877732137
   21          6.094944361000         0.050436028047
   22          1.387110549700        -0.157203348478
   23          7.735287767200        -0.001411208613
   24          6.094944361000         0.002980842435
   25          1.387110549700        -0.009290945980
 P 25
    1         18.000000000000         0.005467627500
    2         12.318606250000        -0.020273924105
    3          5.371923450500         0.059552914578
    4          1.350664674800        -0.104644289275
    5         18.000000000000        -0.000549023205
    6         12.318606250000         0.002035774160
    7          5.371923450500        -0.005979912128
    8          1.350664674800         0.010507691504
    9         18.000000000000         0.005263116962
   10         12.318606250000        -0.019515600475
   11          5.371923450500         0.057325403904
   12          1.350664674800        -0.100730185775
   13          0.662128168100        -0.090769575045
   14          0.662128168100         0.009114483926
   15          0.662128168100        -0.087374439832
   16          0.310713851900        -0.387952711614
   17          0.310713851900         0.038955660554
   18          0.310713851900        -0.373441771010
   19          0.108000000000         1.944112655097
   20          0.108000000000        -0.195215010499
   21          0.108000000000         1.871395278927
   22          0.045000000000        -2.178078027649
   23          0.045000000000         0.218708274915
   24          0.045000000000        -2.096609436389
   25          0.021930251700         0.928613538507
 P 25
    1         18.000000000000         0.014519200749
    2         12.318606250000        -0.053837093698
    3          5.371923450500         0.158141848890
    4          1.350664674800        -0.277881301005
    5         18.000000000000        -0.001457922677
    6         12.318606250000         0.005405966976
    7          5.371923450500        -0.015879564700
    8          1.350664674800         0.027903013208
    9         18.000000000000         0.013976126158
   10         12.318606250000        -0.051823376957
   11          5.371923450500         0.152226728539
   12          1.350664674800        -0.267487459336
   13          0.662128168100        -1.104186482086
   14          0.662128168100         0.110875146625
   15          0.662128168100        -1.062885612156
   16          0.310713851900         2.316918374413
   17          0.310713851900        -0.232649709672
   18          0.310713851900         2.230256613947
   19          0.108000000000        -1.911803283099
   20          0.108000000000         0.191970715790
   21          0.108000000000        -1.840294403025
   22          0.045000000000         1.273537451378
   23          0.045000000000        -0.127880257497
   24          0.045000000000         1.225902196389
   25          0.021930251700        -0.477354280676
 D 25
    1          7.735287767200        -0.012567450683
    2          6.094944361000         0.026545749467
    3          1.387110549700        -0.082740074222
    4          7.735287767200         0.001118413574
    5          6.094944361000        -0.002362382577
    6          1.387110549700         0.007363277122
    7          7.735287767200         0.000594002964
    8          6.094944361000        -0.001254689934
    9          1.387110549700         0.003910725460
   10          7.735287767200        -0.007334109714
   11          6.094944361000         0.015491561808
   12          1.387110549700        -0.048285431736
   13          7.735287767200        -0.000385725411
   14          6.094944361000         0.000814753157
   15          1.387110549700        -0.002539492688
   16          0.623240278500        -1.153617420449
   17          0.623240278500         0.102663731439
   18          0.623240278500         0.054525948396
   19          0.623240278500        -0.673227764520
   20          0.623240278500        -0.035407304522
   21          0.265173285500         1.724225341743
   22          0.265173285500        -0.153443771121
   23          0.265173285500        -0.081495841117
   24          0.265173285500         1.006222991933
   25          0.265173285500         0.052920639596
 D 25
    1          7.735287767200        -0.277667633991
    2          6.094944361000         0.586506812938
    3          1.387110549700        -1.828074859752
    4          7.735287767200         0.024710441174
    5          6.094944361000        -0.052194927767
    6          1.387110549700         0.162685638346
    7          7.735287767200         0.013124013946
    8          6.094944361000        -0.027721356939
    9          1.387110549700         0.086404308663
   10          7.735287767200        -0.162041208112
   11          6.094944361000         0.342273498602
   12          1.387110549700        -1.066827467559
   13          7.735287767200        -0.008522290232
   14          6.094944361000         0.018001310455
   15          1.387110549700        -0.056108032097
   16          0.623240278500         2.266146890162
   17          0.623240278500        -0.201670927996
   18          0.623240278500        -0.107109867153
   19          0.623240278500         1.322477433051
   20          0.623240278500         0.069553520618
   21          0.265173285500        -1.253542758180
   22          0.265173285500         0.111556374577
   23          0.265173285500         0.059248938752
   24          0.265173285500        -0.731542168010
   25          0.265173285500        -0.038474254452
 P 25
    1         18.000000000000         0.126477235292
    2         12.318606250000        -0.468976694033
    3          5.371923450500         1.377578847337
    4          1.350664674800        -2.420633153230
    5         18.000000000000        -0.012700012388
    6         12.318606250000         0.047091556123
    7          5.371923450500        -0.138327410356
    8          1.350664674800         0.243064065738
    9         18.000000000000         0.121746494796
   10         12.318606250000        -0.451435141728
   11          5.371923450500         1.326052040757
   12          1.350664674800        -2.330092058955
   13          0.662128168100         3.217146845460
   14          0.662128168100        -0.323044733685
   15          0.662128168100         3.096813041289
   16          0.310713851900        -2.075272764789
   17          0.310713851900         0.208385246253
   18          0.310713851900        -1.997649492220
   19          0.108000000000         1.027261276046
   20          0.108000000000        -0.103150823163
   21          0.108000000000         0.988837709090
   22          0.045000000000        -0.647987767932
   23          0.045000000000         0.065066671177
   24          0.045000000000        -0.623750505253
   25          0.021930251700         0.247902625844
 end
  // -----------------------------------------------
  // The basis set
  // -----------------------------------------------
  BAS[ATNO] = new BFNGauss[NSH];
  // Basis function   1 L = s
  InitBFNGauss(BAS[ATNO][  0]);
  BAS[ATNO][  0].l  = 0;
  BAS[ATNO][  0].ng = 10;
  BAS[ATNO][  0].a[  0] =        24.000000000000;     BAS[ATNO][  0].d[  0] =         0.262704749354;
  BAS[ATNO][  0].a[  1] =        18.204262749000;     BAS[ATNO][  0].d[  1] =        -1.320864333023;
  BAS[ATNO][  0].a[  2] =        14.048192487000;     BAS[ATNO][  0].d[  2] =         1.851214802221;
  BAS[ATNO][  0].a[  3] =         9.516678695400;     BAS[ATNO][  0].d[  3] =        -0.736707500788;
  BAS[ATNO][  0].a[  4] =         4.171466798100;     BAS[ATNO][  0].d[  4] =        -0.664593909797;
  BAS[ATNO][  0].a[  5] =         1.194421397600;     BAS[ATNO][  0].d[  5] =         0.815100356787;
  BAS[ATNO][  0].a[  6] =         0.567554478000;     BAS[ATNO][  0].d[  6] =         0.540501225235;
  BAS[ATNO][  0].a[  7] =         0.175338548700;     BAS[ATNO][  0].d[  7] =         0.040190164872;
  BAS[ATNO][  0].a[  8] =         0.082014250500;     BAS[ATNO][  0].d[  8] =        -0.014246611365;
  BAS[ATNO][  0].a[  9] =         0.034607892700;     BAS[ATNO][  0].d[  9] =         0.001068263293;

  // Basis function   2 L = p
  InitBFNGauss(BAS[ATNO][  1]);
  BAS[ATNO][  1].l  = 1;
  BAS[ATNO][  1].ng = 25;
  BAS[ATNO][  1].a[  0] =        18.000000000000;     BAS[ATNO][  1].d[  0] =         0.018503509876;
  BAS[ATNO][  1].a[  1] =        12.318606250000;     BAS[ATNO][  1].d[  1] =        -0.068610883764;
  BAS[ATNO][  1].a[  2] =         5.371923450500;     BAS[ATNO][  1].d[  2] =         0.201538591092;
  BAS[ATNO][  1].a[  3] =         1.350664674800;     BAS[ATNO][  1].d[  3] =        -0.354136531783;
  BAS[ATNO][  1].a[  4] =        18.000000000000;     BAS[ATNO][  1].d[  4] =        -0.000994133573;
  BAS[ATNO][  1].a[  5] =        12.318606250000;     BAS[ATNO][  1].d[  5] =         0.003686240260;
  BAS[ATNO][  1].a[  6] =         5.371923450500;     BAS[ATNO][  1].d[  6] =        -0.010828014852;
  BAS[ATNO][  1].a[  7] =         1.350664674800;     BAS[ATNO][  1].d[  7] =         0.019026607287;
  BAS[ATNO][  1].a[  8] =        18.000000000000;     BAS[ATNO][  1].d[  8] =        -0.019326209658;
  BAS[ATNO][  1].a[  9] =        12.318606250000;     BAS[ATNO][  1].d[  9] =         0.071661448738;
  BAS[ATNO][  1].a[ 10] =         5.371923450500;     BAS[ATNO][  1].d[ 10] =        -0.210499364269;
  BAS[ATNO][  1].a[ 11] =         1.350664674800;     BAS[ATNO][  1].d[ 11] =         0.369882087598;
  BAS[ATNO][  1].a[ 12] =         0.662128168100;     BAS[ATNO][  1].d[ 12] =        -0.336940439244;
  BAS[ATNO][  1].a[ 13] =         0.662128168100;     BAS[ATNO][  1].d[ 13] =         0.018102717006;
  BAS[ATNO][  1].a[ 14] =         0.662128168100;     BAS[ATNO][  1].d[ 14] =         0.351921425435;
  BAS[ATNO][  1].a[ 15] =         0.310713851900;     BAS[ATNO][  1].d[ 15] =        -0.112442028042;
  BAS[ATNO][  1].a[ 16] =         0.310713851900;     BAS[ATNO][  1].d[ 16] =         0.006041145485;
  BAS[ATNO][  1].a[ 17] =         0.310713851900;     BAS[ATNO][  1].d[ 17] =         0.117441405597;
  BAS[ATNO][  1].a[ 18] =         0.108000000000;     BAS[ATNO][  1].d[ 18] =        -0.006243540445;
  BAS[ATNO][  1].a[ 19] =         0.108000000000;     BAS[ATNO][  1].d[ 19] =         0.000335445179;
  BAS[ATNO][  1].a[ 20] =         0.108000000000;     BAS[ATNO][  1].d[ 20] =         0.006521139636;
  BAS[ATNO][  1].a[ 21] =         0.045000000000;     BAS[ATNO][  1].d[ 21] =        -0.000030806791;
  BAS[ATNO][  1].a[ 22] =         0.045000000000;     BAS[ATNO][  1].d[ 22] =         0.000032176517;
  BAS[ATNO][  1].a[ 23] =         0.021930251700;     BAS[ATNO][  1].d[ 23] =         0.000064287706;
  BAS[ATNO][  1].a[ 24] =         0.021930251700;     BAS[ATNO][  1].d[ 24] =        -0.000067146055;

  // Basis function   3 L = d
  InitBFNGauss(BAS[ATNO][  2]);
  BAS[ATNO][  2].l  = 2;
  BAS[ATNO][  2].ng = 25;
  BAS[ATNO][  2].a[  0] =        24.000000000000;     BAS[ATNO][  2].d[  0] =         0.000057935363;
  BAS[ATNO][  2].a[  1] =        18.204262749000;     BAS[ATNO][  2].d[  1] =        -0.000384036206;
  BAS[ATNO][  2].a[  2] =        14.048192487000;     BAS[ATNO][  2].d[  2] =         0.000697466603;
  BAS[ATNO][  2].a[  3] =         9.516678695400;     BAS[ATNO][  2].d[  3] =        -0.000409729032;
  BAS[ATNO][  2].a[  4] =         4.171466798100;     BAS[ATNO][  2].d[  4] =        -0.000921867779;
  BAS[ATNO][  2].a[  5] =         1.194421397600;     BAS[ATNO][  2].d[  5] =         0.005453341773;
  BAS[ATNO][  2].a[  6] =         0.567554478000;     BAS[ATNO][  2].d[  6] =         0.008269698945;
  BAS[ATNO][  2].a[  7] =         0.175338548700;     BAS[ATNO][  2].d[  7] =        -0.036228519774;
  BAS[ATNO][  2].a[  8] =         0.082014250500;     BAS[ATNO][  2].d[  8] =        -0.089808378217;
  BAS[ATNO][  2].a[  9] =         0.034607892700;     BAS[ATNO][  2].d[  9] =         0.044933262698;
  BAS[ATNO][  2].a[ 10] =         7.735287767200;     BAS[ATNO][  2].d[ 10] =        -0.018428304450;
  BAS[ATNO][  2].a[ 11] =         6.094944361000;     BAS[ATNO][  2].d[ 11] =         0.038925408609;
  BAS[ATNO][  2].a[ 12] =         1.387110549700;     BAS[ATNO][  2].d[ 12] =        -0.121326060181;
  BAS[ATNO][  2].a[ 13] =         7.735287767200;     BAS[ATNO][  2].d[ 13] =         0.005104501328;
  BAS[ATNO][  2].a[ 14] =         6.094944361000;     BAS[ATNO][  2].d[ 14] =        -0.010782044570;
  BAS[ATNO][  2].a[ 15] =         1.387110549700;     BAS[ATNO][  2].d[ 15] =         0.033606403508;
  BAS[ATNO][  2].a[ 16] =         7.735287767200;     BAS[ATNO][  2].d[ 16] =        -0.003696033025;
  BAS[ATNO][  2].a[ 17] =         6.094944361000;     BAS[ATNO][  2].d[ 17] =         0.007806990390;
  BAS[ATNO][  2].a[ 18] =         1.387110549700;     BAS[ATNO][  2].d[ 18] =        -0.024333498857;
  BAS[ATNO][  2].a[ 19] =         7.735287767200;     BAS[ATNO][  2].d[ 19] =         0.031963189838;
  BAS[ATNO][  2].a[ 20] =         6.094944361000;     BAS[ATNO][  2].d[ 20] =        -0.067514633713;
  BAS[ATNO][  2].a[ 21] =         1.387110549700;     BAS[ATNO][  2].d[ 21] =         0.210435414958;
  BAS[ATNO][  2].a[ 22] =         7.735287767200;     BAS[ATNO][  2].d[ 22] =         0.001785610322;
  BAS[ATNO][  2].a[ 23] =         6.094944361000;     BAS[ATNO][  2].d[ 23] =        -0.003771676965;
  BAS[ATNO][  2].a[ 24] =         1.387110549700;     BAS[ATNO][  2].d[ 24] =         0.011755887037;

  // Basis function   4 L = s
  InitBFNGauss(BAS[ATNO][  3]);
  BAS[ATNO][  3].l  = 0;
  BAS[ATNO][  3].ng = 10;
  BAS[ATNO][  3].a[  0] =        24.000000000000;     BAS[ATNO][  3].d[  0] =        -0.419661204837;
  BAS[ATNO][  3].a[  1] =        18.204262749000;     BAS[ATNO][  3].d[  1] =         2.110032341576;
  BAS[ATNO][  3].a[  2] =        14.048192487000;     BAS[ATNO][  3].d[  2] =        -2.957247770443;
  BAS[ATNO][  3].a[  3] =         9.516678695400;     BAS[ATNO][  3].d[  3] =         1.176863220605;
  BAS[ATNO][  3].a[  4] =         4.171466798100;     BAS[ATNO][  3].d[  4] =         1.348805907357;
  BAS[ATNO][  3].a[  5] =         1.194421397600;     BAS[ATNO][  3].d[  5] =        -5.557180671585;
  BAS[ATNO][  3].a[  6] =         0.567554478000;     BAS[ATNO][  3].d[  6] =         6.589916826075;
  BAS[ATNO][  3].a[  7] =         0.175338548700;     BAS[ATNO][  3].d[  7] =        -4.653674547820;
  BAS[ATNO][  3].a[  8] =         0.082014250500;     BAS[ATNO][  3].d[  8] =         3.038368507521;
  BAS[ATNO][  3].a[  9] =         0.034607892700;     BAS[ATNO][  3].d[  9] =        -0.831575486727;

  // Basis function   5 L = s
  InitBFNGauss(BAS[ATNO][  4]);
  BAS[ATNO][  4].l  = 0;
  BAS[ATNO][  4].ng = 10;
  BAS[ATNO][  4].a[  0] =        24.000000000000;     BAS[ATNO][  4].d[  0] =         2.078972319054;
  BAS[ATNO][  4].a[  1] =        18.204262749000;     BAS[ATNO][  4].d[  1] =       -10.452952953214;
  BAS[ATNO][  4].a[  2] =        14.048192487000;     BAS[ATNO][  4].d[  2] =        14.649999057527;
  BAS[ATNO][  4].a[  3] =         9.516678695400;     BAS[ATNO][  4].d[  3] =        -5.830098257243;
  BAS[ATNO][  4].a[  4] =         4.171466798100;     BAS[ATNO][  4].d[  4] =        -1.928311155311;
  BAS[ATNO][  4].a[  5] =         1.194421397600;     BAS[ATNO][  4].d[  5] =         2.394805645371;
  BAS[ATNO][  4].a[  6] =         0.567554478000;     BAS[ATNO][  4].d[  6] =        -1.873472116907;
  BAS[ATNO][  4].a[  7] =         0.175338548700;     BAS[ATNO][  4].d[  7] =         1.028664479147;
  BAS[ATNO][  4].a[  8] =         0.082014250500;     BAS[ATNO][  4].d[  8] =        -0.666324351279;
  BAS[ATNO][  4].a[  9] =         0.034607892700;     BAS[ATNO][  4].d[  9] =         0.186855395366;

  // Basis function   6 L = s
  InitBFNGauss(BAS[ATNO][  5]);
  BAS[ATNO][  5].l  = 0;
  BAS[ATNO][  5].ng = 10;
  BAS[ATNO][  5].a[  0] =        24.000000000000;     BAS[ATNO][  5].d[  0] =         2.288657236435;
  BAS[ATNO][  5].a[  1] =        18.204262749000;     BAS[ATNO][  5].d[  1] =       -11.507236628032;
  BAS[ATNO][  5].a[  2] =        14.048192487000;     BAS[ATNO][  5].d[  2] =        16.127596336648;
  BAS[ATNO][  5].a[  3] =         9.516678695400;     BAS[ATNO][  5].d[  3] =        -6.418121320459;
  BAS[ATNO][  5].a[  4] =         4.171466798100;     BAS[ATNO][  5].d[  4] =         0.240175965197;
  BAS[ATNO][  5].a[  5] =         1.194421397600;     BAS[ATNO][  5].d[  5] =         0.321507844488;
  BAS[ATNO][  5].a[  6] =         0.567554478000;     BAS[ATNO][  5].d[  6] =        -0.282240842545;
  BAS[ATNO][  5].a[  7] =         0.175338548700;     BAS[ATNO][  5].d[  7] =         0.164286923032;
  BAS[ATNO][  5].a[  8] =         0.082014250500;     BAS[ATNO][  5].d[  8] =        -0.107941377511;
  BAS[ATNO][  5].a[  9] =         0.034607892700;     BAS[ATNO][  5].d[  9] =         0.030504638265;

  // Basis function   7 L = d
  InitBFNGauss(BAS[ATNO][  6]);
  BAS[ATNO][  6].l  = 2;
  BAS[ATNO][  6].ng = 25;
  BAS[ATNO][  6].a[  0] =         7.735287767200;     BAS[ATNO][  6].d[  0] =         0.033192261587;
  BAS[ATNO][  6].a[  1] =         6.094944361000;     BAS[ATNO][  6].d[  1] =        -0.070110755357;
  BAS[ATNO][  6].a[  2] =         1.387110549700;     BAS[ATNO][  6].d[  2] =         0.218527230101;
  BAS[ATNO][  6].a[  3] =         7.735287767200;     BAS[ATNO][  6].d[  3] =        -0.002953874802;
  BAS[ATNO][  6].a[  4] =         6.094944361000;     BAS[ATNO][  6].d[  4] =         0.006239357721;
  BAS[ATNO][  6].a[  5] =         1.387110549700;     BAS[ATNO][  6].d[  5] =        -0.019447366575;
  BAS[ATNO][  6].a[  6] =         7.735287767200;     BAS[ATNO][  6].d[  6] =        -0.001568838602;
  BAS[ATNO][  6].a[  7] =         6.094944361000;     BAS[ATNO][  6].d[  7] =         0.003313798282;
  BAS[ATNO][  6].a[  8] =         1.387110549700;     BAS[ATNO][  6].d[  8] =        -0.010328731391;
  BAS[ATNO][  6].a[  9] =         7.735287767200;     BAS[ATNO][  6].d[  9] =         0.019370331681;
  BAS[ATNO][  6].a[ 10] =         6.094944361000;     BAS[ATNO][  6].d[ 10] =        -0.040915217005;
  BAS[ATNO][  6].a[ 11] =         1.387110549700;     BAS[ATNO][  6].d[ 11] =         0.127528066065;
  BAS[ATNO][  6].a[ 12] =         7.735287767200;     BAS[ATNO][  6].d[ 12] =         0.001018750665;
  BAS[ATNO][  6].a[ 13] =         6.094944361000;     BAS[ATNO][  6].d[ 13] =        -0.002151868393;
  BAS[ATNO][  6].a[ 14] =         1.387110549700;     BAS[ATNO][  6].d[ 14] =         0.006707128416;
  BAS[ATNO][  6].a[ 15] =         0.623240278500;     BAS[ATNO][  6].d[ 15] =         0.360527797367;
  BAS[ATNO][  6].a[ 16] =         0.623240278500;     BAS[ATNO][  6].d[ 16] =        -0.032084405375;
  BAS[ATNO][  6].a[ 17] =         0.623240278500;     BAS[ATNO][  6].d[ 17] =        -0.017040415404;
  BAS[ATNO][  6].a[ 18] =         0.623240278500;     BAS[ATNO][  6].d[ 18] =         0.210396721451;
  BAS[ATNO][  6].a[ 19] =         0.623240278500;     BAS[ATNO][  6].d[ 19] =         0.011065468745;
  BAS[ATNO][  6].a[ 20] =         0.265173285500;     BAS[ATNO][  6].d[ 20] =         0.324295108467;
  BAS[ATNO][  6].a[ 21] =         0.265173285500;     BAS[ATNO][  6].d[ 21] =        -0.028859954203;
  BAS[ATNO][  6].a[ 22] =         0.265173285500;     BAS[ATNO][  6].d[ 22] =        -0.015327870422;
  BAS[ATNO][  6].a[ 23] =         0.265173285500;     BAS[ATNO][  6].d[ 23] =         0.189252057962;
  BAS[ATNO][  6].a[ 24] =         0.265173285500;     BAS[ATNO][  6].d[ 24] =         0.009953400024;

  // Basis function   8 L = p
  InitBFNGauss(BAS[ATNO][  7]);
  BAS[ATNO][  7].l  = 1;
  BAS[ATNO][  7].ng = 25;
  BAS[ATNO][  7].a[  0] =        18.000000000000;     BAS[ATNO][  7].d[  0] =        -0.000158418684;
  BAS[ATNO][  7].a[  1] =        12.318606250000;     BAS[ATNO][  7].d[  1] =         0.000587415361;
  BAS[ATNO][  7].a[  2] =         5.371923450500;     BAS[ATNO][  7].d[  2] =        -0.001725482280;
  BAS[ATNO][  7].a[  3] =         1.350664674800;     BAS[ATNO][  7].d[  3] =         0.003031956843;
  BAS[ATNO][  7].a[  4] =        18.000000000000;     BAS[ATNO][  7].d[  4] =        -0.002030429834;
  BAS[ATNO][  7].a[  5] =        12.318606250000;     BAS[ATNO][  7].d[  5] =         0.007528819467;
  BAS[ATNO][  7].a[  6] =         5.371923450500;     BAS[ATNO][  7].d[  6] =        -0.022115261962;
  BAS[ATNO][  7].a[  7] =         1.350664674800;     BAS[ATNO][  7].d[  7] =         0.038860161363;
  BAS[ATNO][  7].a[  8] =        18.000000000000;     BAS[ATNO][  7].d[  8] =        -0.000047230328;
  BAS[ATNO][  7].a[  9] =        12.318606250000;     BAS[ATNO][  7].d[  9] =         0.000175129722;
  BAS[ATNO][  7].a[ 10] =         5.371923450500;     BAS[ATNO][  7].d[ 10] =        -0.000514428550;
  BAS[ATNO][  7].a[ 11] =         1.350664674800;     BAS[ATNO][  7].d[ 11] =         0.000903935775;
  BAS[ATNO][  7].a[ 12] =         0.662128168100;     BAS[ATNO][  7].d[ 12] =         0.003617279039;
  BAS[ATNO][  7].a[ 13] =         0.662128168100;     BAS[ATNO][  7].d[ 13] =         0.046362153043;
  BAS[ATNO][  7].a[ 14] =         0.662128168100;     BAS[ATNO][  7].d[ 14] =         0.001078441449;
  BAS[ATNO][  7].a[ 15] =         0.310713851900;     BAS[ATNO][  7].d[ 15] =         0.004163248457;
  BAS[ATNO][  7].a[ 16] =         0.310713851900;     BAS[ATNO][  7].d[ 16] =         0.053359765733;
  BAS[ATNO][  7].a[ 17] =         0.310713851900;     BAS[ATNO][  7].d[ 17] =         0.001241214639;
  BAS[ATNO][  7].a[ 18] =         0.108000000000;     BAS[ATNO][  7].d[ 18] =        -0.021536023748;
  BAS[ATNO][  7].a[ 19] =         0.108000000000;     BAS[ATNO][  7].d[ 19] =        -0.276024165720;
  BAS[ATNO][  7].a[ 20] =         0.108000000000;     BAS[ATNO][  7].d[ 20] =        -0.006420666032;
  BAS[ATNO][  7].a[ 21] =         0.045000000000;     BAS[ATNO][  7].d[ 21] =         0.048140763600;
  BAS[ATNO][  7].a[ 22] =         0.045000000000;     BAS[ATNO][  7].d[ 22] =         0.617013347733;
  BAS[ATNO][  7].a[ 23] =         0.045000000000;     BAS[ATNO][  7].d[ 23] =         0.014352499293;
  BAS[ATNO][  7].a[ 24] =         0.021930251700;     BAS[ATNO][  7].d[ 24] =        -0.108000141595;

  // Basis function   9 L = p
  InitBFNGauss(BAS[ATNO][  8]);
  BAS[ATNO][  8].l  = 1;
  BAS[ATNO][  8].ng = 25;
  BAS[ATNO][  8].a[  0] =        18.000000000000;     BAS[ATNO][  8].d[  0] =         0.000363470924;
  BAS[ATNO][  8].a[  1] =        12.318606250000;     BAS[ATNO][  8].d[  1] =        -0.001347747614;
  BAS[ATNO][  8].a[  2] =         5.371923450500;     BAS[ATNO][  8].d[  2] =         0.003958893115;
  BAS[ATNO][  8].a[  3] =         1.350664674800;     BAS[ATNO][  8].d[  3] =        -0.006956427897;
  BAS[ATNO][  8].a[  4] =        18.000000000000;     BAS[ATNO][  8].d[  4] =         0.004658555341;
  BAS[ATNO][  8].a[  5] =        12.318606250000;     BAS[ATNO][  8].d[  5] =        -0.017273890260;
  BAS[ATNO][  8].a[  6] =         5.371923450500;     BAS[ATNO][  8].d[  6] =         0.050740572262;
  BAS[ATNO][  8].a[  7] =         1.350664674800;     BAS[ATNO][  8].d[  7] =        -0.089159550953;
  BAS[ATNO][  8].a[  8] =        18.000000000000;     BAS[ATNO][  8].d[  8] =         0.000108363802;
  BAS[ATNO][  8].a[  9] =        12.318606250000;     BAS[ATNO][  8].d[  9] =        -0.000401812211;
  BAS[ATNO][  8].a[ 10] =         5.371923450500;     BAS[ATNO][  8].d[ 10] =         0.001180288936;
  BAS[ATNO][  8].a[ 11] =         1.350664674800;     BAS[ATNO][  8].d[ 11] =        -0.002073962252;
  BAS[ATNO][  8].a[ 12] =         0.662128168100;     BAS[ATNO][  8].d[ 12] =        -0.013974711513;
  BAS[ATNO][  8].a[ 13] =         0.662128168100;     BAS[ATNO][  8].d[ 13] =        -0.179111897893;
  BAS[ATNO][  8].a[ 14] =         0.662128168100;     BAS[ATNO][  8].d[ 14] =        -0.004166365926;
  BAS[ATNO][  8].a[ 15] =         0.310713851900;     BAS[ATNO][  8].d[ 15] =         0.012485507076;
  BAS[ATNO][  8].a[ 16] =         0.310713851900;     BAS[ATNO][  8].d[ 16] =         0.160024975571;
  BAS[ATNO][  8].a[ 17] =         0.310713851900;     BAS[ATNO][  8].d[ 17] =         0.003722380330;
  BAS[ATNO][  8].a[ 18] =         0.108000000000;     BAS[ATNO][  8].d[ 18] =        -0.035141183421;
  BAS[ATNO][  8].a[ 19] =         0.108000000000;     BAS[ATNO][  8].d[ 19] =        -0.450399570028;
  BAS[ATNO][  8].a[ 20] =         0.108000000000;     BAS[ATNO][  8].d[ 20] =        -0.010476855216;
  BAS[ATNO][  8].a[ 21] =         0.045000000000;     BAS[ATNO][  8].d[ 21] =         0.188099691299;
  BAS[ATNO][  8].a[ 22] =         0.045000000000;     BAS[ATNO][  8].d[ 22] =         2.410847098342;
  BAS[ATNO][  8].a[ 23] =         0.045000000000;     BAS[ATNO][  8].d[ 23] =         0.056079307526;
  BAS[ATNO][  8].a[ 24] =         0.021930251700;     BAS[ATNO][  8].d[ 24] =        -0.132563572364;

  // Basis function  10 L = d
  InitBFNGauss(BAS[ATNO][  9]);
  BAS[ATNO][  9].l  = 2;
  BAS[ATNO][  9].ng = 25;
  BAS[ATNO][  9].a[  0] =        24.000000000000;     BAS[ATNO][  9].d[  0] =         0.000028152776;
  BAS[ATNO][  9].a[  1] =        18.204262749000;     BAS[ATNO][  9].d[  1] =        -0.000186616339;
  BAS[ATNO][  9].a[  2] =        14.048192487000;     BAS[ATNO][  9].d[  2] =         0.000338922898;
  BAS[ATNO][  9].a[  3] =         9.516678695400;     BAS[ATNO][  9].d[  3] =        -0.000199101362;
  BAS[ATNO][  9].a[  4] =         4.171466798100;     BAS[ATNO][  9].d[  4] =        -0.000440493918;
  BAS[ATNO][  9].a[  5] =         1.194421397600;     BAS[ATNO][  9].d[  5] =         0.001403147876;
  BAS[ATNO][  9].a[  6] =         0.567554478000;     BAS[ATNO][  9].d[  6] =         0.014490958891;
  BAS[ATNO][  9].a[  7] =         0.175338548700;     BAS[ATNO][  9].d[  7] =        -0.142832413320;
  BAS[ATNO][  9].a[  8] =         0.082014250500;     BAS[ATNO][  9].d[  8] =         0.322701975397;
  BAS[ATNO][  9].a[  9] =         0.034607892700;     BAS[ATNO][  9].d[  9] =        -0.315871522687;
  BAS[ATNO][  9].a[ 10] =         7.735287767200;     BAS[ATNO][  9].d[ 10] =        -0.013813151652;
  BAS[ATNO][  9].a[ 11] =         6.094944361000;     BAS[ATNO][  9].d[ 11] =         0.029176996381;
  BAS[ATNO][  9].a[ 12] =         1.387110549700;     BAS[ATNO][  9].d[ 12] =        -0.090941370827;
  BAS[ATNO][  9].a[ 13] =         7.735287767200;     BAS[ATNO][  9].d[ 13] =         0.003842877410;
  BAS[ATNO][  9].a[ 14] =         6.094944361000;     BAS[ATNO][  9].d[ 14] =        -0.008117164214;
  BAS[ATNO][  9].a[ 15] =         1.387110549700;     BAS[ATNO][  9].d[ 15] =         0.025300275300;
  BAS[ATNO][  9].a[ 16] =         7.735287767200;     BAS[ATNO][  9].d[ 16] =        -0.003750456364;
  BAS[ATNO][  9].a[ 17] =         6.094944361000;     BAS[ATNO][  9].d[ 17] =         0.007921946744;
  BAS[ATNO][  9].a[ 18] =         1.387110549700;     BAS[ATNO][  9].d[ 18] =        -0.024691804705;
  BAS[ATNO][  9].a[ 19] =         7.735287767200;     BAS[ATNO][  9].d[ 19] =         0.023877732137;
  BAS[ATNO][  9].a[ 20] =         6.094944361000;     BAS[ATNO][  9].d[ 20] =        -0.050436028047;
  BAS[ATNO][  9].a[ 21] =         1.387110549700;     BAS[ATNO][  9].d[ 21] =         0.157203348478;
  BAS[ATNO][  9].a[ 22] =         7.735287767200;     BAS[ATNO][  9].d[ 22] =         0.001411208613;
  BAS[ATNO][  9].a[ 23] =         6.094944361000;     BAS[ATNO][  9].d[ 23] =        -0.002980842435;
  BAS[ATNO][  9].a[ 24] =         1.387110549700;     BAS[ATNO][  9].d[ 24] =         0.009290945980;

  // Basis function  11 L = p
  InitBFNGauss(BAS[ATNO][ 10]);
  BAS[ATNO][ 10].l  = 1;
  BAS[ATNO][ 10].ng = 25;
  BAS[ATNO][ 10].a[  0] =        18.000000000000;     BAS[ATNO][ 10].d[  0] =        -0.005467627500;
  BAS[ATNO][ 10].a[  1] =        12.318606250000;     BAS[ATNO][ 10].d[  1] =         0.020273924105;
  BAS[ATNO][ 10].a[  2] =         5.371923450500;     BAS[ATNO][ 10].d[  2] =        -0.059552914578;
  BAS[ATNO][ 10].a[  3] =         1.350664674800;     BAS[ATNO][ 10].d[  3] =         0.104644289275;
  BAS[ATNO][ 10].a[  4] =        18.000000000000;     BAS[ATNO][ 10].d[  4] =         0.000549023205;
  BAS[ATNO][ 10].a[  5] =        12.318606250000;     BAS[ATNO][ 10].d[  5] =        -0.002035774160;
  BAS[ATNO][ 10].a[  6] =         5.371923450500;     BAS[ATNO][ 10].d[  6] =         0.005979912128;
  BAS[ATNO][ 10].a[  7] =         1.350664674800;     BAS[ATNO][ 10].d[  7] =        -0.010507691504;
  BAS[ATNO][ 10].a[  8] =        18.000000000000;     BAS[ATNO][ 10].d[  8] =        -0.005263116962;
  BAS[ATNO][ 10].a[  9] =        12.318606250000;     BAS[ATNO][ 10].d[  9] =         0.019515600475;
  BAS[ATNO][ 10].a[ 10] =         5.371923450500;     BAS[ATNO][ 10].d[ 10] =        -0.057325403904;
  BAS[ATNO][ 10].a[ 11] =         1.350664674800;     BAS[ATNO][ 10].d[ 11] =         0.100730185775;
  BAS[ATNO][ 10].a[ 12] =         0.662128168100;     BAS[ATNO][ 10].d[ 12] =         0.090769575045;
  BAS[ATNO][ 10].a[ 13] =         0.662128168100;     BAS[ATNO][ 10].d[ 13] =        -0.009114483926;
  BAS[ATNO][ 10].a[ 14] =         0.662128168100;     BAS[ATNO][ 10].d[ 14] =         0.087374439832;
  BAS[ATNO][ 10].a[ 15] =         0.310713851900;     BAS[ATNO][ 10].d[ 15] =         0.387952711614;
  BAS[ATNO][ 10].a[ 16] =         0.310713851900;     BAS[ATNO][ 10].d[ 16] =        -0.038955660554;
  BAS[ATNO][ 10].a[ 17] =         0.310713851900;     BAS[ATNO][ 10].d[ 17] =         0.373441771010;
  BAS[ATNO][ 10].a[ 18] =         0.108000000000;     BAS[ATNO][ 10].d[ 18] =        -1.944112655097;
  BAS[ATNO][ 10].a[ 19] =         0.108000000000;     BAS[ATNO][ 10].d[ 19] =         0.195215010499;
  BAS[ATNO][ 10].a[ 20] =         0.108000000000;     BAS[ATNO][ 10].d[ 20] =        -1.871395278927;
  BAS[ATNO][ 10].a[ 21] =         0.045000000000;     BAS[ATNO][ 10].d[ 21] =         2.178078027649;
  BAS[ATNO][ 10].a[ 22] =         0.045000000000;     BAS[ATNO][ 10].d[ 22] =        -0.218708274915;
  BAS[ATNO][ 10].a[ 23] =         0.045000000000;     BAS[ATNO][ 10].d[ 23] =         2.096609436389;
  BAS[ATNO][ 10].a[ 24] =         0.021930251700;     BAS[ATNO][ 10].d[ 24] =        -0.928613538507;

  // Basis function  12 L = p
  InitBFNGauss(BAS[ATNO][ 11]);
  BAS[ATNO][ 11].l  = 1;
  BAS[ATNO][ 11].ng = 25;
  BAS[ATNO][ 11].a[  0] =        18.000000000000;     BAS[ATNO][ 11].d[  0] =         0.014519200749;
  BAS[ATNO][ 11].a[  1] =        12.318606250000;     BAS[ATNO][ 11].d[  1] =        -0.053837093698;
  BAS[ATNO][ 11].a[  2] =         5.371923450500;     BAS[ATNO][ 11].d[  2] =         0.158141848890;
  BAS[ATNO][ 11].a[  3] =         1.350664674800;     BAS[ATNO][ 11].d[  3] =        -0.277881301005;
  BAS[ATNO][ 11].a[  4] =        18.000000000000;     BAS[ATNO][ 11].d[  4] =        -0.001457922677;
  BAS[ATNO][ 11].a[  5] =        12.318606250000;     BAS[ATNO][ 11].d[  5] =         0.005405966976;
  BAS[ATNO][ 11].a[  6] =         5.371923450500;     BAS[ATNO][ 11].d[  6] =        -0.015879564700;
  BAS[ATNO][ 11].a[  7] =         1.350664674800;     BAS[ATNO][ 11].d[  7] =         0.027903013208;
  BAS[ATNO][ 11].a[  8] =        18.000000000000;     BAS[ATNO][ 11].d[  8] =         0.013976126158;
  BAS[ATNO][ 11].a[  9] =        12.318606250000;     BAS[ATNO][ 11].d[  9] =        -0.051823376957;
  BAS[ATNO][ 11].a[ 10] =         5.371923450500;     BAS[ATNO][ 11].d[ 10] =         0.152226728539;
  BAS[ATNO][ 11].a[ 11] =         1.350664674800;     BAS[ATNO][ 11].d[ 11] =        -0.267487459336;
  BAS[ATNO][ 11].a[ 12] =         0.662128168100;     BAS[ATNO][ 11].d[ 12] =        -1.104186482086;
  BAS[ATNO][ 11].a[ 13] =         0.662128168100;     BAS[ATNO][ 11].d[ 13] =         0.110875146625;
  BAS[ATNO][ 11].a[ 14] =         0.662128168100;     BAS[ATNO][ 11].d[ 14] =        -1.062885612156;
  BAS[ATNO][ 11].a[ 15] =         0.310713851900;     BAS[ATNO][ 11].d[ 15] =         2.316918374413;
  BAS[ATNO][ 11].a[ 16] =         0.310713851900;     BAS[ATNO][ 11].d[ 16] =        -0.232649709672;
  BAS[ATNO][ 11].a[ 17] =         0.310713851900;     BAS[ATNO][ 11].d[ 17] =         2.230256613947;
  BAS[ATNO][ 11].a[ 18] =         0.108000000000;     BAS[ATNO][ 11].d[ 18] =        -1.911803283099;
  BAS[ATNO][ 11].a[ 19] =         0.108000000000;     BAS[ATNO][ 11].d[ 19] =         0.191970715790;
  BAS[ATNO][ 11].a[ 20] =         0.108000000000;     BAS[ATNO][ 11].d[ 20] =        -1.840294403025;
  BAS[ATNO][ 11].a[ 21] =         0.045000000000;     BAS[ATNO][ 11].d[ 21] =         1.273537451378;
  BAS[ATNO][ 11].a[ 22] =         0.045000000000;     BAS[ATNO][ 11].d[ 22] =        -0.127880257497;
  BAS[ATNO][ 11].a[ 23] =         0.045000000000;     BAS[ATNO][ 11].d[ 23] =         1.225902196389;
  BAS[ATNO][ 11].a[ 24] =         0.021930251700;     BAS[ATNO][ 11].d[ 24] =        -0.477354280676;

  // Basis function  13 L = d
  InitBFNGauss(BAS[ATNO][ 12]);
  BAS[ATNO][ 12].l  = 2;
  BAS[ATNO][ 12].ng = 25;
  BAS[ATNO][ 12].a[  0] =         7.735287767200;     BAS[ATNO][ 12].d[  0] =        -0.012567450683;
  BAS[ATNO][ 12].a[  1] =         6.094944361000;     BAS[ATNO][ 12].d[  1] =         0.026545749467;
  BAS[ATNO][ 12].a[  2] =         1.387110549700;     BAS[ATNO][ 12].d[  2] =        -0.082740074222;
  BAS[ATNO][ 12].a[  3] =         7.735287767200;     BAS[ATNO][ 12].d[  3] =         0.001118413574;
  BAS[ATNO][ 12].a[  4] =         6.094944361000;     BAS[ATNO][ 12].d[  4] =        -0.002362382577;
  BAS[ATNO][ 12].a[  5] =         1.387110549700;     BAS[ATNO][ 12].d[  5] =         0.007363277122;
  BAS[ATNO][ 12].a[  6] =         7.735287767200;     BAS[ATNO][ 12].d[  6] =         0.000594002964;
  BAS[ATNO][ 12].a[  7] =         6.094944361000;     BAS[ATNO][ 12].d[  7] =        -0.001254689934;
  BAS[ATNO][ 12].a[  8] =         1.387110549700;     BAS[ATNO][ 12].d[  8] =         0.003910725460;
  BAS[ATNO][ 12].a[  9] =         7.735287767200;     BAS[ATNO][ 12].d[  9] =        -0.007334109714;
  BAS[ATNO][ 12].a[ 10] =         6.094944361000;     BAS[ATNO][ 12].d[ 10] =         0.015491561808;
  BAS[ATNO][ 12].a[ 11] =         1.387110549700;     BAS[ATNO][ 12].d[ 11] =        -0.048285431736;
  BAS[ATNO][ 12].a[ 12] =         7.735287767200;     BAS[ATNO][ 12].d[ 12] =        -0.000385725411;
  BAS[ATNO][ 12].a[ 13] =         6.094944361000;     BAS[ATNO][ 12].d[ 13] =         0.000814753157;
  BAS[ATNO][ 12].a[ 14] =         1.387110549700;     BAS[ATNO][ 12].d[ 14] =        -0.002539492688;
  BAS[ATNO][ 12].a[ 15] =         0.623240278500;     BAS[ATNO][ 12].d[ 15] =        -1.153617420449;
  BAS[ATNO][ 12].a[ 16] =         0.623240278500;     BAS[ATNO][ 12].d[ 16] =         0.102663731439;
  BAS[ATNO][ 12].a[ 17] =         0.623240278500;     BAS[ATNO][ 12].d[ 17] =         0.054525948396;
  BAS[ATNO][ 12].a[ 18] =         0.623240278500;     BAS[ATNO][ 12].d[ 18] =        -0.673227764520;
  BAS[ATNO][ 12].a[ 19] =         0.623240278500;     BAS[ATNO][ 12].d[ 19] =        -0.035407304522;
  BAS[ATNO][ 12].a[ 20] =         0.265173285500;     BAS[ATNO][ 12].d[ 20] =         1.724225341743;
  BAS[ATNO][ 12].a[ 21] =         0.265173285500;     BAS[ATNO][ 12].d[ 21] =        -0.153443771121;
  BAS[ATNO][ 12].a[ 22] =         0.265173285500;     BAS[ATNO][ 12].d[ 22] =        -0.081495841117;
  BAS[ATNO][ 12].a[ 23] =         0.265173285500;     BAS[ATNO][ 12].d[ 23] =         1.006222991933;
  BAS[ATNO][ 12].a[ 24] =         0.265173285500;     BAS[ATNO][ 12].d[ 24] =         0.052920639596;

  // Basis function  14 L = d
  InitBFNGauss(BAS[ATNO][ 13]);
  BAS[ATNO][ 13].l  = 2;
  BAS[ATNO][ 13].ng = 25;
  BAS[ATNO][ 13].a[  0] =         7.735287767200;     BAS[ATNO][ 13].d[  0] =        -0.277667633991;
  BAS[ATNO][ 13].a[  1] =         6.094944361000;     BAS[ATNO][ 13].d[  1] =         0.586506812938;
  BAS[ATNO][ 13].a[  2] =         1.387110549700;     BAS[ATNO][ 13].d[  2] =        -1.828074859752;
  BAS[ATNO][ 13].a[  3] =         7.735287767200;     BAS[ATNO][ 13].d[  3] =         0.024710441174;
  BAS[ATNO][ 13].a[  4] =         6.094944361000;     BAS[ATNO][ 13].d[  4] =        -0.052194927767;
  BAS[ATNO][ 13].a[  5] =         1.387110549700;     BAS[ATNO][ 13].d[  5] =         0.162685638346;
  BAS[ATNO][ 13].a[  6] =         7.735287767200;     BAS[ATNO][ 13].d[  6] =         0.013124013946;
  BAS[ATNO][ 13].a[  7] =         6.094944361000;     BAS[ATNO][ 13].d[  7] =        -0.027721356939;
  BAS[ATNO][ 13].a[  8] =         1.387110549700;     BAS[ATNO][ 13].d[  8] =         0.086404308663;
  BAS[ATNO][ 13].a[  9] =         7.735287767200;     BAS[ATNO][ 13].d[  9] =        -0.162041208112;
  BAS[ATNO][ 13].a[ 10] =         6.094944361000;     BAS[ATNO][ 13].d[ 10] =         0.342273498602;
  BAS[ATNO][ 13].a[ 11] =         1.387110549700;     BAS[ATNO][ 13].d[ 11] =        -1.066827467559;
  BAS[ATNO][ 13].a[ 12] =         7.735287767200;     BAS[ATNO][ 13].d[ 12] =        -0.008522290232;
  BAS[ATNO][ 13].a[ 13] =         6.094944361000;     BAS[ATNO][ 13].d[ 13] =         0.018001310455;
  BAS[ATNO][ 13].a[ 14] =         1.387110549700;     BAS[ATNO][ 13].d[ 14] =        -0.056108032097;
  BAS[ATNO][ 13].a[ 15] =         0.623240278500;     BAS[ATNO][ 13].d[ 15] =         2.266146890162;
  BAS[ATNO][ 13].a[ 16] =         0.623240278500;     BAS[ATNO][ 13].d[ 16] =        -0.201670927996;
  BAS[ATNO][ 13].a[ 17] =         0.623240278500;     BAS[ATNO][ 13].d[ 17] =        -0.107109867153;
  BAS[ATNO][ 13].a[ 18] =         0.623240278500;     BAS[ATNO][ 13].d[ 18] =         1.322477433051;
  BAS[ATNO][ 13].a[ 19] =         0.623240278500;     BAS[ATNO][ 13].d[ 19] =         0.069553520618;
  BAS[ATNO][ 13].a[ 20] =         0.265173285500;     BAS[ATNO][ 13].d[ 20] =        -1.253542758180;
  BAS[ATNO][ 13].a[ 21] =         0.265173285500;     BAS[ATNO][ 13].d[ 21] =         0.111556374577;
  BAS[ATNO][ 13].a[ 22] =         0.265173285500;     BAS[ATNO][ 13].d[ 22] =         0.059248938752;
  BAS[ATNO][ 13].a[ 23] =         0.265173285500;     BAS[ATNO][ 13].d[ 23] =        -0.731542168010;
  BAS[ATNO][ 13].a[ 24] =         0.265173285500;     BAS[ATNO][ 13].d[ 24] =        -0.038474254452;

  // Basis function  15 L = p
  InitBFNGauss(BAS[ATNO][ 14]);
  BAS[ATNO][ 14].l  = 1;
  BAS[ATNO][ 14].ng = 25;
  BAS[ATNO][ 14].a[  0] =        18.000000000000;     BAS[ATNO][ 14].d[  0] =         0.126477235292;
  BAS[ATNO][ 14].a[  1] =        12.318606250000;     BAS[ATNO][ 14].d[  1] =        -0.468976694033;
  BAS[ATNO][ 14].a[  2] =         5.371923450500;     BAS[ATNO][ 14].d[  2] =         1.377578847337;
  BAS[ATNO][ 14].a[  3] =         1.350664674800;     BAS[ATNO][ 14].d[  3] =        -2.420633153230;
  BAS[ATNO][ 14].a[  4] =        18.000000000000;     BAS[ATNO][ 14].d[  4] =        -0.012700012388;
  BAS[ATNO][ 14].a[  5] =        12.318606250000;     BAS[ATNO][ 14].d[  5] =         0.047091556123;
  BAS[ATNO][ 14].a[  6] =         5.371923450500;     BAS[ATNO][ 14].d[  6] =        -0.138327410356;
  BAS[ATNO][ 14].a[  7] =         1.350664674800;     BAS[ATNO][ 14].d[  7] =         0.243064065738;
  BAS[ATNO][ 14].a[  8] =        18.000000000000;     BAS[ATNO][ 14].d[  8] =         0.121746494796;
  BAS[ATNO][ 14].a[  9] =        12.318606250000;     BAS[ATNO][ 14].d[  9] =        -0.451435141728;
  BAS[ATNO][ 14].a[ 10] =         5.371923450500;     BAS[ATNO][ 14].d[ 10] =         1.326052040757;
  BAS[ATNO][ 14].a[ 11] =         1.350664674800;     BAS[ATNO][ 14].d[ 11] =        -2.330092058955;
  BAS[ATNO][ 14].a[ 12] =         0.662128168100;     BAS[ATNO][ 14].d[ 12] =         3.217146845460;
  BAS[ATNO][ 14].a[ 13] =         0.662128168100;     BAS[ATNO][ 14].d[ 13] =        -0.323044733685;
  BAS[ATNO][ 14].a[ 14] =         0.662128168100;     BAS[ATNO][ 14].d[ 14] =         3.096813041289;
  BAS[ATNO][ 14].a[ 15] =         0.310713851900;     BAS[ATNO][ 14].d[ 15] =        -2.075272764789;
  BAS[ATNO][ 14].a[ 16] =         0.310713851900;     BAS[ATNO][ 14].d[ 16] =         0.208385246253;
  BAS[ATNO][ 14].a[ 17] =         0.310713851900;     BAS[ATNO][ 14].d[ 17] =        -1.997649492220;
  BAS[ATNO][ 14].a[ 18] =         0.108000000000;     BAS[ATNO][ 14].d[ 18] =         1.027261276046;
  BAS[ATNO][ 14].a[ 19] =         0.108000000000;     BAS[ATNO][ 14].d[ 19] =        -0.103150823163;
  BAS[ATNO][ 14].a[ 20] =         0.108000000000;     BAS[ATNO][ 14].d[ 20] =         0.988837709090;
  BAS[ATNO][ 14].a[ 21] =         0.045000000000;     BAS[ATNO][ 14].d[ 21] =        -0.647987767932;
  BAS[ATNO][ 14].a[ 22] =         0.045000000000;     BAS[ATNO][ 14].d[ 22] =         0.065066671177;
  BAS[ATNO][ 14].a[ 23] =         0.045000000000;     BAS[ATNO][ 14].d[ 23] =        -0.623750505253;
  BAS[ATNO][ 14].a[ 24] =         0.021930251700;     BAS[ATNO][ 14].d[ 24] =         0.247902625844;

-------------------------------------------
RADIAL EXPECTATION VALUES <R**-3> TO <R**3>
-------------------------------------------
   0 :     0.000000     1.097663     1.005818     1.082031     1.277430     1.648177
   1 :     0.910357     0.853788     0.880089     1.256358     1.750244     2.709740
   2 :     0.909670     0.853276     0.879771     1.257041     1.752613     2.716631
   3 :     0.907583     0.851723     0.878807     1.259104     1.759741     2.737294
   4 :     0.345130     0.417466     0.592318     2.032412     4.991230    73.283722
   5 :     0.000000     0.173363     0.362024     3.272734    12.303144    52.285883
   6 :     0.365129     0.437161     0.609693     1.945606     4.509433    61.499609
   7 :     0.000000     0.050947     0.183475     6.479240    45.624832   338.648266
   8 :     0.000000     0.188373     0.355527     3.885862    19.525146   119.842181
   9 :     0.000000     0.730305     0.738585     1.974901     6.067310    28.554006
  10 :     0.000000     5.566635     2.115004     0.571014     0.549060     1.528344
  11 :     0.000000    51.025481     5.777032     0.221974     0.067025     0.056679
  12 :     0.365673     0.437612     0.610139     1.942711     4.490506    61.526611
  13 :     0.362502     0.434549     0.607537     1.954720     4.554904    63.004614
  14 :     0.361724     0.433775     0.606857     1.958095     4.573604    63.445801
  15 :     0.009016     0.027943     0.147369     7.814732    67.310943   624.577795
  16 :     0.008841     0.027597     0.146584     7.844566    67.750587   629.875019
  17 :     0.008206     0.026396     0.143920     7.944662    69.223545   647.611995
  18 :     0.030933     0.059820     0.201669     6.640436    55.381844   538.733977
  19 :     0.030987     0.059909     0.201955     6.622472    55.089029   535.031057
  20 :     0.030921     0.059946     0.202605     6.566713    54.153650   523.041512
  21 :     0.072160     0.112475     0.279278     4.300341    20.135795   495.774843
  22 :     0.072187     0.112490     0.279291     4.300251    20.134972   495.789495
  23 :     0.088720     0.129416     0.294696     4.215084    19.633609   483.039394
  24 :     0.073340     0.113693     0.280360     4.296003    20.118703   495.638296
  25 :     0.073703     0.114070     0.280696     4.294607    20.112911   495.564688
  26 :    11.994449     3.764744     1.572939     1.289831     3.802110    21.731576
  27 :     0.069229     0.110087     0.274883     5.006963    33.256566   276.881773
  28 :     0.069448     0.110360     0.275289     4.997598    33.136997   275.552389
  29 :     0.070110     0.111267     0.276752     4.962854    32.697986   270.732825
  30 :     0.341496     0.351021     0.493474     2.955656    12.948651    83.117385
  31 :     0.342107     0.351520     0.493880     2.952513    12.919424    82.849109
  32 :     0.344314     0.353338     0.495381     2.941022    12.815125    81.912685
  33 :     0.288320     0.328175     0.491222     2.694791     9.083816   182.527161
  34 :     0.288350     0.328191     0.491238     2.694685     9.083088   182.506077
  35 :     0.289877     0.329624     0.492459     2.688065     9.040993   181.325290
  36 :     0.293146     0.332375     0.494116     2.690600     9.092011   183.445318
  37 :     0.290221     0.329952     0.492747     2.686345     9.029567   180.995053
  38 :     0.719976     0.671583     0.740380     1.752282     4.146360    65.870570
  39 :     0.719982     0.671583     0.740381     1.752270     4.146284    65.868705
  40 :     0.720473     0.672011     0.740693     1.751128     4.140249    65.722687
  41 :     0.720544     0.672078     0.740748     1.750870     4.138768    65.685345
  42 :     0.718192     0.670221     0.739542     1.753636     4.149068    65.854535
  43 :    11.994552     3.764756     1.572921     1.290042     3.803910    21.747219
  44 :    11.994531     3.764754     1.572924     1.289996     3.803509    21.743684
Making the total density                ... o.k.
o.k.
Initializing the integrals              ... done
Making exponents                        ... done
Making rho(0)                           ... done (         0.000006478)
Integral calculation                    ... Two index integrals                     ... done
Solving the equation system             ... done
atomic density will be written to file 75_Re_atom75.adf

-------
TIMINGS
-------

Total SCF time: 0 days 0 hours 0 min 1 sec 

Total time                  ....       1.262 sec
Sum of individual times     ....       0.821 sec  ( 65.0%)

Fock matrix formation       ....       0.681 sec  ( 54.0%)
Diagonalization             ....       0.062 sec  (  4.9%)
Density matrix formation    ....       0.001 sec  (  0.1%)
Population analysis         ....       0.000 sec  (  0.0%)
Initial guess               ....       0.001 sec  (  0.0%)
Orbital Transformation      ....       0.000 sec  (  0.0%)
Orbital Orthonormalization  ....       0.000 sec  (  0.0%)
DIIS solution               ....       0.076 sec  (  6.0%)

-------------------------   --------------------
FINAL SINGLE POINT ENERGY       -77.461263714386
-------------------------   --------------------


                            ***************************************
                            *     ORCA property calculations      *
                            ***************************************

                                    ---------------------
                                    Active property flags
                                    ---------------------
   (+) Dipole Moment


------------------------------------------------------------------------------
                       ORCA ELECTRIC PROPERTIES CALCULATION
------------------------------------------------------------------------------

Dipole Moment Calculation                       ... on
Quadrupole Moment Calculation                   ... off
Polarizability Calculation                      ... off
GBWName                                         ... 75_Re_atom75.gbw
Electron density file                           ... 75_Re_atom75.scfp
The origin for moment calculation is the CENTER OF MASS  = ( 0.000000,  0.000000  0.000000)

-------------
DIPOLE MOMENT
-------------
                                X             Y             Z
Electronic contribution:      0.00000      -0.00000       0.00000
Nuclear contribution   :      0.00000       0.00000       0.00000
                        -----------------------------------------
Total Dipole Moment    :      0.00000      -0.00000       0.00000
                        -----------------------------------------
Magnitude (a.u.)       :      0.00000
Magnitude (Debye)      :      0.00000



--------------------
Rotational spectrum 
--------------------
 
Rotational constants in cm-1:     0.000000     0.000000     0.000000 
Rotational constants in MHz :     0.000000     0.000000     0.000000 

 Dipole components along the rotational axes: 
x,y,z [a.u.] :     0.000000    -0.000000     0.000000 
x,y,z [Debye]:     0.000000    -0.000000     0.000000 

 

Timings for individual modules:

Sum of individual times         ...        1.568 sec (=   0.026 min)
GTO integral calculation        ...        0.275 sec (=   0.005 min)  17.5 %
SCF iterations                  ...        1.293 sec (=   0.022 min)  82.5 %
                             ****ORCA TERMINATED NORMALLY****
TOTAL RUN TIME: 0 days 0 hours 0 minutes 1 seconds 794 msec
