
                                 *****************
                                 * O   R   C   A *
                                 *****************

           --- An Ab Initio, DFT and Semiempirical electronic structure package ---

                  #######################################################
                  #                        -***-                        #
                  #          Department of theory and spectroscopy      #
                  #               Directorship: Frank Neese             #
                  #        Max Planck Institute fuer Kohlenforschung    #
                  #                Kaiser Wilhelm Platz 1               #
                  #                 D-45470 Muelheim/Ruhr               #
                  #                      Germany                        #
                  #                                                     #
                  #                  All rights reserved                #
                  #                        -***-                        #
                  #######################################################


                         Program Version 4.2.0 -  RELEASE  -


 With contributions from (in alphabetic order):
   Daniel Aravena         : Magnetic Suceptibility
   Michael Atanasov       : Ab Initio Ligand Field Theory (pilot matlab implementation)
   Alexander A. Auer      : GIAO ZORA, VPT2
   Ute Becker             : Parallelization
   Giovanni Bistoni       : ED, misc. LED, open-shell LED, HFLED
   Martin Brehm           : Molecular dynamics
   Dmytro Bykov           : SCF Hessian
   Vijay G. Chilkuri      : MRCI spin determinant printing, contributions to CSF-ICE
   Dipayan Datta          : RHF DLPNO-CCSD density
   Achintya Kumar Dutta   : EOM-CC, STEOM-CC
   Dmitry Ganyushin       : Spin-Orbit,Spin-Spin,Magnetic field MRCI
   Miquel Garcia          : C-PCM Hessian, Gaussian charge scheme
   Yang Guo               : DLPNO-NEVPT2, CIM, IAO-localization
   Andreas Hansen         : Spin unrestricted coupled pair/coupled cluster methods
   Benjamin Helmich-Paris : CASSCF linear response (MC-RPA)
   Lee Huntington         : MR-EOM, pCC
   Robert Izsak           : Overlap fitted RIJCOSX, COSX-SCS-MP3, EOM
   Christian Kollmar      : KDIIS, OOCD, Brueckner-CCSD(T), CCSD density
   Simone Kossmann        : Meta GGA functionals, TD-DFT gradient, OOMP2, MP2 Hessian
   Martin Krupicka        : AUTO-CI
   Lucas Lang             : DCDCAS
   Dagmar Lenk            : GEPOL surface, SMD
   Dimitrios Liakos       : Extrapolation schemes; Compound Job, initial MDCI parallelization
   Dimitrios Manganas     : Further ROCIS development; embedding schemes
   Dimitrios Pantazis     : SARC Basis sets
   Taras Petrenko         : DFT Hessian,TD-DFT gradient, ASA, ECA, R-Raman, ABS, FL, XAS/XES, NRVS
   Peter Pinski           : DLPNO-MP2, DLPNO-MP2 Gradient
   Christoph Reimann      : Effective Core Potentials
   Marius Retegan         : Local ZFS, SOC
   Christoph Riplinger    : Optimizer, TS searches, QM/MM, DLPNO-CCSD(T), (RO)-DLPNO pert. Triples
   Tobias Risthaus        : Range-separated hybrids, TD-DFT gradient, RPA, STAB
   Michael Roemelt        : Original ROCIS implementation
   Masaaki Saitow         : Open-shell DLPNO-CCSD energy and density
   Barbara Sandhoefer     : DKH picture change effects
   Avijit Sen             : IP-ROCIS
   Kantharuban Sivalingam : CASSCF convergence, NEVPT2, FIC-MRCI
   Bernardo de Souza      : ESD, SOC TD-DFT
   Georgi Stoychev        : AutoAux, RI-MP2 NMR
   Willem Van den Heuvel  : Paramagnetic NMR
   Boris Wezisla          : Elementary symmetry handling
   Frank Wennmohs         : Technical directorship


 We gratefully acknowledge several colleagues who have allowed us to
 interface, adapt or use parts of their codes:
   Stefan Grimme, W. Hujo, H. Kruse,             : VdW corrections, initial TS optimization,
                  C. Bannwarth                     DFT functionals, gCP, sTDA/sTD-DF
   Ed Valeev, F. Pavosevic, A. Kumar             : LibInt (2-el integral package), F12 methods
   Garnet Chan, S. Sharma, J. Yang, R. Olivares  : DMRG
   Ulf Ekstrom                                   : XCFun DFT Library
   Mihaly Kallay                                 : mrcc  (arbitrary order and MRCC methods)
   Andreas Klamt, Michael Diedenhofen            : otool_cosmo (COSMO solvation model)
   Jiri Pittner, Ondrej Demel                    : Mk-CCSD
   Frank Weinhold                                : gennbo (NPA and NBO analysis)
   Christopher J. Cramer and Donald G. Truhlar   : smd solvation model
   Lars Goerigk                                  : TD-DFT with DH, B97 family of functionals
   V. Asgeirsson, H. Jonsson                     : NEB implementation
   FAccTs GmbH                                   : IRC, NEB, NEB-TS, Multilevel, MM, QM/MM, CI optimization
   S Lehtola, MJT Oliveira, MAL Marques          : LibXC Library


 Your calculation uses the libint2 library for the computation of 2-el integrals
 For citations please refer to: http://libint.valeyev.net

 Your ORCA version has been built with support for libXC version: 4.2.3
 For citations please refer to: https://tddft.org/programs/libxc/

 This ORCA versions uses:
   CBLAS   interface :  Fast vector & matrix operations
   LAPACKE interface :  Fast linear algebra routines
   SCALAPACK package :  Parallel linear algebra routines


Setting NCore(Au) from 46 to 60
----- Orbital basis set information -----
Your calculation utilizes the basis: def2-QZVPPD
   F. Weigend and R. Ahlrichs, Phys. Chem. Chem. Phys. 7, 3297 (2005).
   D. Rappoport and F. Furche, J. Chem. Phys. 133 134105 (2010).

cite the ECPs for Au [Def2-ECP] as follows:
Ce-Yb(ecp-28): M. Dolg, H. Stoll, H.Preuss, J. Chem. Phys., 1989, 90, 1730-1734.
Y-Cd(ecp-28), Hf-Hg(ecp-46): D. Andrae,U. Haeussermann, M. Dolg, H. Stoll, H. Preuss, Theor. Chim. Acta, 1990, 77, 123-141.
In-Sb(ecp-28), Tl-Bi(ecp-46): B. Metz, H. Stoll, M. Dolg, J. Chem. Phys., 2000, 113, 2563-2569.
Te-Xe(ecp-28), Po-Rn(ecp-46): K. A. Peterson, D. Figgen, E. Goll, H. Stoll, M. Dolg, J. Chem. Phys., 2003, 119, 11113-11123.
Rb(ecp-28), Cs(ecp-46): T. Leininger, A. Nicklass, W. Kuechle, H. Stoll, M. Dolg, A. Bergner, Chem. Phys. Lett., 1996, 255, 274-280.
Sr(ecp-28), Ba(ecp-46): M. Kaupp, P. V. Schleyer, H. Stoll and H. Preuss, J. Chem. Phys., 1991, 94, 1360-1366.
La(ecp-46): M. Dolg, H. Stoll, A. Savin, H. Preuss, Theor. Chim. Acta, 1989, 75, 173-194.
Lu(ecp-28): X. Cao, M. Dolg, J. Chem. Phys., 2001, 115, 7348-7355.

ECP parameters for Au [Def2-ECP] have been obtained from:
TURBOMOLE (7.0.2)

================================================================================
                                        WARNINGS
                       Please study these warnings very carefully!
================================================================================


WARNING: your system is open-shell and RHF/RKS was chosen
  ===> : WILL SWITCH to UHF/UKS


WARNING: MDCI localization with Augmented Hessian Foster-Boys
  ===> : Switching off randomization!

WARNING: Post HF methods need fully converged wavefunctions
  ===> : Setting SCFConvForced true
         You can overwrite this default with %scf ConvForced false 


INFO   : the flag for use of LIBINT has been found!

================================================================================
                                       INPUT FILE
================================================================================
NAME = 79_Au.in
|  1> #
|  2> # 79_Au CCSD(T)/Def2-QZVPPD
|  3> #
|  4> ! CCSD(T) Def2-QZVPPD tightscf slowconv
|  5> 
|  6> *xyz 0 2
|  7>  Au 0.0 0.0 0.0
|  8> *
|  9> 
| 10> %maxcore 5000 
| 11> 
| 12> %pal
| 13> nprocs 24
| 14> end
| 15> 
| 16> %method
| 17> NewNCore Au 60 end
| 18> end
| 19> 
| 20> 
| 21>                          ****END OF INPUT****
================================================================================

                       ****************************
                       * Single Point Calculation *
                       ****************************

---------------------------------
CARTESIAN COORDINATES (ANGSTROEM)
---------------------------------
  Au     0.000000    0.000000    0.000000

----------------------------
CARTESIAN COORDINATES (A.U.)
----------------------------
  NO LB      ZA    FRAG     MASS         X           Y           Z
   0 Au   19.0000*   0   196.966    0.000000    0.000000    0.000000
* core charge reduced due to ECP

--------------------------------
INTERNAL COORDINATES (ANGSTROEM)
--------------------------------
 Au     0   0   0     0.000000000000     0.00000000     0.00000000

---------------------------
INTERNAL COORDINATES (A.U.)
---------------------------
 Au     0   0   0     0.000000000000     0.00000000     0.00000000

---------------------
BASIS SET INFORMATION
---------------------
There are 1 groups of distinct atoms

 Group   1 Type Au  : 9s8p6d4f2g contracted to 7s5p4d4f2g pattern {3111111/41111/3111/1111/11}

Atom   0Au   basis set group =>   1
-------------------------
ECP PARAMETER INFORMATION
-------------------------

 Group 1, Type Au ECP Def2-ECP (replacing 60 core electrons, lmax=3)

Atom   0Au   ECP group =>   1



           ************************************************************
           *        Program running with 24 parallel MPI-processes    *
           *              working on a common directory               *
           ************************************************************
------------------------------------------------------------------------------
                           ORCA GTO INTEGRAL CALCULATION
------------------------------------------------------------------------------

                         BASIS SET STATISTICS AND STARTUP INFO

 # of primitive gaussian shells          ...   29
 # of primitive gaussian functions       ...  109
 # of contracted shells                  ...   22
 # of contracted basis functions         ...   88
 Highest angular momentum                ...    4
 Maximum contraction depth               ...    4
 Integral package used                   ... LIBINT
 Integral threshhold            Thresh   ...  2.500e-11
 Primitive cut-off              TCut     ...  2.500e-12


------------------------------ INTEGRAL EVALUATION ----------------------------


 * One electron integrals 

   ECP integrals                         ... done
 Pre-screening matrix                    ... done
 Shell pair data                         ... done (   0.000 sec)



           ************************************************************
           *        Program running with 24 parallel MPI-processes    *
           *              working on a common directory               *
           ************************************************************
-------------------------------------------------------------------------------
                                 ORCA SCF
-------------------------------------------------------------------------------

------------
SCF SETTINGS
------------
Hamiltonian:
 Ab initio Hamiltonian  Method          .... Hartree-Fock(GTOs)


General Settings:
 Integral files         IntName         .... 79_Au
 Hartree-Fock type      HFTyp           .... UHF
 Total Charge           Charge          ....    0
 Multiplicity           Mult            ....    2
 Number of Electrons    NEL             ....   19
 Basis Dimension        Dim             ....   88
 Nuclear Repulsion      ENuc            ....      0.0000000000 Eh

Convergence Acceleration:
 DIIS                   CNVDIIS         .... on
   Start iteration      DIISMaxIt       ....     0
   Startup error        DIISStart       ....  0.200000
   # of expansion vecs  DIISMaxEq       ....     5
   Bias factor          DIISBfac        ....   1.050
   Max. coefficient     DIISMaxC        ....  10.000
 Newton-Raphson         CNVNR           .... off
 SOSCF                  CNVSOSCF        .... off
 Level Shifting         CNVShift        .... on
   Level shift para.    LevelShift      ....    0.2500
   Turn off err/grad.   ShiftErr        ....    0.0000
 Zerner damping         CNVZerner       .... off
 Static damping         CNVDamp         .... on
   Fraction old density DampFac         ....    0.8500
   Max. Damping (<1)    DampMax         ....    0.9800
   Min. Damping (>=0)   DampMin         ....    0.0000
   Turn off err/grad.   DampErr         ....    0.0300
 Fernandez-Rico         CNVRico         .... off

SCF Procedure:
 Maximum # iterations   MaxIter         ....   125
 SCF integral mode      SCFMode         .... Direct
   Integral package                     .... LIBINT
 Reset frequency        DirectResetFreq ....    20
 Integral Threshold     Thresh          ....  2.500e-11 Eh
 Primitive CutOff       TCut            ....  2.500e-12 Eh

Convergence Tolerance:
 Convergence Check Mode ConvCheckMode   .... Total+1el-Energy
 Convergence forced     ConvForced      .... 1
 Energy Change          TolE            ....  1.000e-08 Eh
 1-El. energy change                    ....  1.000e-05 Eh
 DIIS Error             TolErr          ....  5.000e-07


Diagonalization of the overlap matrix:
Smallest eigenvalue                        ... 6.770e-03
Time for diagonalization                   ...    0.002 sec
Threshold for overlap eigenvalues          ... 1.000e-08
Number of eigenvalues below threshold      ... 0
Time for construction of square roots      ...    0.028 sec
Total time needed                          ...    0.030 sec

-------------------
DFT GRID GENERATION
-------------------

General Integration Accuracy     IntAcc      ...  4.340
Radial Grid Type                 RadialGrid  ... Gauss-Chebyshev
Angular Grid (max. acc.)         AngularGrid ... Lebedev-110
Angular grid pruning method      GridPruning ... 3 (G Style)
Weight generation scheme         WeightScheme... Becke
Basis function cutoff            BFCut       ...    1.0000e-11
Integration weight cutoff        WCut        ...    1.0000e-14
Grids for H and He will be reduced by one unit

# of grid points (after initial pruning)     ...   3530 (   0.0 sec)
# of grid points (after weights+screening)   ...   3530 (   0.0 sec)
Grid point division into batches done        ...    0.0 sec
Reduced shell lists constructed in    0.0 sec

Total number of grid points                  ...     3530
Total number of batches                      ...       56
Average number of points per batch           ...       63
Average number of grid points per atom       ...     3530
Average number of shells per batch           ...     6.00 (27.27%)
Average number of basis functions per batch  ...    21.00 (23.86%)
Average number of large shells per batch     ...     4.50 (75.00%)
Average number of large basis fcns per batch ...    15.00 (71.43%)
Maximum spatial batch extension              ...  25.56, 38.92, 38.92 au
Average spatial batch extension              ...   1.31,  1.85,  2.08 au

Time for grid setup =    0.059 sec

------------------------------
INITIAL GUESS: MODEL POTENTIAL
------------------------------
Loading Hartree-Fock densities                     ... done
  calling /sw/apps/orca/orca_4_2_0_linux_x86-64_openmpi314/orca 79_Au_atom79.inp > 79_Au_atom79.out in order to generate an atomic fitting density for atom 0 (Au with ECP) on-the-fly... 
    atom 0 (Au), assumed electronic state with S=2: 1s2 2s2 2p6 3s2 3p6 4s2 3d10 4p6 5s2 4d10 5p6 6s1 4f14 5d10           ... done
Calculating cut-offs                               ... done
Setting up the integral package                    ... done
Initializing the effective Hamiltonian             ... done
Starting the Coulomb interaction                   ... done (   0.0 sec)
Reading the grid                                   ... done
Mapping shells                                     ... done
Starting the XC term evaluation                    ... done (   0.0 sec)
Transforming the Hamiltonian                       ... done (   0.0 sec)
Diagonalizing the Hamiltonian                      ... done (   0.0 sec)
Back transforming the eigenvectors                 ... done (   0.0 sec)
Now organizing SCF variables                       ... done
                      ------------------
                      INITIAL GUESS DONE (   1.6 sec)
                      ------------------
--------------
SCF ITERATIONS
--------------
ITER       Energy         Delta-E        Max-DP      RMS-DP      [F,P]     Damp
               ***  Starting incremental Fock matrix formation  ***
  0   -134.6583065233   0.000000000000 0.08837615  0.00121160  0.5931189 0.8500
  1   -134.6810687605  -0.022762237198 0.07820225  0.00107886  0.5041799 0.8500
                               ***Turning on DIIS***
  2   -134.6989322174  -0.017863456907 0.06590456  0.00090840  0.4274760 0.8500
  3   -135.0446474272  -0.345715209816 0.05424672  0.00074959  0.3628115 0.8500
  4   -135.1799187617  -0.135271334433 0.04607372  0.00064037  0.3089782 0.8500
  5   -135.1522806195   0.027638142139 0.04016887  0.00056153  0.2635372 0.8500
  6   -135.0953096931   0.056970926419 0.03513442  0.00049398  0.2247027 0.8500
  7   -135.0107669606   0.084542732550 0.03088938  0.00043682  0.1914392 0.8500
  8   -134.9656495437   0.045117416896 0.02677896  0.00038116  0.1628636 0.8500
  9   -134.9425165970   0.023132946649 0.02298743  0.00032933  0.1384741 0.8500
 10   -134.9244908968   0.018025700190 0.01967932  0.00028371  0.1177472 0.8500
 11   -134.9069546993   0.017536197578 0.01685476  0.00024449  0.1001453 0.8500
 12   -134.8898049253   0.017149773975 0.01445111  0.00021091  0.0851858 0.8500
 13   -134.8746650583   0.015139866962 0.01238918  0.00018193  0.0724602 0.8500
 14   -134.8619900506   0.012675007673 0.01061327  0.00015682  0.0616325 0.8500
 15   -134.8514007872   0.010589263474 0.00908557  0.00013508  0.0524215 0.8500
 16   -134.8424117631   0.008989024041 0.00777485  0.00011631  0.0445874 0.8500
 17   -134.8346948421   0.007716921008 0.00665232  0.00010013  0.0379246 0.8500
 18   -134.8280699744   0.006624867724 0.00569145  0.00008620  0.0322579 0.8500
 19   -134.8224083249   0.005661649515 0.03245958  0.00049466  0.0274381 0.0000
               *** Restarting incremental Fock matrix formation ***
                                   *** Resetting DIIS ***
 20   -134.7899149521   0.032493372761 0.00086886  0.00001724  0.0003460 0.0000
 21   -134.7899484452  -0.000033493066 0.00079206  0.00001270  0.0002167 0.0000
 22   -134.7898456615   0.000102783636 0.00076544  0.00001076  0.0001354 0.0000
 23   -134.7900779660  -0.000232304475 0.00063571  0.00000780  0.0000732 0.0000
 24   -134.7900616548   0.000016311241 0.00042825  0.00000481  0.0000347 0.0000
 25   -134.7899920397   0.000069615059 0.00024626  0.00000263  0.0000153 0.0000
 26   -134.7899646178   0.000027421962 0.00014113  0.00000148  0.0000069 0.0000
 27   -134.7899416520   0.000022965797 0.00006844  0.00000071  0.0000030 0.0000
 28   -134.7899283370   0.000013314973 0.00002887  0.00000030  0.0000012 0.0000
                            ***DIIS convergence achieved***

               *****************************************************
               *                     SUCCESS                       *
               *           SCF CONVERGED AFTER  29 CYCLES          *
               *****************************************************


----------------
TOTAL SCF ENERGY
----------------

Total Energy       :         -134.78992169 Eh           -3667.82024 eV

Components:
Nuclear Repulsion  :            0.00000000 Eh               0.00000 eV
Electronic Energy  :         -134.78992169 Eh           -3667.82024 eV
One Electron Energy:         -239.01846992 Eh           -6504.02322 eV
Two Electron Energy:          104.22854823 Eh            2836.20299 eV

Virial components:
Potential Energy   :         -180.86578710 Eh           -4921.60828 eV
Kinetic Energy     :           46.07586541 Eh            1253.78804 eV
Virial Ratio       :            3.92539099


---------------
SCF CONVERGENCE
---------------

  Last Energy change         ...    6.6480e-06  Tolerance :   1.0000e-08
  Last MAX-Density change    ...    1.1021e-05  Tolerance :   1.0000e-07
  Last RMS-Density change    ...    1.1537e-07  Tolerance :   5.0000e-09
  Last DIIS Error            ...    4.7928e-07  Tolerance :   5.0000e-07

             **** THE GBW FILE WAS UPDATED (79_Au.gbw) ****
             **** DENSITY FILE WAS UPDATED (79_Au.scfp) ****
             **** ENERGY FILE WAS UPDATED (79_Au.en.tmp) ****
----------------------
UHF SPIN CONTAMINATION
----------------------

Expectation value of <S**2>     :     0.752771
Ideal value S*(S+1) for S=0.5   :     0.750000
Deviation                       :     0.002771

             **** THE GBW FILE WAS UPDATED (79_Au.gbw) ****
             **** DENSITY FILE WAS UPDATED (79_Au.scfp) ****
----------------
ORBITAL ENERGIES
----------------
                 SPIN UP ORBITALS
  NO   OCC          E(Eh)            E(eV) 
   0   1.0000      -4.688813      -127.5891 
   1   1.0000      -2.724348       -74.1333 
   2   1.0000      -2.724348       -74.1333 
   3   1.0000      -2.724348       -74.1333 
   4   1.0000      -0.457764       -12.4564 
   5   1.0000      -0.457764       -12.4564 
   6   1.0000      -0.457764       -12.4564 
   7   1.0000      -0.457764       -12.4564 
   8   1.0000      -0.457764       -12.4564 
   9   1.0000      -0.292130        -7.9493 
  10   0.0000       0.036633         0.9968 
  11   0.0000       0.036633         0.9968 
  12   0.0000       0.036633         0.9968 
  13   0.0000       0.119750         3.2586 
  14   0.0000       0.166803         4.5389 
  15   0.0000       0.166803         4.5389 
  16   0.0000       0.166803         4.5389 
  17   0.0000       0.404128        10.9969 
  18   0.0000       0.404128        10.9969 
  19   0.0000       0.404128        10.9969 
  20   0.0000       0.404128        10.9969 
  21   0.0000       0.404128        10.9969 
  22   0.0000       0.470399        12.8002 
  23   0.0000       0.470399        12.8002 
  24   0.0000       0.470399        12.8002 
  25   0.0000       0.470399        12.8002 
  26   0.0000       0.470399        12.8002 
  27   0.0000       0.470399        12.8002 
  28   0.0000       0.470399        12.8002 
  29   0.0000       0.656497        17.8642 
  30   0.0000       1.032513        28.0961 
  31   0.0000       1.032513        28.0961 
  32   0.0000       1.032513        28.0961 
  33   0.0000       1.197732        32.5920 
  34   0.0000       1.197732        32.5920 
  35   0.0000       1.197732        32.5920 
  36   0.0000       1.197732        32.5920 
  37   0.0000       1.197732        32.5920 
  38   0.0000       1.197732        32.5920 
  39   0.0000       1.197732        32.5920 
  40   0.0000       1.615383        43.9568 
  41   0.0000       1.615383        43.9568 
  42   0.0000       1.615383        43.9568 
  43   0.0000       1.615383        43.9568 
  44   0.0000       1.615383        43.9568 
  45   0.0000       2.612320        71.0848 
  46   0.0000       2.612320        71.0848 
  47   0.0000       2.612320        71.0848 
  48   0.0000       2.612320        71.0848 
  49   0.0000       2.612320        71.0848 
  50   0.0000       2.612320        71.0848 
  51   0.0000       2.612320        71.0848 
  52   0.0000       2.868708        78.0615 
  53   0.0000       2.868708        78.0615 
  54   0.0000       2.868708        78.0615 
  55   0.0000       2.868708        78.0615 
  56   0.0000       2.868708        78.0615 
  57   0.0000       2.868708        78.0615 
  58   0.0000       2.868708        78.0615 
  59   0.0000       2.868708        78.0615 
  60   0.0000       2.868708        78.0615 
  61   0.0000       3.293253        89.6140 
  62   0.0000       5.799004       157.7989 
  63   0.0000       5.799004       157.7989 
  64   0.0000       5.799004       157.7989 
  65   0.0000       5.799004       157.7989 
  66   0.0000       5.799004       157.7989 
  67   0.0000       6.309089       171.6790 
  68   0.0000       6.309089       171.6790 
  69   0.0000       6.309089       171.6790 
  70   0.0000       6.309089       171.6790 
  71   0.0000       6.309089       171.6790 
  72   0.0000       6.309089       171.6790 
  73   0.0000       6.309089       171.6790 
  74   0.0000       7.651478       208.2073 
  75   0.0000       7.651478       208.2073 
  76   0.0000       7.651478       208.2073 
  77   0.0000       7.651478       208.2073 
  78   0.0000       7.651478       208.2073 
  79   0.0000       7.651478       208.2073 
  80   0.0000       7.651478       208.2073 
  81   0.0000       7.651478       208.2073 
  82   0.0000       7.651478       208.2073 
  83   0.0000      25.708424       699.5618 
  84   0.0000      25.708424       699.5618 
  85   0.0000      25.708424       699.5618 
  86   0.0000      46.054893      1253.2173 
  87   0.0000     207.045001      5633.9809 

                 SPIN DOWN ORBITALS
  NO   OCC          E(Eh)            E(eV) 
   0   1.0000      -4.687339      -127.5490 
   1   1.0000      -2.728330       -74.2416 
   2   1.0000      -2.728330       -74.2416 
   3   1.0000      -2.728330       -74.2416 
   4   1.0000      -0.449245       -12.2246 
   5   1.0000      -0.449245       -12.2246 
   6   1.0000      -0.449245       -12.2246 
   7   1.0000      -0.449245       -12.2246 
   8   1.0000      -0.449245       -12.2246 
   9   0.0000      -0.009233        -0.2513 
  10   0.0000       0.052734         1.4350 
  11   0.0000       0.052734         1.4350 
  12   0.0000       0.052734         1.4350 
  13   0.0000       0.150121         4.0850 
  14   0.0000       0.210564         5.7297 
  15   0.0000       0.210564         5.7297 
  16   0.0000       0.210564         5.7297 
  17   0.0000       0.419082        11.4038 
  18   0.0000       0.419082        11.4038 
  19   0.0000       0.419082        11.4038 
  20   0.0000       0.419082        11.4038 
  21   0.0000       0.419082        11.4038 
  22   0.0000       0.481094        13.0912 
  23   0.0000       0.481094        13.0912 
  24   0.0000       0.481094        13.0912 
  25   0.0000       0.481094        13.0912 
  26   0.0000       0.481094        13.0912 
  27   0.0000       0.481094        13.0912 
  28   0.0000       0.481094        13.0912 
  29   0.0000       0.686836        18.6898 
  30   0.0000       1.063594        28.9419 
  31   0.0000       1.063594        28.9419 
  32   0.0000       1.063594        28.9419 
  33   0.0000       1.214904        33.0592 
  34   0.0000       1.214904        33.0592 
  35   0.0000       1.214904        33.0592 
  36   0.0000       1.214904        33.0592 
  37   0.0000       1.214904        33.0592 
  38   0.0000       1.214904        33.0592 
  39   0.0000       1.214904        33.0592 
  40   0.0000       1.629343        44.3367 
  41   0.0000       1.629343        44.3367 
  42   0.0000       1.629343        44.3367 
  43   0.0000       1.629343        44.3367 
  44   0.0000       1.629343        44.3367 
  45   0.0000       2.613690        71.1221 
  46   0.0000       2.613690        71.1221 
  47   0.0000       2.613690        71.1221 
  48   0.0000       2.613690        71.1221 
  49   0.0000       2.613690        71.1221 
  50   0.0000       2.613690        71.1221 
  51   0.0000       2.613690        71.1221 
  52   0.0000       2.881179        78.4009 
  53   0.0000       2.881179        78.4009 
  54   0.0000       2.881179        78.4009 
  55   0.0000       2.881179        78.4009 
  56   0.0000       2.881179        78.4009 
  57   0.0000       2.881179        78.4009 
  58   0.0000       2.881179        78.4009 
  59   0.0000       2.881179        78.4009 
  60   0.0000       2.881179        78.4009 
  61   0.0000       3.307711        90.0074 
  62   0.0000       5.803964       157.9339 
  63   0.0000       5.803964       157.9339 
  64   0.0000       5.803964       157.9339 
  65   0.0000       5.803964       157.9339 
  66   0.0000       5.803964       157.9339 
  67   0.0000       6.309533       171.6911 
  68   0.0000       6.309533       171.6911 
  69   0.0000       6.309533       171.6911 
  70   0.0000       6.309533       171.6911 
  71   0.0000       6.309533       171.6911 
  72   0.0000       6.309533       171.6911 
  73   0.0000       6.309533       171.6911 
  74   0.0000       7.649600       208.1562 
  75   0.0000       7.649600       208.1562 
  76   0.0000       7.649600       208.1562 
  77   0.0000       7.649600       208.1562 
  78   0.0000       7.649600       208.1562 
  79   0.0000       7.649600       208.1562 
  80   0.0000       7.649600       208.1562 
  81   0.0000       7.649600       208.1562 
  82   0.0000       7.649600       208.1562 
  83   0.0000      25.713469       699.6991 
  84   0.0000      25.713469       699.6991 
  85   0.0000      25.713469       699.6991 
  86   0.0000      46.057019      1253.2752 
  87   0.0000     207.045106      5633.9838 

                    ********************************
                    * MULLIKEN POPULATION ANALYSIS *
                    ********************************

--------------------------------------------
MULLIKEN ATOMIC CHARGES AND SPIN POPULATIONS
--------------------------------------------
   0 Au:   -0.000000    1.000000
Sum of atomic charges         :   -0.0000000
Sum of atomic spin populations:    1.0000000

-----------------------------------------------------
MULLIKEN REDUCED ORBITAL CHARGES AND SPIN POPULATIONS
-----------------------------------------------------
CHARGE
  0 Aus       :     3.000000  s :     3.000000
      pz      :     2.000000  p :     6.000000
      px      :     2.000000
      py      :     2.000000
      dz2     :     2.000000  d :    10.000000
      dxz     :     2.000000
      dyz     :     2.000000
      dx2y2   :     2.000000
      dxy     :     2.000000
      f0      :     0.000000  f :     0.000000
      f+1     :     0.000000
      f-1     :     0.000000
      f+2     :     0.000000
      f-2     :     0.000000
      f+3     :     0.000000
      f-3     :     0.000000
      g0      :     0.000000  g :     0.000000
      g+1     :     0.000000
      g-1     :     0.000000
      g+2     :     0.000000
      g-2     :     0.000000
      g+3     :     0.000000
      g-3     :     0.000000
      g+4     :     0.000000
      g-4     :     0.000000

SPIN
  0 Aus       :     1.000000  s :     1.000000
      pz      :     0.000000  p :    -0.000000
      px      :    -0.000000
      py      :    -0.000000
      dz2     :    -0.000000  d :     0.000000
      dxz     :     0.000000
      dyz     :     0.000000
      dx2y2   :     0.000000
      dxy     :     0.000000
      f0      :    -0.000000  f :     0.000000
      f+1     :     0.000000
      f-1     :     0.000000
      f+2     :     0.000000
      f-2     :    -0.000000
      f+3     :    -0.000000
      f-3     :     0.000000
      g0      :    -0.000000  g :     0.000000
      g+1     :    -0.000000
      g-1     :     0.000000
      g+2     :     0.000000
      g-2     :     0.000000
      g+3     :    -0.000000
      g-3     :     0.000000
      g+4     :     0.000000
      g-4     :    -0.000000


                     *******************************
                     * LOEWDIN POPULATION ANALYSIS *
                     *******************************

-------------------------------------------
LOEWDIN ATOMIC CHARGES AND SPIN POPULATIONS
-------------------------------------------
   0 Au:   -0.000000    1.000000

----------------------------------------------------
LOEWDIN REDUCED ORBITAL CHARGES AND SPIN POPULATIONS
----------------------------------------------------
CHARGE
  0 Aus       :     3.000000  s :     3.000000
      pz      :     2.000000  p :     6.000000
      px      :     2.000000
      py      :     2.000000
      dz2     :     2.000000  d :    10.000000
      dxz     :     2.000000
      dyz     :     2.000000
      dx2y2   :     2.000000
      dxy     :     2.000000
      f0      :     0.000000  f :     0.000000
      f+1     :     0.000000
      f-1     :     0.000000
      f+2     :     0.000000
      f-2     :     0.000000
      f+3     :     0.000000
      f-3     :     0.000000
      g0      :     0.000000  g :     0.000000
      g+1     :     0.000000
      g-1     :     0.000000
      g+2     :     0.000000
      g-2     :     0.000000
      g+3     :     0.000000
      g-3     :     0.000000
      g+4     :     0.000000
      g-4     :     0.000000

SPIN
  0 Aus       :     1.000000  s :     1.000000
      pz      :     0.000000  p :    -0.000000
      px      :    -0.000000
      py      :    -0.000000
      dz2     :    -0.000000  d :     0.000000
      dxz     :     0.000000
      dyz     :     0.000000
      dx2y2   :     0.000000
      dxy     :     0.000000
      f0      :    -0.000000  f :     0.000000
      f+1     :     0.000000
      f-1     :     0.000000
      f+2     :     0.000000
      f-2     :    -0.000000
      f+3     :    -0.000000
      f-3     :     0.000000
      g0      :    -0.000000  g :     0.000000
      g+1     :    -0.000000
      g-1     :     0.000000
      g+2     :     0.000000
      g-2     :     0.000000
      g+3     :    -0.000000
      g-3     :     0.000000
      g+4     :     0.000000
      g-4     :    -0.000000


                      *****************************
                      * MAYER POPULATION ANALYSIS *
                      *****************************

  NA   - Mulliken gross atomic population
  ZA   - Total nuclear charge
  QA   - Mulliken gross atomic charge
  VA   - Mayer's total valence
  BVA  - Mayer's bonded valence
  FA   - Mayer's free valence

  ATOM       NA         ZA         QA         VA         BVA        FA
  0 Au    19.0000    19.0000    -0.0000     1.0055     0.0000     1.0055

  Mayer bond orders larger than 0.100000


-------
TIMINGS
-------

Total SCF time: 0 days 0 hours 0 min 7 sec 

Total time                  ....       7.708 sec
Sum of individual times     ....       7.068 sec  ( 91.7%)

Fock matrix formation       ....       4.586 sec  ( 59.5%)
Diagonalization             ....       0.193 sec  (  2.5%)
Density matrix formation    ....       0.022 sec  (  0.3%)
Population analysis         ....       0.082 sec  (  1.1%)
Initial guess               ....       1.572 sec  ( 20.4%)
Orbital Transformation      ....       0.000 sec  (  0.0%)
Orbital Orthonormalization  ....       0.000 sec  (  0.0%)
DIIS solution               ....       0.554 sec  (  7.2%)


           ************************************************************
           *        Program running with 24 parallel MPI-processes    *
           *              working on a common directory               *
           ************************************************************


------------------------------------------------------------------------------- 
                              ORCA-MATRIX DRIVEN CI                            
------------------------------------------------------------------------------- 

--------------------------------
AUTOMATIC CHOICE OF INCORE LEVEL
--------------------------------

Memory available                           ...   2500.00 MB
Memory needed for S+T                      ...      7.66 MB
Memory needed for J+K                      ...     15.38 MB
Memory needed for DIIS                     ...    107.22 MB
Memory needed for 3-ext                    ...     36.21 MB
Memory needed for 4-ext                    ...    143.01 MB
Memory needed for triples                  ...     18.10 MB
 -> Final InCoreLevel    ... 5
 -> check shows that triples correction can be computed


Wavefunction type
-----------------
Correlation treatment                      ...      CCSD     
Single excitations                         ... ON
Orbital optimization                       ... OFF
Calculation of Z vector                    ... OFF
Calculation of Brueckner orbitals          ... OFF
Perturbative triple excitations            ... ON
Calculation of F12 correction              ... OFF
Frozen core treatment                      ... chemical core (0 el)
Reference Wavefunction                     ... UHF
  Alpha-MOs occ    :     0 ...    9 ( 10 MO's/ 10 electrons)
  Beta-MOs occ     :     0 ...    8 (  9 MO's/  9 electrons)
  Alpha-MOs virt   :    10 ...   87 ( 78 MO's              )
  Beta-MOs virt    :     9 ...   87 ( 79 MO's              )
Number of AO's                             ...     88
Number of electrons                        ...     19
Number of correlated electrons             ...     19

Algorithmic settings
--------------------
Integral transformation                    ... AO direct full transformation
K(C) Formation                             ... FULL-MO TRAFO
Maximum number of iterations               ...        50
Convergence tolerance (max. residuum)      ... 1.000e-05
Level shift for amplitude update           ... 2.000e-01
Maximum number of DIIS vectors             ...         7
DIIS turned on at iteration                ...         0
Damping before turning on DIIS             ...     0.500
Damping after turning on DIIS              ...     0.000
Pair specific amplitude update             ... OFF
Natural orbital iterations                 ... OFF
Perturbative natural orbital generation    ... OFF
Printlevel                                 ... 2

Memory handling:
----------------
Maximum memory for working arrays          ...   2500 MB
Data storage in matrix containers          ... UNCOMPRESSED
Data type for integral storage             ... DOUBLE
In-Core Storage of quantities:
   Amplitudes+Sigma Vector      ... YES
   J+K operators                ... YES
   DIIS vectors                 ... YES
   3-external integrals         ... YES
   4-external integrals         ... YES


Initializing the integral package          ... done
Warning: reference  - re-canonicalizations have been set to INT 1 VIRT 1

--------------------------
UNRESTRICTED FOCK OPERATOR
--------------------------

<ss|ss>:          406 b            0 skpd (  0.0%)    0.000 s ( 0.000 ms/b)
<ss|sp>:          980 b            0 skpd (  0.0%)    0.000 s ( 0.000 ms/b)
<ss|sd>:          784 b            0 skpd (  0.0%)    0.000 s ( 0.000 ms/b)
<ss|sf>:          784 b            0 skpd (  0.0%)    0.000 s ( 0.000 ms/b)
<ss|sg>:          392 b            0 skpd (  0.0%)    0.000 s ( 0.000 ms/b)
<ss|pp>:          420 b            0 skpd (  0.0%)    0.000 s ( 0.000 ms/b)
<ss|pd>:          560 b            0 skpd (  0.0%)    0.000 s ( 0.000 ms/b)
<ss|pf>:          560 b            0 skpd (  0.0%)    0.000 s ( 0.000 ms/b)
<ss|pg>:          280 b            0 skpd (  0.0%)    0.000 s ( 0.001 ms/b)
<ss|dd>:          280 b            0 skpd (  0.0%)    0.000 s ( 0.001 ms/b)
<ss|df>:          448 b            0 skpd (  0.0%)    0.000 s ( 0.000 ms/b)
<ss|dg>:          224 b            0 skpd (  0.0%)    0.000 s ( 0.001 ms/b)
<ss|ff>:          280 b            0 skpd (  0.0%)    0.000 s ( 0.001 ms/b)
<ss|fg>:          224 b            0 skpd (  0.0%)    0.000 s ( 0.002 ms/b)
<ss|gg>:           84 b            0 skpd (  0.0%)    0.000 s ( 0.005 ms/b)
<sp|sp>:          630 b            0 skpd (  0.0%)    0.000 s ( 0.000 ms/b)
<sp|sd>:          980 b            0 skpd (  0.0%)    0.000 s ( 0.000 ms/b)
<sp|sf>:          980 b            0 skpd (  0.0%)    0.000 s ( 0.000 ms/b)
<sp|sg>:          490 b            0 skpd (  0.0%)    0.000 s ( 0.000 ms/b)
<sp|pp>:          525 b            0 skpd (  0.0%)    0.000 s ( 0.000 ms/b)
<sp|pd>:          700 b            2 skpd (  0.3%)    0.000 s ( 0.001 ms/b)
<sp|pf>:          700 b            3 skpd (  0.4%)    0.000 s ( 0.001 ms/b)
<sp|pg>:          350 b            3 skpd (  0.9%)    0.001 s ( 0.002 ms/b)
<sp|dd>:          350 b            0 skpd (  0.0%)    0.001 s ( 0.001 ms/b)
<sp|df>: done
<sp|dg>: done
<sp|ff>: done
<sp|fg>: done
<sp|gg>: done
<sd|sd>:          406 b            0 skpd (  0.0%)    0.000 s ( 0.001 ms/b)
<sd|sf>:          784 b            0 skpd (  0.0%)    0.000 s ( 0.001 ms/b)
<sd|sg>:          392 b            0 skpd (  0.0%)    0.000 s ( 0.001 ms/b)
<sd|pp>:          420 b            0 skpd (  0.0%)    0.000 s ( 0.001 ms/b)
<sd|pd>:          560 b            0 skpd (  0.0%)    0.001 s ( 0.001 ms/b)
<sd|pf>: done
<sd|pg>: done
<sd|dd>:          280 b            0 skpd (  0.0%)    0.001 s ( 0.004 ms/b)
<sd|df>:          448 b            0 skpd (  0.0%)    0.001 s ( 0.003 ms/b)
<sd|dg>:          224 b            0 skpd (  0.0%)    0.002 s ( 0.009 ms/b)
<sd|ff>: done
<sd|fg>: done
<sd|gg>: done
<sf|sf>:          406 b            0 skpd (  0.0%)    0.000 s ( 0.001 ms/b)
<sf|sg>:          392 b            0 skpd (  0.0%)    0.000 s ( 0.001 ms/b)
<sf|pp>:          420 b            1 skpd (  0.2%)    0.001 s ( 0.003 ms/b)
<sf|pd>: done
<sf|pf>: done
<sf|pg>: done
<sf|dd>:          280 b            0 skpd (  0.0%)    0.002 s ( 0.009 ms/b)
<sf|df>: done
<sf|dg>: done
<sf|ff>: done
<sf|fg>: done
<sf|gg>: done
<sg|sg>:          105 b            0 skpd (  0.0%)    0.000 s ( 0.003 ms/b)
<sg|pp>:          210 b            0 skpd (  0.0%)    0.001 s ( 0.005 ms/b)
<sg|pd>: done
<sg|pf>: done
<sg|pg>: done
<sg|dd>:          140 b            0 skpd (  0.0%)    0.002 s ( 0.016 ms/b)
<sg|df>: done
<sg|dg>: done
<sg|ff>: done
<sg|fg>: done
<sg|gg>: done
<pp|pp>:          120 b            0 skpd (  0.0%)    0.001 s ( 0.005 ms/b)
<pp|pd>:          300 b            0 skpd (  0.0%)    0.001 s ( 0.002 ms/b)
<pp|pf>:          300 b            0 skpd (  0.0%)    0.000 s ( 0.002 ms/b)
<pp|pg>:          150 b            0 skpd (  0.0%)    0.000 s ( 0.003 ms/b)
<pp|dd>:          150 b            0 skpd (  0.0%)    0.001 s ( 0.006 ms/b)
<pp|df>:          240 b            0 skpd (  0.0%)    0.001 s ( 0.003 ms/b)
<pp|dg>:          120 b            0 skpd (  0.0%)    0.001 s ( 0.009 ms/b)
<pp|ff>:          150 b            0 skpd (  0.0%)    0.001 s ( 0.005 ms/b)
<pp|fg>:          120 b            0 skpd (  0.0%)    0.001 s ( 0.009 ms/b)
<pp|gg>:           45 b            0 skpd (  0.0%)    0.001 s ( 0.031 ms/b)
<pd|pd>:          210 b            0 skpd (  0.0%)    0.002 s ( 0.008 ms/b)
<pd|pf>:          400 b            0 skpd (  0.0%)    0.001 s ( 0.003 ms/b)
<pd|pg>:          200 b            0 skpd (  0.0%)    0.001 s ( 0.005 ms/b)
<pd|dd>:          200 b            0 skpd (  0.0%)    0.001 s ( 0.007 ms/b)
<pd|df>:          320 b            0 skpd (  0.0%)    0.001 s ( 0.004 ms/b)
<pd|dg>:          160 b            0 skpd (  0.0%)    0.002 s ( 0.012 ms/b)
<pd|ff>: done
<pd|fg>: done
<pd|gg>: done
<pf|pf>:          210 b            0 skpd (  0.0%)    0.001 s ( 0.005 ms/b)
<pf|pg>:          200 b            0 skpd (  0.0%)    0.001 s ( 0.007 ms/b)
<pf|dd>:          200 b            0 skpd (  0.0%)    0.002 s ( 0.009 ms/b)
<pf|df>: done
<pf|dg>: done
<pf|ff>: done
<pf|fg>: done
<pf|gg>: done
<pg|pg>:           55 b            0 skpd (  0.0%)    0.001 s ( 0.021 ms/b)
<pg|dd>:          100 b            0 skpd (  0.0%)    0.001 s ( 0.015 ms/b)
<pg|df>: done
<pg|dg>: done
<pg|ff>: done
<pg|fg>: done
<pg|gg>: done
<dd|dd>:           55 b            0 skpd (  0.0%)    0.001 s ( 0.020 ms/b)
<dd|df>:          160 b            0 skpd (  0.0%)    0.001 s ( 0.006 ms/b)
<dd|dg>:           80 b            0 skpd (  0.0%)    0.002 s ( 0.019 ms/b)
<dd|ff>:          100 b            0 skpd (  0.0%)    0.001 s ( 0.010 ms/b)
<dd|fg>:           80 b            0 skpd (  0.0%)    0.001 s ( 0.017 ms/b)
<dd|gg>:           30 b            0 skpd (  0.0%)    0.002 s ( 0.067 ms/b)
<df|df>:          136 b            0 skpd (  0.0%)    0.002 s ( 0.016 ms/b)
<df|dg>:          128 b            0 skpd (  0.0%)    0.003 s ( 0.025 ms/b)
<df|ff>: done
<df|fg>: done
<df|gg>: done
<dg|dg>:           36 b            0 skpd (  0.0%)    0.003 s ( 0.073 ms/b)
<dg|ff>: done
<dg|fg>: done
<dg|gg>: done
<ff|ff>: done
<ff|fg>: done
<ff|gg>: done
<fg|fg>: done
<fg|gg>: done
<gg|gg>: done
Recanonicalizing the internal orbitals
Recanonicalizing the virtual orbitals
Time needed for Fock operator              ...            0.105 sec
Reference energy                           ...   -134.789916936
Warning: for UHF the TrafoType has to be JK
Warning: for UHF the K(C)-option cannot be MO but must be AOX

-------------------------------
PARTIAL EXCHANGE TRANSFORMATION
-------------------------------

Transformation type                        ... two-operators
Generation of integrals (i,mue|j,nue)      ... ON
Generation of integrals (mue,kappa|nue,tau)... ON
Generation of integrals (i,mue|a,nue)      ... ON
Dimension of the basis                     ...   88
Number of internal alpha-MOs               ...   10 (   0-   9)
Number of internal beta-MOs                ...    9 (   0-   8)
Number of external alpha-MOs               ...   78 (  10-  87)
Number of external beta-MOs                ...   79 (   9-  87)
Pair cutoff                                ... 0.000e+00 Eh
Number of AO pairs in the trafo            ... 3916
Total Number of distinct AO pairs          ... 3916
Memory devoted for trafo                   ... 2500.0 MB 
Max. Number of MO pairs treated together   ... 42314      
Number Format for Storage                  ... Double (8 Byte)
Integral package used                      ... LIBINT

Starting integral evaluation:
    ... done with AO integral generation
Closing buffer AOK[aa] ( 0.00 GB; CompressionRatio= 0.00)
Closing buffer AOK[bb] ( 0.00 GB; CompressionRatio= 0.00)
Closing buffer AOK[ab] ( 0.00 GB; CompressionRatio= 0.00)
Closing buffer AOK[ba] ( 0.00 GB; CompressionRatio= 0.00)
Collecting buffer AOK 
Closing buffer IAAO1[aa] ( 0.00 GB; CompressionRatio= 0.00)
Closing buffer IAAO1[bb] ( 0.00 GB; CompressionRatio= 0.00)
Closing buffer IAAO1[ab] ( 0.00 GB; CompressionRatio= 0.00)
Closing buffer IAAO1[ba] ( 0.00 GB; CompressionRatio= 0.00)
Closing buffer IAAO2[aa] ( 0.00 GB; CompressionRatio= 0.00)
Closing buffer IAAO2[bb] ( 0.00 GB; CompressionRatio= 0.00)
Closing buffer IAAO2[ab] ( 0.00 GB; CompressionRatio= 0.00)
Closing buffer IAAO2[ba] ( 0.00 GB; CompressionRatio= 0.00)
Collecting buffer IAAO 
Closing buffer PRQS    ( 0.00 GB; CompressionRatio= 0.00)
Collecting buffer PRQS 
Number of alpha/alpha MO pairs in trafo    ...   55
Number of beta /beta  MO pairs in trafo    ...   45
Number of alpha/ beta MO pairs in trafo    ...   90
------------------------
SORTING OF (i,mue|j,nue)
------------------------

SORTING OF ALPHA/ALPHA PAIRS
IBATCH = 1 of  1
Closing buffer KAO[aa] ( 0.00 GB; CompressionRatio= 1.00)
Collecting buffer KAO 
SORTING OF BETA /BETA  PAIRS
IBATCH = 1 of  1
Closing buffer KAO[bb] ( 0.00 GB; CompressionRatio= 1.00)
Collecting buffer KAO 
SORTING OF ALPHA/BETA  PAIRS
IBATCH = 1 of  1
Closing buffer KAO[ab] ( 0.00 GB; CompressionRatio= 0.999806339165)
Collecting buffer KAO[ab] 
------------------------
SORTING OF (i,mue|a,nue)
------------------------

Number of alpha/alpha (i,a) pairs in trafo  ...  780
Number of beta /beta  (i,a) pairs in trafo  ...  711
Number of alpha/ beta (i,a) pairs in trafo  ...  790
Number of beta /alpha (i,a) pairs in trafo  ...  702
Setting up the alpha/alpha list             ... done
Setting up the beta /beta  list             ... done
Setting up the alpha/beta  list             ... done
Setting up the beta /alpha list             ... done
    ... Now sorting (i,mue|a,nue)integrals
    ... Integrals (i,b|a,c) will be made on the fly
SORTING OF ALPHA/ALPHA PAIRS
IBATCH = 1 of  1
Closing buffer IPAQ[aa]  0.00 GB; CompressionRatio= 1.00)
SORTING OF BETA /BETA  PAIRS
IBATCH = 1 of  1
Closing buffer IPAQ[bb]( 0.00 GB; CompressionRatio= 1.00)
SORTING OF ALPHA/BETA  PAIRS (NMatSort_ab=33)
IBATCH = 1 of  1
Closing buffer IPAQ[ab]( 0.00 GB; CompressionRatio= 1.00)
SORTING OF BETA/ALPHA  PAIRS
IBATCH = 1 of  1
Closing buffer IPAQ[ba]( 0.00 GB; CompressionRatio= 1.00)
N(AO-Batches) Done                         ...         0 
N(AO-Batches) Skipped                      ...         0 
N(IJ)-pairs Skipped                        ...         0 
TOTAL TIME for half transformation         ...     6.506 sec
AO-integral generation                     ...     0.000 sec
Half transformation                        ...     0.000 sec
K-integral sorting                         ...     1.414 sec
<ss|**>: 
------------------------------
PARTIAL COULOMB TRANSFORMATION
------------------------------

Transformation type                        ... two-operators
Dimension of the basis                     ...   88
Number of internal alpha-MOs               ...   10 (0-9)
Number of internal beta-MOs                ...    9 (0-8)
Pair cutoff                                ... 0.000e+00 Eh
Number of AO pairs included in the trafo   ... 3916
Total Number of distinct AO pairs          ... 3916
Memory devoted for trafo                   ... 2500.0 MB 
Max. Number of MO pairs treated together   ... 83677      
Max. Number of MOs treated per batch       ...  950      
Number Format for Storage                  ... Double (8 Byte)
AO-integral source                         ... DIRECT
Integral package used                      ... LIBINT

Starting integral evaluation:
<sp|**>:         7084 b        0 skpd     0.003 s (  0.000 ms/b)
<sd|**>:         8855 b        0 skpd     0.016 s (  0.002 ms/b)
        7084 b        0 skpd     0.028 s (  0.004 ms/b)
<sf|**>:         7084 b        0 skpd     0.042 s (  0.006 ms/b)
<sg|**>: <pp|**>:         3542 b        0 skpd     0.025 s (  0.007 ms/b)
        3795 b        0 skpd     0.024 s (  0.006 ms/b)
<pd|**>:         5060 b        0 skpd     0.052 s (  0.010 ms/b)
<pf|**>:         5060 b        0 skpd     0.076 s (  0.015 ms/b)
<pg|**>:         2530 b        0 skpd     0.056 s (  0.022 ms/b)
<dd|**>:         2530 b        0 skpd     0.044 s (  0.017 ms/b)
<df|**>:         4048 b        0 skpd     0.092 s (  0.023 ms/b)
<dg|**>:         2024 b        0 skpd     0.080 s (  0.040 ms/b)
<ff|**>:         2530 b        0 skpd     0.083 s (  0.033 ms/b)
<fg|**>:         2024 b        0 skpd     0.108 s (  0.053 ms/b)
<gg|**>:          759 b        0 skpd     0.092 s (  0.121 ms/b)
Closing buffer AOJ[aa] ( 0.00 GB; CompressionRatio= 0.97)
Closing buffer AOJ[bb] ( 0.00 GB; CompressionRatio= 0.00)
Collecting buffer AOJ 
    ... done with AO integral generation
Number of Alpha-MO pairs included          ...   55
Number of Beta-MO pairs included           ...   45
    ... Now sorting integrals
SORTING ALPHA/ALPHA PAIRS
IBATCH = 1 of  1
Closing buffer JAO[aa] ( 0.00 GB; CompressionRatio= 1.00)
SORTING BETA/BETA PAIRS
IBATCH = 1 of  1
Closing buffer JAO[bb] ( 0.00 GB; CompressionRatio= 1.00)
Collecting buffer JAO 
TOTAL TIME for half transformation         ...     0.983 sec
AO-integral generation                     ...     0.527 sec
Half transformation                        ...     0.303 sec
J-integral sorting                         ...     0.106 sec

-------------------------- SECOND HALF TRANSFORMATION -------------------------
Formation of (ij|kl),(ij|ka), (ij|ab)      ... ok (     0.161 sec)
Formation of (ik|jl),(ik|ja), (ia|jb)      ... ok (     0.272 sec)


-----------------------
SPIN UNRESTRICTED GUESS
-----------------------

Entering MDCI_UHF_Guess, Tailored=0
Spin-components of the MP2 energy:
EMP2(aa)=     -0.118758603
EMP2(bb)=     -0.095675810
EMP2(ab)=     -0.444589961

Initial guess performed in     0.029 sec
E(0)                                       ...   -134.789916936
E(MP2)                                     ...     -0.659024374
Initial E(tot)                             ...   -135.448941310
<T|T>                                      ...      0.134979046
Number of pairs included                   ... 171

------------------------------------------------
                  UHF COUPLED CLUSTER ITERATIONS
------------------------------------------------

Number of amplitudes to be optimized       ...       804535

Iter       E(tot)           E(Corr)          Delta-E          Residual     Time      <S|S>**1/2
  0   -135.448941310     -0.659024374     -0.000000000      0.021249542    0.74      0.000000593
                           *** Turning on DIIS ***
  1   -135.396835078     -0.606918143      0.052106231      0.006838408    0.60      0.037055657
  2   -135.410036047     -0.620119111     -0.013200969      0.004722579    0.63      0.041225901
  3   -135.411010421     -0.621093486     -0.000974374      0.002615255    0.65      0.049353003
  4   -135.411519289     -0.621602354     -0.000508868      0.001127426    0.66      0.053598040
  5   -135.411682032     -0.621765096     -0.000162743      0.000296236    0.63      0.055960480
  6   -135.411695319     -0.621778383     -0.000013287      0.000060340    0.66      0.056485072
  7   -135.411698244     -0.621781309     -0.000002926      0.000013508    0.68      0.056579426
  8   -135.411698883     -0.621781947     -0.000000639      0.000002719    0.67      0.056595875
               --- The Coupled-Cluster iterations have converged ---

----------------------
COUPLED CLUSTER ENERGY
----------------------

E(0)                                       ...   -134.789916936
E(CORR)                                    ...     -0.621781947
E(TOT)                                     ...   -135.411698883
Singles norm <S|S>**1/2                    ...      0.056595875 ( 0.035564078, 0.021031797)  
T1 diagnostic                              ...      0.012983984                              

------------------
LARGEST AMPLITUDES
------------------
   9a-> 13a  -1a-> -1a       0.054099
   9a-> 29a  -1a-> -1a       0.031552
   9a-> 14a   7b-> 15b       0.015097
   7b-> 21b  -1b-> -1b       0.014097
   8b-> 20b  -1b-> -1b       0.013559
   9a-> 16a   4b-> 14b       0.013167
   9a-> 16a   5b-> 15b       0.013091
   6b-> 17b  -1b-> -1b       0.013077
   5b-> 18b  -1b-> -1b       0.013034
   9a-> 14a   5b-> 16b       0.012502
   4b-> 19b  -1b-> -1b       0.012276
   9a-> 16a   8b-> 16b       0.012253
   9a-> 15a   6b-> 15b       0.011551
   9a-> 15a   7b-> 14b       0.011492
   9a-> 12a   4b-> 14b       0.011478
   9a-> 15a   4b-> 16b       0.011208

----------------------
UHF TRIPLES CORRECTION (Algorithm 1)
----------------------

Multiplier for the singles contribution    ...      1.000000000

SPIN-CASE Alpha-Alpha-Alpha:
10% done
20% done
30% done
40% done
50% done
60% done
70% done
80% done
90% done


SPIN-CASE Beta-Beta-Beta:
10% done
20% done
30% done
40% done
50% done
60% done
70% done
80% done
90% done


SPIN-CASE Alpha-Alpha-Beta:
10% done
20% done
30% done
40% done
50% done
60% done
70% done
80% done
90% done


SPIN-CASE Beta-Beta-Alpha:
10% done
20% done
30% done
40% done
50% done
60% done
70% done
80% done
90% done


Triples Correction (T)                     ...     -0.023294721
    alpha-alpha-alpha ... -0.001336114 (  5.7%)
    alpha-alpha-beta  ... -0.011918175 ( 51.2%)
    alpha-beta -beta  ... -0.009336684 ( 40.1%)
    beta -beta -beta  ... -0.000703748 (  3.0%)
Scaling of triples based on CCSD energies (Peterson et al. Molecular Physics 113, 1551 (2015))
E(T*) = f*E(T) where f = E(F12-CCSD)/E(CCSD) 
f = CCSD (with F12)/ CCSD (without F12)    ...      1.000000000
Scaled triples correction (T)              ...     -0.023294721

Final correlation energy                   ...     -0.645076668
E(CCSD)                                    ...   -135.411698883
E(CCSD(T))                                 ...   -135.434993604



        !!!!!!!!!!!!!!!!!!!!!!!!!!!!!!!!!!!!!!!!!!!!!!!!!!!!!!!!!!!!!!!!!!!!!!!!!! 
        !  Warning: Densities are linearized densities                           !
        !!!!!!!!!!!!!!!!!!!!!!!!!!!!!!!!!!!!!!!!!!!!!!!!!!!!!!!!!!!!!!!!!!!!!!!!!! 

NORM  =      1.125261887 sqrt=     1.060783619
W(HF) =      0.888682014
------------------------------------------------------------------------------
                           ORCA POPULATION ANALYSIS
------------------------------------------------------------------------------
Input electron density              ... 79_Au.mdcip
Input spin density                  ... 79_Au.mdcir
BaseName (.gbw .S,...)              ... 79_Au

                    ********************************
                    * MULLIKEN POPULATION ANALYSIS *
                    ********************************

------------------------------------------
MULLIKEN ATOMIC CHARGES AND SPIN DENSITIES
------------------------------------------
   0 Au:   -0.000000    1.000000
Sum of atomic charges       :   -0.0000000
Sum of atomic spin densities:    1.0000000

---------------------------------------------------
MULLIKEN REDUCED ORBITAL CHARGES AND SPIN DENSITIES
---------------------------------------------------
CHARGE
  0 Aus       :     2.981226  s :     2.981226
      pz      :     2.008951  p :     6.026853
      px      :     2.008951
      py      :     2.008951
      dz2     :     1.975155  d :     9.875777
      dxz     :     1.975155
      dyz     :     1.975155
      dx2y2   :     1.975155
      dxy     :     1.975155
      f0      :     0.014570  f :     0.101990
      f+1     :     0.014570
      f-1     :     0.014570
      f+2     :     0.014570
      f-2     :     0.014570
      f+3     :     0.014570
      f-3     :     0.014570
      g0      :     0.001573  g :     0.014155
      g+1     :     0.001573
      g-1     :     0.001573
      g+2     :     0.001573
      g-2     :     0.001573
      g+3     :     0.001573
      g-3     :     0.001573
      g+4     :     0.001573
      g-4     :     0.001573

SPIN
  0 Aus       :     0.976912  s :     0.976912
      pz      :     0.004355  p :     0.013065
      px      :     0.004355
      py      :     0.004355
      dz2     :     0.002393  d :     0.011967
      dxz     :     0.002393
      dyz     :     0.002393
      dx2y2   :     0.002393
      dxy     :     0.002393
      f0      :    -0.000345  f :    -0.002417
      f+1     :    -0.000345
      f-1     :    -0.000345
      f+2     :    -0.000345
      f-2     :    -0.000345
      f+3     :    -0.000345
      f-3     :    -0.000345
      g0      :     0.000053  g :     0.000473
      g+1     :     0.000053
      g-1     :     0.000053
      g+2     :     0.000053
      g-2     :     0.000053
      g+3     :     0.000053
      g-3     :     0.000053
      g+4     :     0.000053
      g-4     :     0.000053


                     *******************************
                     * LOEWDIN POPULATION ANALYSIS *
                     *******************************

-----------------------------------------
LOEWDIN ATOMIC CHARGES AND SPIN DENSITIES
-----------------------------------------
   0 Au:   -0.000000    1.000000

--------------------------------------------------
LOEWDIN REDUCED ORBITAL CHARGES AND SPIN DENSITIES
--------------------------------------------------
CHARGE
  0 Aus       :     2.981226  s :     2.981226
      pz      :     2.008951  p :     6.026853
      px      :     2.008951
      py      :     2.008951
      dz2     :     1.975155  d :     9.875777
      dxz     :     1.975155
      dyz     :     1.975155
      dx2y2   :     1.975155
      dxy     :     1.975155
      f0      :     0.014570  f :     0.101990
      f+1     :     0.014570
      f-1     :     0.014570
      f+2     :     0.014570
      f-2     :     0.014570
      f+3     :     0.014570
      f-3     :     0.014570
      g0      :     0.001573  g :     0.014155
      g+1     :     0.001573
      g-1     :     0.001573
      g+2     :     0.001573
      g-2     :     0.001573
      g+3     :     0.001573
      g-3     :     0.001573
      g+4     :     0.001573
      g-4     :     0.001573

SPIN
  0 Aus       :     0.976912  s :     0.976912
      pz      :     0.004355  p :     0.013065
      px      :     0.004355
      py      :     0.004355
      dz2     :     0.002393  d :     0.011967
      dxz     :     0.002393
      dyz     :     0.002393
      dx2y2   :     0.002393
      dxy     :     0.002393
      f0      :    -0.000345  f :    -0.002417
      f+1     :    -0.000345
      f-1     :    -0.000345
      f+2     :    -0.000345
      f-2     :    -0.000345
      f+3     :    -0.000345
      f-3     :    -0.000345
      g0      :     0.000053  g :     0.000473
      g+1     :     0.000053
      g-1     :     0.000053
      g+2     :     0.000053
      g-2     :     0.000053
      g+3     :     0.000053
      g-3     :     0.000053
      g+4     :     0.000053
      g-4     :     0.000053


                      *****************************
                      * MAYER POPULATION ANALYSIS *
                      *****************************

  NA   - Mulliken gross atomic population
  ZA   - Total nuclear charge
  QA   - Mulliken gross atomic charge
  VA   - Mayer's total valence
  BVA  - Mayer's bonded valence
  FA   - Mayer's free valence

  ATOM       NA         ZA         QA         VA         BVA        FA
  0 Au    19.0000    19.0000    -0.0000     1.8896     0.0000     1.8896





------------------------------------------------------------------------------- 
                                     TIMINGS                                   
------------------------------------------------------------------------------- 


Total execution time                   ...       16.268 sec

Fock Matrix Formation                  ...        0.105 sec (  0.6%)
Initial Guess                          ...        0.029 sec (  0.2%)
DIIS Solver                            ...        0.569 sec (  3.5%)
State Vector Update                    ...        0.030 sec (  0.2%)
Sigma-vector construction              ...        5.322 sec ( 32.7%)
  <0|H|D>                              ...        0.002 sec (  0.0% of sigma)
  <D|H|D>(0-ext Fock)                  ...        0.010 sec (  0.2% of sigma)
  <D|H|D>(0-ext)                       ...        0.039 sec (  0.7% of sigma)
  <D|H|D>(2-ext Fock)                  ...        0.004 sec (  0.1% of sigma)
  <D|H|D>(2-ext)                       ...        0.167 sec (  3.1% of sigma)
  <D|H|D>(4-ext)                       ...        2.579 sec ( 48.5% of sigma)
  <S|H|0>                              ...        0.367 sec (  6.9% of sigma)
  <S|H|S>                              ...        0.001 sec (  0.0% of sigma)
  <S|H|D>(1-ext)                       ...        0.003 sec (  0.1% of sigma)
  <D|H|S>(1-ext)                       ...        0.049 sec (  0.9% of sigma)
  Fock-dressing                        ...        0.335 sec (  6.3% of sigma)
  (ik|jl)-dressing                     ...        0.050 sec (  0.9% of sigma)
  (ij|ab),(ia|jb)-dressing             ...        1.348 sec ( 25.3% of sigma)
  Pair energies                        ...        0.003 sec (  0.1% of sigma)
Total Time for computing (T)           ...        1.458 sec (  9.0% of ALL)
  I/O of integral and amplitudes       ...        0.322 sec ( 22.1% of (T))
  External N**7 contributions          ...        0.389 sec ( 26.7% of (T))
  Internal N**7 contributions          ...        0.208 sec ( 14.3% of (T))
  N**6 triples energy contributions    ...        0.510 sec ( 35.0% of (T))


-------------------------   --------------------
FINAL SINGLE POINT ENERGY      -135.434993603802
-------------------------   --------------------


                            ***************************************
                            *     ORCA property calculations      *
                            ***************************************

                                    ---------------------
                                    Active property flags
                                    ---------------------
   (+) Dipole Moment


------------------------------------------------------------------------------
                       ORCA ELECTRIC PROPERTIES CALCULATION
------------------------------------------------------------------------------

Dipole Moment Calculation                       ... on
Quadrupole Moment Calculation                   ... off
Polarizability Calculation                      ... off
GBWName                                         ... 79_Au.gbw
Electron density file                           ... 79_Au.scfp
The origin for moment calculation is the CENTER OF MASS  = ( 0.000000,  0.000000  0.000000)

-------------
DIPOLE MOMENT
-------------
                                X             Y             Z
Electronic contribution:      0.00000      -0.00000       0.00000
Nuclear contribution   :      0.00000       0.00000       0.00000
                        -----------------------------------------
Total Dipole Moment    :      0.00000      -0.00000       0.00000
                        -----------------------------------------
Magnitude (a.u.)       :      0.00000
Magnitude (Debye)      :      0.00000



--------------------
Rotational spectrum 
--------------------
 
Rotational constants in cm-1:     0.000000     0.000000     0.000000 
Rotational constants in MHz :     0.000000     0.000000     0.000000 

 Dipole components along the rotational axes: 
x,y,z [a.u.] :     0.000000    -0.000000     0.000000 
x,y,z [Debye]:     0.000000    -0.000000     0.000000 

 

                           *** MDCI DENSITY ***

------------------------------------------------------------------------------
                       ORCA ELECTRIC PROPERTIES CALCULATION
------------------------------------------------------------------------------

Dipole Moment Calculation                       ... on
Quadrupole Moment Calculation                   ... off
Polarizability Calculation                      ... off
GBWName                                         ... 79_Au.gbw
Electron density file                           ... 79_Au.mdcip
The origin for moment calculation is the CENTER OF MASS  = ( 0.000000,  0.000000  0.000000)

-------------
DIPOLE MOMENT
-------------
                                X             Y             Z
Electronic contribution:      0.00000      -0.00000       0.00000
Nuclear contribution   :      0.00000       0.00000       0.00000
                        -----------------------------------------
Total Dipole Moment    :      0.00000      -0.00000       0.00000
                        -----------------------------------------
Magnitude (a.u.)       :      0.00000
Magnitude (Debye)      :      0.00000



--------------------
Rotational spectrum 
--------------------
 
Rotational constants in cm-1:     0.000000     0.000000     0.000000 
Rotational constants in MHz :     0.000000     0.000000     0.000000 

 Dipole components along the rotational axes: 
x,y,z [a.u.] :     0.000000    -0.000000     0.000000 
x,y,z [Debye]:     0.000000    -0.000000     0.000000 

 

Timings for individual modules:

Sum of individual times         ...       25.926 sec (=   0.432 min)
GTO integral calculation        ...        0.882 sec (=   0.015 min)   3.4 %
SCF iterations                  ...        8.083 sec (=   0.135 min)  31.2 %
MDCI module                     ...       16.961 sec (=   0.283 min)  65.4 %
                             ****ORCA TERMINATED NORMALLY****
TOTAL RUN TIME: 0 days 0 hours 0 minutes 26 seconds 684 msec
