
                                 *****************
                                 * O   R   C   A *
                                 *****************

           --- An Ab Initio, DFT and Semiempirical electronic structure package ---

                  #######################################################
                  #                        -***-                        #
                  #          Department of theory and spectroscopy      #
                  #               Directorship: Frank Neese             #
                  #        Max Planck Institute fuer Kohlenforschung    #
                  #                Kaiser Wilhelm Platz 1               #
                  #                 D-45470 Muelheim/Ruhr               #
                  #                      Germany                        #
                  #                                                     #
                  #                  All rights reserved                #
                  #                        -***-                        #
                  #######################################################


                         Program Version 4.2.0 -  RELEASE  -


 With contributions from (in alphabetic order):
   Daniel Aravena         : Magnetic Suceptibility
   Michael Atanasov       : Ab Initio Ligand Field Theory (pilot matlab implementation)
   Alexander A. Auer      : GIAO ZORA, VPT2
   Ute Becker             : Parallelization
   Giovanni Bistoni       : ED, misc. LED, open-shell LED, HFLED
   Martin Brehm           : Molecular dynamics
   Dmytro Bykov           : SCF Hessian
   Vijay G. Chilkuri      : MRCI spin determinant printing, contributions to CSF-ICE
   Dipayan Datta          : RHF DLPNO-CCSD density
   Achintya Kumar Dutta   : EOM-CC, STEOM-CC
   Dmitry Ganyushin       : Spin-Orbit,Spin-Spin,Magnetic field MRCI
   Miquel Garcia          : C-PCM Hessian, Gaussian charge scheme
   Yang Guo               : DLPNO-NEVPT2, CIM, IAO-localization
   Andreas Hansen         : Spin unrestricted coupled pair/coupled cluster methods
   Benjamin Helmich-Paris : CASSCF linear response (MC-RPA)
   Lee Huntington         : MR-EOM, pCC
   Robert Izsak           : Overlap fitted RIJCOSX, COSX-SCS-MP3, EOM
   Christian Kollmar      : KDIIS, OOCD, Brueckner-CCSD(T), CCSD density
   Simone Kossmann        : Meta GGA functionals, TD-DFT gradient, OOMP2, MP2 Hessian
   Martin Krupicka        : AUTO-CI
   Lucas Lang             : DCDCAS
   Dagmar Lenk            : GEPOL surface, SMD
   Dimitrios Liakos       : Extrapolation schemes; Compound Job, initial MDCI parallelization
   Dimitrios Manganas     : Further ROCIS development; embedding schemes
   Dimitrios Pantazis     : SARC Basis sets
   Taras Petrenko         : DFT Hessian,TD-DFT gradient, ASA, ECA, R-Raman, ABS, FL, XAS/XES, NRVS
   Peter Pinski           : DLPNO-MP2, DLPNO-MP2 Gradient
   Christoph Reimann      : Effective Core Potentials
   Marius Retegan         : Local ZFS, SOC
   Christoph Riplinger    : Optimizer, TS searches, QM/MM, DLPNO-CCSD(T), (RO)-DLPNO pert. Triples
   Tobias Risthaus        : Range-separated hybrids, TD-DFT gradient, RPA, STAB
   Michael Roemelt        : Original ROCIS implementation
   Masaaki Saitow         : Open-shell DLPNO-CCSD energy and density
   Barbara Sandhoefer     : DKH picture change effects
   Avijit Sen             : IP-ROCIS
   Kantharuban Sivalingam : CASSCF convergence, NEVPT2, FIC-MRCI
   Bernardo de Souza      : ESD, SOC TD-DFT
   Georgi Stoychev        : AutoAux, RI-MP2 NMR
   Willem Van den Heuvel  : Paramagnetic NMR
   Boris Wezisla          : Elementary symmetry handling
   Frank Wennmohs         : Technical directorship


 We gratefully acknowledge several colleagues who have allowed us to
 interface, adapt or use parts of their codes:
   Stefan Grimme, W. Hujo, H. Kruse,             : VdW corrections, initial TS optimization,
                  C. Bannwarth                     DFT functionals, gCP, sTDA/sTD-DF
   Ed Valeev, F. Pavosevic, A. Kumar             : LibInt (2-el integral package), F12 methods
   Garnet Chan, S. Sharma, J. Yang, R. Olivares  : DMRG
   Ulf Ekstrom                                   : XCFun DFT Library
   Mihaly Kallay                                 : mrcc  (arbitrary order and MRCC methods)
   Andreas Klamt, Michael Diedenhofen            : otool_cosmo (COSMO solvation model)
   Jiri Pittner, Ondrej Demel                    : Mk-CCSD
   Frank Weinhold                                : gennbo (NPA and NBO analysis)
   Christopher J. Cramer and Donald G. Truhlar   : smd solvation model
   Lars Goerigk                                  : TD-DFT with DH, B97 family of functionals
   V. Asgeirsson, H. Jonsson                     : NEB implementation
   FAccTs GmbH                                   : IRC, NEB, NEB-TS, Multilevel, MM, QM/MM, CI optimization
   S Lehtola, MJT Oliveira, MAL Marques          : LibXC Library


 Your calculation uses the libint2 library for the computation of 2-el integrals
 For citations please refer to: http://libint.valeyev.net

 Your ORCA version has been built with support for libXC version: 4.2.3
 For citations please refer to: https://tddft.org/programs/libxc/

 This ORCA versions uses:
   CBLAS   interface :  Fast vector & matrix operations
   LAPACKE interface :  Fast linear algebra routines
   SCALAPACK package :  Parallel linear algebra routines


----- Orbital basis set information -----
Your calculation utilizes the basis: def2-SVP
   F. Weigend and R. Ahlrichs, Phys. Chem. Chem. Phys. 7, 3297 (2005).

----- AuxJ basis set information -----
Your calculation utilizes the auxiliary basis: def2/J
   F. Weigend, Phys. Chem. Chem. Phys. 8, 1057 (2006).

================================================================================
                                        WARNINGS
                       Please study these warnings very carefully!
================================================================================


INFO   : the flag for use of LIBINT has been found!

================================================================================
                                       INPUT FILE
================================================================================
NAME = 80_Hg_atom80.inp
|  1> # input to generate an atomic fitting density for Hg
|  2> # this file is use internally by ORCA
|  3> #
|  4> # atomic ground state (S=1): 1s2 2s2 2p6 3s2 3p6 4s2 3d10 4p6 5s2 4d10 5p6 6s2 4f14 5d10 
|  5> #
|  6> ! RHF AllowRHF def2-SVP def2/J  NoMulliken NoLoewdin NoMayer NoPrintMOs 
|  7> 
|  8> %output print[p_atomdensfit] 2 end
|  9> 
| 10> %scf
| 11>   guess hcore
| 12>   maxiter 1000
| 13>   maxdisk 500000
| 14>   SCFMode Conventional
| 15>   lshift 1.000000
| 16>   hftyp rohf
| 17>   rohf_case sahf
| 18>   rohf_numop   2
| 19>   rohf_norb[1] 5
| 20>   rohf_nel[1]  10
| 21> end
| 22> 
| 23> %basis
| 24>   NewECP 80
| 25>     N_core 60
| 26>     lmax f
| 27>     s 3
| 28>       1      12.9815487000    275.7372117000  2
| 29>       2       6.4907744000     49.0892125000  2
| 30>       3       3.8857911000    -30.3649964000  2
| 31>     p 3
| 32>       1      10.5380958000    241.5400740000  2
| 33>       2       5.2690479000     27.3965908000  2
| 34>       3       3.8857911000    -30.3649964000  2
| 35>     d 3
| 36>       1       8.1017205000    127.8670076000  2
| 37>       2       4.0508603000     16.6083115000  2
| 38>       3       3.8857911000    -30.3649964000  2
| 39>     f 1
| 40>       1       3.8857911000     30.3649964000  2
| 41>   end
| 42>   NewGTO 80
| 43>     s 3 
| 44>      1      48.0137869900      0.0284151479
| 45>      2      21.2398750950     -0.8616326732
| 46>      3      15.8761008790      1.8158357216
| 47>     s 1 
| 48>      1       5.4865939429      1.0000000000
| 49>     s 1 
| 50>      1       1.5521766895      1.0000000000
| 51>     s 1 
| 52>      1       0.7474254119      1.0000000000
| 53>     s 1 
| 54>      1       0.2026883848      1.0000000000
| 55>     s 1 
| 56>      1       0.0933762292      1.0000000000
| 57>     s 1 
| 58>      1       0.0412487056      1.0000000000
| 59>     p 4 
| 60>      1      17.5000000000     -0.2060509577
| 61>      2      15.2525948550      0.3652916199
| 62>      3       6.4404715169     -0.7215344055
| 63>      4       1.8180159920      1.2955770587
| 64>     p 1 
| 65>      1       0.9006798180      1.0000000000
| 66>     p 1 
| 67>      1       0.4130454012      1.0000000000
| 68>     p 1 
| 69>      1       0.1184570265      1.0000000000
| 70>     p 1 
| 71>      1       0.0360876193      1.0000000000
| 72>     d 4 
| 73>      1      11.8886489870      0.0229388386
| 74>      2       6.7773660954     -0.1263953757
| 75>      3       2.0934941340      0.4162731027
| 76>      4       1.0817087176      0.6697660125
| 77>     d 1 
| 78>      1       0.5332913606      1.0000000000
| 79>     d 1 
| 80>      1       0.2498410183      1.0000000000
| 81>     d 1 
| 82>      1       0.1087977006      1.0000000000
| 83>   end
| 84>   NewAuxGTO 80
| 85>     S 1
| 86>      1 1310.72 1.0
| 87>     S 1
| 88>      1  655.36 1.0
| 89>     S 1
| 90>      1  327.68 1.0
| 91>     S 1
| 92>      1  163.84 1.0
| 93>     S 1
| 94>      1   81.82 1.0
| 95>     S 1
| 96>      1   40.96 1.0
| 97>     S 1
| 98>      1   20.48 1.0
| 99>     S 1
|100>      1   10.24 1.0
|101>     S 1
|102>      1    5.12 1.0
|103>     S 1
|104>      1    2.56 1.0
|105>     S 1
|106>      1    1.28 1.0
|107>     S 1
|108>      1    0.64 1.0
|109>     S 1
|110>      1    0.32 1.0
|111>     S 1
|112>      1    0.16 1.0
|113>     S 1
|114>      1    0.08 1.0
|115>     S 1
|116>      1    0.04 1.0
|117>     S 1
|118>      1    0.02 1.0
|119>     S 1
|120>      1    0.01 1.0
|121>   end
|122> end
|123> 
|124> * xyz 0 1
|125> 80  0.0 0.0 0.0
|126> *
|127> 
|128> 
|129>                          ****END OF INPUT****
================================================================================

                       ****************************
                       * Single Point Calculation *
                       ****************************

---------------------------------
CARTESIAN COORDINATES (ANGSTROEM)
---------------------------------
  Hg     0.000000    0.000000    0.000000

----------------------------
CARTESIAN COORDINATES (A.U.)
----------------------------
  NO LB      ZA    FRAG     MASS         X           Y           Z
   0 Hg   20.0000*   0   200.590    0.000000    0.000000    0.000000
* core charge reduced due to ECP

--------------------------------
INTERNAL COORDINATES (ANGSTROEM)
--------------------------------
 Hg     0   0   0     0.000000000000     0.00000000     0.00000000

---------------------------
INTERNAL COORDINATES (A.U.)
---------------------------
 Hg     0   0   0     0.000000000000     0.00000000     0.00000000

---------------------
BASIS SET INFORMATION
---------------------
There are 1 groups of distinct atoms

 Group   1 Type Hg  : 9s8p7d contracted to 7s5p4d pattern {3111111/41111/4111}

Atom   0Hg   basis set group =>   1
---------------------------------
AUXILIARY/J BASIS SET INFORMATION
---------------------------------
There are 1 groups of distinct atoms

 Group   1 Type Hg  : 18s contracted to 18s pattern {111111111111111111}

Atom   0Hg   basis set group =>   1
-------------------------
ECP PARAMETER INFORMATION
-------------------------

 Group 1, Type Hg ECP (replacing 60 core electrons, lmax=3)

Atom   0Hg   ECP group =>   1

------------------------------------------------------------------------------
                           ORCA GTO INTEGRAL CALCULATION
------------------------------------------------------------------------------

                         BASIS SET STATISTICS AND STARTUP INFO

 # of primitive gaussian shells          ...   24
 # of primitive gaussian functions       ...   68
 # of contracted shells                  ...   16
 # of contracted basis functions         ...   42
 Highest angular momentum                ...    2
 Maximum contraction depth               ...    4
 Integral package used                   ... LIBINT
 Integral threshhold            Thresh   ...  1.000e-10
 Primitive cut-off              TCut     ...  1.000e-11
 Storage cut-off                TCutStore... -1.000e+00
 Buffer length                           ... 1048576 integrals/buffer
 Generate file with integrals 4 distinct ...false


------------------------------ INTEGRAL EVALUATION ----------------------------


 * One electron integrals 

   ECP integrals                         ... done
 Pre-screening matrix                    ... done
 Shell pair data                         ... done (   0.000 sec)
 Statistics run                          ... done
 Maximum amount of storage needed        ...     4 MB
 Maximum amount of storage dedicated     ... 500000 MB
 Beginning two electron integral evaluation:
 Starting repulsion integrals
  <ss|ss>  ...          406 b.         0 skpd (  0.0%)     0.000 s. (  0.000 ms/b)
  <ss|sp>  ...          980 b.         0 skpd (  0.0%)     0.000 s. (  0.000 ms/b)
  <ss|sd>  ...          784 b.         0 skpd (  0.0%)     0.000 s. (  0.000 ms/b)
  <ss|pp>  ...          420 b.         0 skpd (  0.0%)     0.000 s. (  0.000 ms/b)
  <ss|pd>  ...          560 b.         0 skpd (  0.0%)     0.000 s. (  0.001 ms/b)
  <ss|dd>  ...          280 b.         0 skpd (  0.0%)     0.000 s. (  0.001 ms/b)
  <sp|sp>  ...          630 b.         0 skpd (  0.0%)     0.000 s. (  0.000 ms/b)
  <sp|sd>  ...          980 b.         0 skpd (  0.0%)     0.001 s. (  0.001 ms/b)
  <sp|pp>  ...          525 b.         0 skpd (  0.0%)     0.001 s. (  0.001 ms/b)
  <sp|pd>  ...          700 b.         0 skpd (  0.0%)     0.001 s. (  0.002 ms/b)
  <sp|dd>  ...          350 b.         0 skpd (  0.0%)     0.001 s. (  0.004 ms/b)
  <sd|sd>  ...          406 b.         0 skpd (  0.0%)     0.001 s. (  0.001 ms/b)
  <sd|pp>  ...          420 b.         0 skpd (  0.0%)     0.001 s. (  0.002 ms/b)
  <sd|pd>  ...          560 b.         0 skpd (  0.0%)     0.002 s. (  0.004 ms/b)
  <sd|dd>  ...          280 b.         0 skpd (  0.0%)     0.002 s. (  0.009 ms/b)
  <pp|pp>  ...          120 b.         0 skpd (  0.0%)     0.000 s. (  0.003 ms/b)
  <pp|pd>  ...          300 b.         0 skpd (  0.0%)     0.002 s. (  0.006 ms/b)
  <pp|dd>  ...          150 b.         0 skpd (  0.0%)     0.002 s. (  0.012 ms/b)
  <pd|pd>  ...          210 b.         0 skpd (  0.0%)     0.003 s. (  0.013 ms/b)
  <pd|dd>  ...          200 b.         0 skpd (  0.0%)     0.005 s. (  0.026 ms/b)
  <dd|dd>  ...           55 b.         0 skpd (  0.0%)     0.004 s. (  0.070 ms/b)


                                      INTEGRAL STATISTICS

Integral type statistics:
 Number of integrals retained            ...     408156 
 One   Center Integrals retained         ...     408156 (100.0%)
 Two   Center Integrals retained         ...          0 (  0.0%)
 Three Center Integrals retained         ...          0 (  0.0%)
 Four  Center Integrals retained         ...          0 (  0.0%)

Storage statistics:
 Number of char integrals                ...          0 (  0.0%)
 Number of short int integrals           ...          0 (  0.0%)
 Number of double/float integrals        ...     408156 (100.0%)
 Amount of memory used                   ...          5 MB
 Amount of memory estimated              ...          4 MB ( 95.1%)

Prescreening statistics:
 Total number of shell quadruples        ...       9316 
 Number of skipped shell quadruples      ...          0 (  0.0%)
 # of negligible batches done            ...          0 (  0.0%)

Timings:
 Total evaluation time               ...     0.194 sec (   0.003 min)
 One electron matrix time            ...     0.017 sec (   0.000 min) =  8.8%
 Schwartz matrix evaluation time     ...     0.071 sec (   0.001 min) = 36.7%
 Statistics run                      ...     0.003 sec (   0.000 min) =  1.7%
 Repulsion integral time             ...     0.028 sec (   0.000 min) = 14.2%

-------------------------------------------------------------------------------
                                 ORCA SCF
-------------------------------------------------------------------------------

------------
SCF SETTINGS
------------
Hamiltonian:
 Ab initio Hamiltonian  Method          .... Hartree-Fock(GTOs)


General Settings:
 Integral files         IntName         .... 80_Hg_atom80
 Hartree-Fock type      HFTyp           .... ROHF
 Total Charge           Charge          ....    0
 Multiplicity           Mult            ....    1
 Number of Electrons    NEL             ....   20
 Basis Dimension        Dim             ....   42
 Nuclear Repulsion      ENuc            ....      0.0000000000 Eh

Convergence Acceleration:
 DIIS                   CNVDIIS         .... on
   Start iteration      DIISMaxIt       ....    12
   Startup error        DIISStart       ....  0.200000
   # of expansion vecs  DIISMaxEq       ....     5
   Bias factor          DIISBfac        ....   1.050
   Max. coefficient     DIISMaxC        ....  10.000
 Newton-Raphson         CNVNR           .... off
 SOSCF                  CNVSOSCF        .... off
 Level Shifting         CNVShift        .... on
   Level shift para.    LevelShift      ....    1.0000
   Turn off err/grad.   ShiftErr        ....    0.0010
 Zerner damping         CNVZerner       .... off
 Static damping         CNVDamp         .... on
   Fraction old density DampFac         ....    0.7000
   Max. Damping (<1)    DampMax         ....    0.9800
   Min. Damping (>=0)   DampMin         ....    0.0000
   Turn off err/grad.   DampErr         ....    0.1000
 Fernandez-Rico         CNVRico         .... off

SCF Procedure:
 Maximum # iterations   MaxIter         ....  1000
 SCF integral mode      SCFMode         .... Conventional
 Integral Threshold     Thresh          ....  1.000e-10 Eh
 Primitive CutOff       TCut            ....  1.000e-11 Eh
 Integral Buffer length BufferLength    .... 1048576
 Integral index format  IndFormat       ....     0
 Integral value format  ValFormat       ....     0
 Integral Storage       Thresh          ....  1.000e-10 Eh

Convergence Tolerance:
 Convergence Check Mode ConvCheckMode   .... Total+1el-Energy
 Convergence forced     ConvForced      .... 0
 Energy Change          TolE            ....  1.000e-06 Eh
 1-El. energy change                    ....  1.000e-03 Eh
 DIIS Error             TolErr          ....  1.000e-06


Diagonalization of the overlap matrix:
Smallest eigenvalue                        ... 6.394e-03
Time for diagonalization                   ...    0.000 sec
Threshold for overlap eigenvalues          ... 1.000e-08
Number of eigenvalues below threshold      ... 0
Time for construction of square roots      ...    0.002 sec
Total time needed                          ...    0.002 sec

--------------------
INITIAL GUESS: HCORE
--------------------
AVERAGE-CONFIGURATION (SAHF) CASE FOUND

-------------------
FINAL ROHF SETTINGS
-------------------
Number of operators             ... 2
  operator   0:   5 orbitals  10 electrons n(mue)= 2.000
  operator   1:   5 orbitals  10 electrons n(mue)= 2.000
Vector coupling coefficients a and b (Zerner convention):
   1.000    1.000           1.000    1.000 
   1.000    1.000           1.000    1.000 

                      -----------------
                      INTIAL GUESS DONE 
                      -----------------

 InCore treatment chosen:
   Memory dedicated               ...    1024 MB
   Memory needed                  ...      5 MB
   Number of tiny    integrals    ...       0
   Number of small   integrals    ...       0
   Number of regular integrals    ...  408156

--------------
SCF ITERATIONS
--------------
ITER       Energy         Delta-E        Max-DP      RMS-DP      [F,P]     Damp
  0   -138.3728677041   0.000000000000 3.34107544  0.10644213  1.8191910 0.7000
  1   -146.6246183682  -8.251750664066 2.40847133  0.07134394  0.6941985 0.7000
                            ****Activating DIIS****
  2   -144.5019445845   2.122673783634 1.66518573  0.04653781  0.1855277 0.7000
  3   -143.2927164029   1.209228181633 1.17750574  0.03339116  0.2819387 0.7000
  4   -142.1469886975   1.145727705404 0.83335528  0.02355069  0.3426862 0.7000
  5   -141.3770407881   0.769947909442 0.59095500  0.01665903  0.4727187 0.7000
  6   -140.8109645200   0.566076268083 0.42234406  0.01255301  0.5727271 0.7000
  7   -140.2638973560   0.547067163938 0.61307165  0.01708282  0.6638844 0.7000
  8   -141.7193129343  -1.455415578307 1.23305713  0.03343674  0.8244737 0.7000
  9   -144.3030652863  -2.583752352006 1.02407481  0.02868991  0.8330599 0.7000
 10   -151.1388826110  -6.835817324648 2.38517770  0.06711927  0.0672639 0.0000
 11   -150.9706043620   0.168278249044 0.00409530  0.00012485  0.4851169 0.7000
 12   -150.9534683994   0.017135962516 0.01727167  0.00069416  0.4919572 0.7000
 13   -151.0178778015  -0.064409402091 0.01251587  0.00050572  0.4490721 0.7000
 14   -151.0291166196  -0.011238818059 0.00727162  0.00028820  0.4484182 0.7000
 15   -151.0273639416   0.001752677961 0.24271740  0.00869091  0.4538797 0.7000
 16   -152.0547710661  -1.027407124429 0.34570706  0.00948558  0.1642782 0.7000
 17   -152.2477494662  -0.192978400098 0.95984715  0.02376594  0.0683345 0.0000
 18   -152.4648591755  -0.217109709307 0.03240276  0.00102319  0.1047257 0.7000
 19   -152.5123980867  -0.047538911191 0.12726730  0.00503708  0.0491758 0.0000
 20   -152.5138564830  -0.001458396352 0.09707927  0.00291659  0.0621034 0.0000
 21   -152.5408689061  -0.027012423143 0.03684003  0.00112616  0.0335182 0.0000
 22   -152.5466855980  -0.005816691885 0.03812972  0.00137873  0.0262639 0.0000
 23   -152.5512588622  -0.004573264199 0.03178807  0.00123110  0.0184476 0.0000
 24   -152.5533012578  -0.002042395538 0.05789466  0.00123743  0.0113317 0.0000
 25   -152.5541524561  -0.000851198335 0.04037979  0.00085369  0.0068202 0.0000
 26   -152.5544321026  -0.000279646519 0.03615823  0.00075649  0.0037839 0.0000
 27   -152.5545410574  -0.000108954800 0.02650697  0.00056621  0.0019447 0.0000
 28   -152.5545756656  -0.000034608150 0.00852792  0.00018444  0.0006206 0.0000
 29   -152.5545788406  -0.000003175030 0.00207571  0.00004732  0.0002838 0.0000
                 **** Energy Check signals convergence ****

               *****************************************************
               *                     SUCCESS                       *
               *           SCF CONVERGED AFTER  30 CYCLES          *
               *****************************************************


----------------
TOTAL SCF ENERGY
----------------

Total Energy       :         -152.55457920 Eh           -4151.22114 eV

Components:
Nuclear Repulsion  :            0.00000000 Eh               0.00000 eV
Electronic Energy  :         -152.55457920 Eh           -4151.22114 eV
One Electron Energy:         -270.13271205 Eh           -7350.68480 eV
Two Electron Energy:          117.57813284 Eh            3199.46365 eV

Virial components:
Potential Energy   :         -203.63563767 Eh           -5541.20741 eV
Kinetic Energy     :           51.08105847 Eh            1389.98627 eV
Virial Ratio       :            3.98651954


---------------
SCF CONVERGENCE
---------------

  Last Energy change         ...   -3.6298e-07  Tolerance :   1.0000e-06
  Last MAX-Density change    ...    6.8370e-04  Tolerance :   1.0000e-05
  Last RMS-Density change    ...    1.7668e-05  Tolerance :   1.0000e-06
  Last DIIS Error            ...    2.3587e-04  Tolerance :   1.0000e-06

             **** THE GBW FILE WAS UPDATED (80_Hg_atom80.gbw) ****
             **** DENSITY FILE WAS UPDATED (80_Hg_atom80.scfp) ****
             **** ENERGY FILE WAS UPDATED (80_Hg_atom80.en.tmp) ****
             **** THE GBW FILE WAS UPDATED (80_Hg_atom80.gbw) ****
             **** DENSITY FILE WAS UPDATED (80_Hg_atom80.scfp) ****
----------------
ORBITAL ENERGIES
----------------

  NO   OCC          E(Eh)            E(eV) 
   0   2.0000      -4.835479      -131.5801 
   1   2.0000      -3.031835       -82.5004 
   2   2.0000      -3.031835       -82.5004 
   3   2.0000      -3.031835       -82.5004 
   4   2.0000      -0.604273       -16.4431 
   5   2.0000      -0.604427       -16.4473 
   6   2.0000      -0.604277       -16.4432 
   7   2.0000      -0.604277       -16.4432 
   8   2.0000      -0.604276       -16.4432 
   9   2.0000      -0.535199       -14.5635 
  10   0.0000       0.048654         1.3240 
  11   0.0000       0.048654         1.3240 
  12   0.0000       0.048655         1.3240 
  13   0.0000       0.123744         3.3672 
  14   0.0000       0.249131         6.7792 
  15   0.0000       0.249132         6.7792 
  16   0.0000       0.249132         6.7792 
  17   0.0000       0.324977         8.8431 
  18   0.0000       0.324977         8.8431 
  19   0.0000       0.324977         8.8431 
  20   0.0000       0.324977         8.8431 
  21   0.0000       0.324978         8.8431 
  22   0.0000       0.676037        18.3959 
  23   0.0000       1.135673        30.9032 
  24   0.0000       1.135673        30.9032 
  25   0.0000       1.135674        30.9032 
  26   0.0000       1.135674        30.9033 
  27   0.0000       1.135674        30.9033 
  28   0.0000       1.338086        36.4112 
  29   0.0000       1.338087        36.4112 
  30   0.0000       1.338087        36.4112 
  31   0.0000       3.422752        93.1378 
  32   0.0000       3.450072        93.8812 
  33   0.0000       3.450072        93.8812 
  34   0.0000       3.450072        93.8812 
  35   0.0000       3.450073        93.8812 
  36   0.0000       3.450073        93.8813 
  37   0.0000      32.967147       897.0817 
  38   0.0000      32.967147       897.0817 
  39   0.0000      32.967147       897.0817 
  40   0.0000      36.686639       998.2942 
  41   0.0000     125.123836      3404.7927 
CleanUpVectors: The d-vectors have cracked symmetry at i=4
CleanUpVectors: The d-vectors have cracked symmetry at i=5
CleanUpVectors: The d-vectors have cracked symmetry at i=6
CleanUpVectors: The d-vectors have cracked symmetry at i=7
CleanUpVectors: The d-vectors have cracked symmetry at i=8
--------------------------
ATOM BASIS FOR ELEMENT Hg
--------------------------
 NewGTO Hg
 S 9
    1         48.013786990000        -0.005848340812
    2         21.239875095000         0.177339267976
    3         15.876100879000        -0.373731159054
    4          5.486593942900         0.843598036320
    5          1.552176689500        -0.946283374173
    6          0.747425411900        -0.563097534841
    7          0.202688384800         0.052939595953
    8          0.093376229200         0.131928404210
    9          0.041248705600         0.049747719478
 D 24
    1         48.013786990000         0.000000008540
    2         21.239875095000        -0.000000585406
    3         15.876100879000         0.000001650515
    4          5.486593942900        -0.000011697110
    5          1.552176689500         0.000063286313
    6          0.747425411900         0.000082164784
    7          0.202688384800        -0.000373002798
    8          0.093376229200        -0.001280403827
    9          0.041248705600        -0.001188214401
   10         11.888648987000         0.003066430338
   11          6.777366095400        -0.016896348651
   12          2.093494134000         0.055646778519
   13          1.081708717600         0.089533339327
   14         11.888648987000         0.003856262797
   15          6.777366095400        -0.021248407276
   16          2.093494134000         0.069979936965
   17          1.081708717600         0.112594791813
   18         11.888648987000        -0.004338255312
   19          6.777366095400         0.023904235939
   20          2.093494134000        -0.078726697134
   21          1.081708717600        -0.126667963111
   22         11.888648987000        -0.011568109212
   23          6.777366095400         0.063741479482
   24          2.093494134000        -0.209927485776
 S 9
    1         48.013786990000        -0.001673880270
    2         21.239875095000         0.050757079886
    3         15.876100879000        -0.106967297839
    4          5.486593942900         0.275029710993
    5          1.552176689500        -0.128373597905
    6          0.747425411900        -1.451847229861
    7          0.202688384800         4.967955915530
    8          0.093376229200        -5.575329581313
    9          0.041248705600         2.003121174367
 S 9
    1         48.013786990000         0.009532582667
    2         21.239875095000        -0.289056552315
    3         15.876100879000         0.609168186840
    4          5.486593942900        -1.546900715749
    5          1.552176689500         5.392310149118
    6          0.747425411900        -6.065408922877
    7          0.202688384800         4.153637470997
    8          0.093376229200        -2.979947150832
    9          0.041248705600         0.896955226282
 S 9
    1         48.013786990000         0.053956851051
    2         21.239875095000        -1.636133866760
    3         15.876100879000         3.448047425532
    4          5.486593942900        -3.802716241115
    5          1.552176689500         3.348494413702
    6          0.747425411900        -2.385999230250
    7          0.202688384800         1.161035292406
    8          0.093376229200        -0.816164787199
    9          0.041248705600         0.250112548302
 S 9
    1         48.013786990000         0.056603545861
    2         21.239875095000        -1.716389606842
    3         15.876100879000         3.617181262070
    4          5.486593942900        -1.631372501054
    5          1.552176689500         1.074564079706
    6          0.747425411900        -0.731366022475
    7          0.202688384800         0.351690854698
    8          0.093376229200        -0.247940737079
    9          0.041248705600         0.076219971116
 P 8
    1         17.500000000000        -0.086454400697
    2         15.252594855000         0.153268242141
    3          6.440471516900        -0.302739794594
    4          1.818015992000         0.543595329123
    5          0.900679818000         0.497500076625
    6          0.413045401200         0.138135420831
    7          0.118457026500         0.005987643438
    8          0.036087619300        -0.000403808300
 D 24
    1         11.888648987000        -0.009344735355
    2          6.777366095400         0.051490459332
    3          2.093494134000        -0.169579726687
    4          1.081708717600        -0.272846687926
    5         11.888648987000        -0.002227901954
    6          6.777366095400         0.012275970434
    7          2.093494134000        -0.040429930864
    8          1.081708717600        -0.065050067864
    9         11.888648987000         0.006865946420
   10          6.777366095400        -0.037832075655
   11          2.093494134000         0.124596927912
   12          1.081708717600         0.200471246007
   13         11.888648987000        -0.005842969320
   14          6.777366095400         0.032195365917
   15          2.093494134000        -0.106032873342
   16          1.081708717600        -0.170602458607
   17         11.888648987000         0.001854225084
   18          6.777366095400        -0.010216972196
   19          2.093494134000         0.033648784163
   20          1.081708717600         0.054139486430
   21          0.533291360600        -0.243290846468
   22          0.533291360600        -0.058003585067
   23          0.533291360600         0.178755401080
   24          0.533291360600        -0.152122119860
 P 8
    1         17.500000000000        -0.022306215322
    2         15.252594855000         0.039544943735
    3          6.440471516900        -0.078110298495
    4          1.818015992000         0.140253756449
    5          0.900679818000         0.169583393364
    6          0.413045401200         0.153109731526
    7          0.118457026500        -1.479241754168
    8          0.036087619300         1.015338885128
 P 8
    1         17.500000000000        -0.057090358281
    2         15.252594855000         0.101211029010
    3          6.440471516900        -0.199914905430
    4          1.818015992000         0.358964400301
    5          0.900679818000         1.300442984945
    6          0.413045401200        -2.431601143261
    7          0.118457026500         1.344494182717
    8          0.036087619300        -0.446349273564
 P 8
    1         17.500000000000        -0.573823847399
    2         15.252594855000         1.017287398678
    3          6.440471516900        -2.009375026530
    4          1.818015992000         3.608005615328
    5          0.900679818000        -4.253788339560
    6          0.413045401200         2.201220577179
    7          0.118457026500        -0.643201528693
    8          0.036087619300         0.203024439081
 D 7
    1         11.888648987000        -0.004592739642
    2          6.777366095400         0.025306470946
    3          2.093494134000        -0.083344846446
    4          1.081708717600        -0.134098372209
    5          0.533291360600         0.115568726988
    6          0.249841018300        -0.637722999454
    7          0.108797700600         1.354847957062
 D 7
    1         11.888648987000        -0.005873590452
    2          6.777366095400         0.032364091526
    3          2.093494134000        -0.106588557698
    4          1.081708717600        -0.171496531495
    5          0.533291360600        -1.027658409754
    6          0.249841018300         2.286321459207
    7          0.108797700600        -1.085037040399
 D 7
    1         11.888648987000        -0.036892060205
    2          6.777366095400         0.203279071418
    3          2.093494134000        -0.669483430897
    4          1.081708717600        -1.077170840581
    5          0.533291360600         2.769959353202
    6          0.249841018300        -1.946570437389
    7          0.108797700600         0.621474289531
 end
  // -----------------------------------------------
  // The basis set
  // -----------------------------------------------
  BAS[ATNO] = new BFNGauss[NSH];
  // Basis function   1 L = s
  InitBFNGauss(BAS[ATNO][  0]);
  BAS[ATNO][  0].l  = 0;
  BAS[ATNO][  0].ng = 9;
  BAS[ATNO][  0].a[  0] =        48.013786990000;     BAS[ATNO][  0].d[  0] =         0.005848340812;
  BAS[ATNO][  0].a[  1] =        21.239875095000;     BAS[ATNO][  0].d[  1] =        -0.177339267976;
  BAS[ATNO][  0].a[  2] =        15.876100879000;     BAS[ATNO][  0].d[  2] =         0.373731159054;
  BAS[ATNO][  0].a[  3] =         5.486593942900;     BAS[ATNO][  0].d[  3] =        -0.843598036320;
  BAS[ATNO][  0].a[  4] =         1.552176689500;     BAS[ATNO][  0].d[  4] =         0.946283374173;
  BAS[ATNO][  0].a[  5] =         0.747425411900;     BAS[ATNO][  0].d[  5] =         0.563097534841;
  BAS[ATNO][  0].a[  6] =         0.202688384800;     BAS[ATNO][  0].d[  6] =        -0.052939595953;
  BAS[ATNO][  0].a[  7] =         0.093376229200;     BAS[ATNO][  0].d[  7] =        -0.131928404210;
  BAS[ATNO][  0].a[  8] =         0.041248705600;     BAS[ATNO][  0].d[  8] =        -0.049747719478;

  // Basis function   2 L = d
  InitBFNGauss(BAS[ATNO][  1]);
  BAS[ATNO][  1].l  = 2;
  BAS[ATNO][  1].ng = 24;
  BAS[ATNO][  1].a[  0] =        48.013786990000;     BAS[ATNO][  1].d[  0] =        -0.000000008540;
  BAS[ATNO][  1].a[  1] =        21.239875095000;     BAS[ATNO][  1].d[  1] =         0.000000585406;
  BAS[ATNO][  1].a[  2] =        15.876100879000;     BAS[ATNO][  1].d[  2] =        -0.000001650515;
  BAS[ATNO][  1].a[  3] =         5.486593942900;     BAS[ATNO][  1].d[  3] =         0.000011697110;
  BAS[ATNO][  1].a[  4] =         1.552176689500;     BAS[ATNO][  1].d[  4] =        -0.000063286313;
  BAS[ATNO][  1].a[  5] =         0.747425411900;     BAS[ATNO][  1].d[  5] =        -0.000082164784;
  BAS[ATNO][  1].a[  6] =         0.202688384800;     BAS[ATNO][  1].d[  6] =         0.000373002798;
  BAS[ATNO][  1].a[  7] =         0.093376229200;     BAS[ATNO][  1].d[  7] =         0.001280403827;
  BAS[ATNO][  1].a[  8] =         0.041248705600;     BAS[ATNO][  1].d[  8] =         0.001188214401;
  BAS[ATNO][  1].a[  9] =        11.888648987000;     BAS[ATNO][  1].d[  9] =        -0.003066430338;
  BAS[ATNO][  1].a[ 10] =         6.777366095400;     BAS[ATNO][  1].d[ 10] =         0.016896348651;
  BAS[ATNO][  1].a[ 11] =         2.093494134000;     BAS[ATNO][  1].d[ 11] =        -0.055646778519;
  BAS[ATNO][  1].a[ 12] =         1.081708717600;     BAS[ATNO][  1].d[ 12] =        -0.089533339327;
  BAS[ATNO][  1].a[ 13] =        11.888648987000;     BAS[ATNO][  1].d[ 13] =        -0.003856262797;
  BAS[ATNO][  1].a[ 14] =         6.777366095400;     BAS[ATNO][  1].d[ 14] =         0.021248407276;
  BAS[ATNO][  1].a[ 15] =         2.093494134000;     BAS[ATNO][  1].d[ 15] =        -0.069979936965;
  BAS[ATNO][  1].a[ 16] =         1.081708717600;     BAS[ATNO][  1].d[ 16] =        -0.112594791813;
  BAS[ATNO][  1].a[ 17] =        11.888648987000;     BAS[ATNO][  1].d[ 17] =         0.004338255312;
  BAS[ATNO][  1].a[ 18] =         6.777366095400;     BAS[ATNO][  1].d[ 18] =        -0.023904235939;
  BAS[ATNO][  1].a[ 19] =         2.093494134000;     BAS[ATNO][  1].d[ 19] =         0.078726697134;
  BAS[ATNO][  1].a[ 20] =         1.081708717600;     BAS[ATNO][  1].d[ 20] =         0.126667963111;
  BAS[ATNO][  1].a[ 21] =        11.888648987000;     BAS[ATNO][  1].d[ 21] =         0.011568109212;
  BAS[ATNO][  1].a[ 22] =         6.777366095400;     BAS[ATNO][  1].d[ 22] =        -0.063741479482;
  BAS[ATNO][  1].a[ 23] =         2.093494134000;     BAS[ATNO][  1].d[ 23] =         0.209927485776;

  // Basis function   3 L = s
  InitBFNGauss(BAS[ATNO][  2]);
  BAS[ATNO][  2].l  = 0;
  BAS[ATNO][  2].ng = 9;
  BAS[ATNO][  2].a[  0] =        48.013786990000;     BAS[ATNO][  2].d[  0] =         0.001673880270;
  BAS[ATNO][  2].a[  1] =        21.239875095000;     BAS[ATNO][  2].d[  1] =        -0.050757079886;
  BAS[ATNO][  2].a[  2] =        15.876100879000;     BAS[ATNO][  2].d[  2] =         0.106967297839;
  BAS[ATNO][  2].a[  3] =         5.486593942900;     BAS[ATNO][  2].d[  3] =        -0.275029710993;
  BAS[ATNO][  2].a[  4] =         1.552176689500;     BAS[ATNO][  2].d[  4] =         0.128373597905;
  BAS[ATNO][  2].a[  5] =         0.747425411900;     BAS[ATNO][  2].d[  5] =         1.451847229861;
  BAS[ATNO][  2].a[  6] =         0.202688384800;     BAS[ATNO][  2].d[  6] =        -4.967955915530;
  BAS[ATNO][  2].a[  7] =         0.093376229200;     BAS[ATNO][  2].d[  7] =         5.575329581313;
  BAS[ATNO][  2].a[  8] =         0.041248705600;     BAS[ATNO][  2].d[  8] =        -2.003121174367;

  // Basis function   4 L = s
  InitBFNGauss(BAS[ATNO][  3]);
  BAS[ATNO][  3].l  = 0;
  BAS[ATNO][  3].ng = 9;
  BAS[ATNO][  3].a[  0] =        48.013786990000;     BAS[ATNO][  3].d[  0] =        -0.009532582667;
  BAS[ATNO][  3].a[  1] =        21.239875095000;     BAS[ATNO][  3].d[  1] =         0.289056552315;
  BAS[ATNO][  3].a[  2] =        15.876100879000;     BAS[ATNO][  3].d[  2] =        -0.609168186840;
  BAS[ATNO][  3].a[  3] =         5.486593942900;     BAS[ATNO][  3].d[  3] =         1.546900715749;
  BAS[ATNO][  3].a[  4] =         1.552176689500;     BAS[ATNO][  3].d[  4] =        -5.392310149118;
  BAS[ATNO][  3].a[  5] =         0.747425411900;     BAS[ATNO][  3].d[  5] =         6.065408922877;
  BAS[ATNO][  3].a[  6] =         0.202688384800;     BAS[ATNO][  3].d[  6] =        -4.153637470997;
  BAS[ATNO][  3].a[  7] =         0.093376229200;     BAS[ATNO][  3].d[  7] =         2.979947150832;
  BAS[ATNO][  3].a[  8] =         0.041248705600;     BAS[ATNO][  3].d[  8] =        -0.896955226282;

  // Basis function   5 L = s
  InitBFNGauss(BAS[ATNO][  4]);
  BAS[ATNO][  4].l  = 0;
  BAS[ATNO][  4].ng = 9;
  BAS[ATNO][  4].a[  0] =        48.013786990000;     BAS[ATNO][  4].d[  0] =        -0.053956851051;
  BAS[ATNO][  4].a[  1] =        21.239875095000;     BAS[ATNO][  4].d[  1] =         1.636133866760;
  BAS[ATNO][  4].a[  2] =        15.876100879000;     BAS[ATNO][  4].d[  2] =        -3.448047425532;
  BAS[ATNO][  4].a[  3] =         5.486593942900;     BAS[ATNO][  4].d[  3] =         3.802716241115;
  BAS[ATNO][  4].a[  4] =         1.552176689500;     BAS[ATNO][  4].d[  4] =        -3.348494413702;
  BAS[ATNO][  4].a[  5] =         0.747425411900;     BAS[ATNO][  4].d[  5] =         2.385999230250;
  BAS[ATNO][  4].a[  6] =         0.202688384800;     BAS[ATNO][  4].d[  6] =        -1.161035292406;
  BAS[ATNO][  4].a[  7] =         0.093376229200;     BAS[ATNO][  4].d[  7] =         0.816164787199;
  BAS[ATNO][  4].a[  8] =         0.041248705600;     BAS[ATNO][  4].d[  8] =        -0.250112548302;

  // Basis function   6 L = s
  InitBFNGauss(BAS[ATNO][  5]);
  BAS[ATNO][  5].l  = 0;
  BAS[ATNO][  5].ng = 9;
  BAS[ATNO][  5].a[  0] =        48.013786990000;     BAS[ATNO][  5].d[  0] =         0.056603545861;
  BAS[ATNO][  5].a[  1] =        21.239875095000;     BAS[ATNO][  5].d[  1] =        -1.716389606842;
  BAS[ATNO][  5].a[  2] =        15.876100879000;     BAS[ATNO][  5].d[  2] =         3.617181262070;
  BAS[ATNO][  5].a[  3] =         5.486593942900;     BAS[ATNO][  5].d[  3] =        -1.631372501054;
  BAS[ATNO][  5].a[  4] =         1.552176689500;     BAS[ATNO][  5].d[  4] =         1.074564079706;
  BAS[ATNO][  5].a[  5] =         0.747425411900;     BAS[ATNO][  5].d[  5] =        -0.731366022475;
  BAS[ATNO][  5].a[  6] =         0.202688384800;     BAS[ATNO][  5].d[  6] =         0.351690854698;
  BAS[ATNO][  5].a[  7] =         0.093376229200;     BAS[ATNO][  5].d[  7] =        -0.247940737079;
  BAS[ATNO][  5].a[  8] =         0.041248705600;     BAS[ATNO][  5].d[  8] =         0.076219971116;

  // Basis function   7 L = p
  InitBFNGauss(BAS[ATNO][  6]);
  BAS[ATNO][  6].l  = 1;
  BAS[ATNO][  6].ng = 8;
  BAS[ATNO][  6].a[  0] =        17.500000000000;     BAS[ATNO][  6].d[  0] =        -0.086454400697;
  BAS[ATNO][  6].a[  1] =        15.252594855000;     BAS[ATNO][  6].d[  1] =         0.153268242141;
  BAS[ATNO][  6].a[  2] =         6.440471516900;     BAS[ATNO][  6].d[  2] =        -0.302739794594;
  BAS[ATNO][  6].a[  3] =         1.818015992000;     BAS[ATNO][  6].d[  3] =         0.543595329123;
  BAS[ATNO][  6].a[  4] =         0.900679818000;     BAS[ATNO][  6].d[  4] =         0.497500076625;
  BAS[ATNO][  6].a[  5] =         0.413045401200;     BAS[ATNO][  6].d[  5] =         0.138135420831;
  BAS[ATNO][  6].a[  6] =         0.118457026500;     BAS[ATNO][  6].d[  6] =         0.005987643438;
  BAS[ATNO][  6].a[  7] =         0.036087619300;     BAS[ATNO][  6].d[  7] =        -0.000403808300;

  // Basis function   8 L = d
  InitBFNGauss(BAS[ATNO][  7]);
  BAS[ATNO][  7].l  = 2;
  BAS[ATNO][  7].ng = 24;
  BAS[ATNO][  7].a[  0] =        11.888648987000;     BAS[ATNO][  7].d[  0] =         0.009344735355;
  BAS[ATNO][  7].a[  1] =         6.777366095400;     BAS[ATNO][  7].d[  1] =        -0.051490459332;
  BAS[ATNO][  7].a[  2] =         2.093494134000;     BAS[ATNO][  7].d[  2] =         0.169579726687;
  BAS[ATNO][  7].a[  3] =         1.081708717600;     BAS[ATNO][  7].d[  3] =         0.272846687926;
  BAS[ATNO][  7].a[  4] =        11.888648987000;     BAS[ATNO][  7].d[  4] =         0.002227901954;
  BAS[ATNO][  7].a[  5] =         6.777366095400;     BAS[ATNO][  7].d[  5] =        -0.012275970434;
  BAS[ATNO][  7].a[  6] =         2.093494134000;     BAS[ATNO][  7].d[  6] =         0.040429930864;
  BAS[ATNO][  7].a[  7] =         1.081708717600;     BAS[ATNO][  7].d[  7] =         0.065050067864;
  BAS[ATNO][  7].a[  8] =        11.888648987000;     BAS[ATNO][  7].d[  8] =        -0.006865946420;
  BAS[ATNO][  7].a[  9] =         6.777366095400;     BAS[ATNO][  7].d[  9] =         0.037832075655;
  BAS[ATNO][  7].a[ 10] =         2.093494134000;     BAS[ATNO][  7].d[ 10] =        -0.124596927912;
  BAS[ATNO][  7].a[ 11] =         1.081708717600;     BAS[ATNO][  7].d[ 11] =        -0.200471246007;
  BAS[ATNO][  7].a[ 12] =        11.888648987000;     BAS[ATNO][  7].d[ 12] =         0.005842969320;
  BAS[ATNO][  7].a[ 13] =         6.777366095400;     BAS[ATNO][  7].d[ 13] =        -0.032195365917;
  BAS[ATNO][  7].a[ 14] =         2.093494134000;     BAS[ATNO][  7].d[ 14] =         0.106032873342;
  BAS[ATNO][  7].a[ 15] =         1.081708717600;     BAS[ATNO][  7].d[ 15] =         0.170602458607;
  BAS[ATNO][  7].a[ 16] =        11.888648987000;     BAS[ATNO][  7].d[ 16] =        -0.001854225084;
  BAS[ATNO][  7].a[ 17] =         6.777366095400;     BAS[ATNO][  7].d[ 17] =         0.010216972196;
  BAS[ATNO][  7].a[ 18] =         2.093494134000;     BAS[ATNO][  7].d[ 18] =        -0.033648784163;
  BAS[ATNO][  7].a[ 19] =         1.081708717600;     BAS[ATNO][  7].d[ 19] =        -0.054139486430;
  BAS[ATNO][  7].a[ 20] =         0.533291360600;     BAS[ATNO][  7].d[ 20] =         0.243290846468;
  BAS[ATNO][  7].a[ 21] =         0.533291360600;     BAS[ATNO][  7].d[ 21] =         0.058003585067;
  BAS[ATNO][  7].a[ 22] =         0.533291360600;     BAS[ATNO][  7].d[ 22] =        -0.178755401080;
  BAS[ATNO][  7].a[ 23] =         0.533291360600;     BAS[ATNO][  7].d[ 23] =         0.152122119860;

  // Basis function   9 L = p
  InitBFNGauss(BAS[ATNO][  8]);
  BAS[ATNO][  8].l  = 1;
  BAS[ATNO][  8].ng = 8;
  BAS[ATNO][  8].a[  0] =        17.500000000000;     BAS[ATNO][  8].d[  0] =         0.022306215322;
  BAS[ATNO][  8].a[  1] =        15.252594855000;     BAS[ATNO][  8].d[  1] =        -0.039544943735;
  BAS[ATNO][  8].a[  2] =         6.440471516900;     BAS[ATNO][  8].d[  2] =         0.078110298495;
  BAS[ATNO][  8].a[  3] =         1.818015992000;     BAS[ATNO][  8].d[  3] =        -0.140253756449;
  BAS[ATNO][  8].a[  4] =         0.900679818000;     BAS[ATNO][  8].d[  4] =        -0.169583393364;
  BAS[ATNO][  8].a[  5] =         0.413045401200;     BAS[ATNO][  8].d[  5] =        -0.153109731526;
  BAS[ATNO][  8].a[  6] =         0.118457026500;     BAS[ATNO][  8].d[  6] =         1.479241754168;
  BAS[ATNO][  8].a[  7] =         0.036087619300;     BAS[ATNO][  8].d[  7] =        -1.015338885128;

  // Basis function  10 L = p
  InitBFNGauss(BAS[ATNO][  9]);
  BAS[ATNO][  9].l  = 1;
  BAS[ATNO][  9].ng = 8;
  BAS[ATNO][  9].a[  0] =        17.500000000000;     BAS[ATNO][  9].d[  0] =         0.057090358281;
  BAS[ATNO][  9].a[  1] =        15.252594855000;     BAS[ATNO][  9].d[  1] =        -0.101211029010;
  BAS[ATNO][  9].a[  2] =         6.440471516900;     BAS[ATNO][  9].d[  2] =         0.199914905430;
  BAS[ATNO][  9].a[  3] =         1.818015992000;     BAS[ATNO][  9].d[  3] =        -0.358964400301;
  BAS[ATNO][  9].a[  4] =         0.900679818000;     BAS[ATNO][  9].d[  4] =        -1.300442984945;
  BAS[ATNO][  9].a[  5] =         0.413045401200;     BAS[ATNO][  9].d[  5] =         2.431601143261;
  BAS[ATNO][  9].a[  6] =         0.118457026500;     BAS[ATNO][  9].d[  6] =        -1.344494182717;
  BAS[ATNO][  9].a[  7] =         0.036087619300;     BAS[ATNO][  9].d[  7] =         0.446349273564;

  // Basis function  11 L = p
  InitBFNGauss(BAS[ATNO][ 10]);
  BAS[ATNO][ 10].l  = 1;
  BAS[ATNO][ 10].ng = 8;
  BAS[ATNO][ 10].a[  0] =        17.500000000000;     BAS[ATNO][ 10].d[  0] =         0.573823847399;
  BAS[ATNO][ 10].a[  1] =        15.252594855000;     BAS[ATNO][ 10].d[  1] =        -1.017287398678;
  BAS[ATNO][ 10].a[  2] =         6.440471516900;     BAS[ATNO][ 10].d[  2] =         2.009375026530;
  BAS[ATNO][ 10].a[  3] =         1.818015992000;     BAS[ATNO][ 10].d[  3] =        -3.608005615328;
  BAS[ATNO][ 10].a[  4] =         0.900679818000;     BAS[ATNO][ 10].d[  4] =         4.253788339560;
  BAS[ATNO][ 10].a[  5] =         0.413045401200;     BAS[ATNO][ 10].d[  5] =        -2.201220577179;
  BAS[ATNO][ 10].a[  6] =         0.118457026500;     BAS[ATNO][ 10].d[  6] =         0.643201528693;
  BAS[ATNO][ 10].a[  7] =         0.036087619300;     BAS[ATNO][ 10].d[  7] =        -0.203024439081;

  // Basis function  12 L = d
  InitBFNGauss(BAS[ATNO][ 11]);
  BAS[ATNO][ 11].l  = 2;
  BAS[ATNO][ 11].ng = 7;
  BAS[ATNO][ 11].a[  0] =        11.888648987000;     BAS[ATNO][ 11].d[  0] =        -0.004592739642;
  BAS[ATNO][ 11].a[  1] =         6.777366095400;     BAS[ATNO][ 11].d[  1] =         0.025306470946;
  BAS[ATNO][ 11].a[  2] =         2.093494134000;     BAS[ATNO][ 11].d[  2] =        -0.083344846446;
  BAS[ATNO][ 11].a[  3] =         1.081708717600;     BAS[ATNO][ 11].d[  3] =        -0.134098372209;
  BAS[ATNO][ 11].a[  4] =         0.533291360600;     BAS[ATNO][ 11].d[  4] =         0.115568726988;
  BAS[ATNO][ 11].a[  5] =         0.249841018300;     BAS[ATNO][ 11].d[  5] =        -0.637722999454;
  BAS[ATNO][ 11].a[  6] =         0.108797700600;     BAS[ATNO][ 11].d[  6] =         1.354847957062;

  // Basis function  13 L = d
  InitBFNGauss(BAS[ATNO][ 12]);
  BAS[ATNO][ 12].l  = 2;
  BAS[ATNO][ 12].ng = 7;
  BAS[ATNO][ 12].a[  0] =        11.888648987000;     BAS[ATNO][ 12].d[  0] =        -0.005873590452;
  BAS[ATNO][ 12].a[  1] =         6.777366095400;     BAS[ATNO][ 12].d[  1] =         0.032364091526;
  BAS[ATNO][ 12].a[  2] =         2.093494134000;     BAS[ATNO][ 12].d[  2] =        -0.106588557698;
  BAS[ATNO][ 12].a[  3] =         1.081708717600;     BAS[ATNO][ 12].d[  3] =        -0.171496531495;
  BAS[ATNO][ 12].a[  4] =         0.533291360600;     BAS[ATNO][ 12].d[  4] =        -1.027658409754;
  BAS[ATNO][ 12].a[  5] =         0.249841018300;     BAS[ATNO][ 12].d[  5] =         2.286321459207;
  BAS[ATNO][ 12].a[  6] =         0.108797700600;     BAS[ATNO][ 12].d[  6] =        -1.085037040399;

  // Basis function  14 L = d
  InitBFNGauss(BAS[ATNO][ 13]);
  BAS[ATNO][ 13].l  = 2;
  BAS[ATNO][ 13].ng = 7;
  BAS[ATNO][ 13].a[  0] =        11.888648987000;     BAS[ATNO][ 13].d[  0] =        -0.036892060205;
  BAS[ATNO][ 13].a[  1] =         6.777366095400;     BAS[ATNO][ 13].d[  1] =         0.203279071418;
  BAS[ATNO][ 13].a[  2] =         2.093494134000;     BAS[ATNO][ 13].d[  2] =        -0.669483430897;
  BAS[ATNO][ 13].a[  3] =         1.081708717600;     BAS[ATNO][ 13].d[  3] =        -1.077170840581;
  BAS[ATNO][ 13].a[  4] =         0.533291360600;     BAS[ATNO][ 13].d[  4] =         2.769959353202;
  BAS[ATNO][ 13].a[  5] =         0.249841018300;     BAS[ATNO][ 13].d[  5] =        -1.946570437389;
  BAS[ATNO][ 13].a[  6] =         0.108797700600;     BAS[ATNO][ 13].d[  6] =         0.621474289531;

-------------------------------------------
RADIAL EXPECTATION VALUES <R**-3> TO <R**3>
-------------------------------------------
   0 :     0.000000     1.542327     1.184943     0.957827     1.163950     2.210448
   1 :     0.716095     0.698183     0.779186     1.486171     2.575004    26.116398
   2 :     0.714885     0.697342     0.778573     1.488353     2.585731    26.127954
   3 :     0.716099     0.698187     0.779188     1.486162     2.574964    26.115684
   4 :     0.000000     0.190802     0.406282     2.819264     9.145450    33.979996
   5 :     0.000000     0.067268     0.204855     5.896864    37.888492   256.789932
   6 :     0.000000     0.230638     0.382585     3.712518    17.913876   104.988729
   7 :     0.000000     0.939660     0.823352     1.814184     5.190425    22.843844
   8 :     0.000000     6.714841     2.249364     0.584008     0.639285     1.878755
   9 :     0.000000    64.290945     6.390965     0.218256     0.093463     0.181624
  10 :     1.446012     1.161480     1.027382     1.071899     1.267158     1.654884
  11 :     1.446012     1.161480     1.027382     1.071899     1.267158     1.654884
  12 :     1.446012     1.161480     1.027382     1.071899     1.267158     1.654884
  13 :     0.716099     0.698186     0.779188     1.486163     2.574966    26.115739
  14 :     0.716100     0.698187     0.779189     1.486161     2.574957    26.115526
  15 :     0.032386     0.064565     0.220584     5.333295    31.978892   210.586990
  16 :     0.032386     0.064565     0.220584     5.333297    31.978912   210.587162
  17 :     0.032386     0.064565     0.220584     5.333293    31.978862   210.586739
  18 :     0.090548     0.132093     0.303556     4.467952    25.703843   176.083763
  19 :     0.090548     0.132093     0.303556     4.467950    25.703822   176.083588
  20 :     0.090548     0.132093     0.303556     4.467955    25.703873   176.084018
  21 :     0.495935     0.443509     0.556040     2.544280     9.097957    44.676425
  22 :     0.495935     0.443509     0.556040     2.544280     9.097958    44.676429
  23 :     0.495935     0.443509     0.556040     2.544280     9.097956    44.676422
  24 :    16.525210     4.515189     1.692091     1.152799     2.626441    10.339532
  25 :    16.525210     4.515189     1.692091     1.152799     2.626441    10.339532
  26 :    16.525210     4.515189     1.692091     1.152799     2.626441    10.339532
  27 :     0.056650     0.091741     0.259980     4.339981    19.991062   480.652983
  28 :     0.056652     0.091742     0.259981     4.339977    19.991041   480.652553
  29 :     0.056651     0.091742     0.259980     4.339978    19.991048   480.652700
  30 :     0.056651     0.091741     0.259980     4.339980    19.991055   480.652838
  31 :     0.056652     0.091742     0.259981     4.339976    19.991036   480.652443
  32 :     0.215013     0.252868     0.425297     3.018319    10.969735   231.347787
  33 :     0.215014     0.252869     0.425297     3.018318    10.969731   231.347690
  34 :     0.215014     0.252869     0.425297     3.018318    10.969733   231.347728
  35 :     0.215013     0.252869     0.425297     3.018318    10.969734   231.347766
  36 :     0.215015     0.252870     0.425298     3.018317    10.969729   231.347683
  37 :     0.781334     0.681293     0.721027     1.907613     4.986650    85.541192
  38 :     0.781335     0.681293     0.721027     1.907613     4.986650    85.541179
  39 :     0.781335     0.681293     0.721027     1.907613     4.986650    85.541182
  40 :     0.781334     0.681293     0.721027     1.907613     4.986650    85.541189
  41 :     0.781334     0.681293     0.721027     1.907613     4.986651    85.541194
Making the total density                ... o.k.
o.k.
Initializing the integrals              ... done
Making exponents                        ... done
Making rho(0)                           ... done (         0.000691835)
Integral calculation                    ... Two index integrals                     ... done
Solving the equation system             ... done
atomic density will be written to file 80_Hg_atom80.adf

-------
TIMINGS
-------

Total SCF time: 0 days 0 hours 0 min 1 sec 

Total time                  ....       1.017 sec
Sum of individual times     ....       0.626 sec  ( 61.6%)

Fock matrix formation       ....       0.513 sec  ( 50.5%)
Diagonalization             ....       0.050 sec  (  4.9%)
Density matrix formation    ....       0.001 sec  (  0.1%)
Population analysis         ....       0.000 sec  (  0.0%)
Initial guess               ....       0.000 sec  (  0.0%)
Orbital Transformation      ....       0.000 sec  (  0.0%)
Orbital Orthonormalization  ....       0.000 sec  (  0.0%)
DIIS solution               ....       0.062 sec  (  6.1%)

-------------------------   --------------------
FINAL SINGLE POINT ENERGY      -152.554579203585
-------------------------   --------------------


                            ***************************************
                            *     ORCA property calculations      *
                            ***************************************

                                    ---------------------
                                    Active property flags
                                    ---------------------
   (+) Dipole Moment


------------------------------------------------------------------------------
                       ORCA ELECTRIC PROPERTIES CALCULATION
------------------------------------------------------------------------------

Dipole Moment Calculation                       ... on
Quadrupole Moment Calculation                   ... off
Polarizability Calculation                      ... off
GBWName                                         ... 80_Hg_atom80.gbw
Electron density file                           ... 80_Hg_atom80.scfp
The origin for moment calculation is the CENTER OF MASS  = ( 0.000000,  0.000000  0.000000)

-------------
DIPOLE MOMENT
-------------
                                X             Y             Z
Electronic contribution:     -0.00000      -0.00000      -0.00000
Nuclear contribution   :      0.00000       0.00000       0.00000
                        -----------------------------------------
Total Dipole Moment    :     -0.00000      -0.00000      -0.00000
                        -----------------------------------------
Magnitude (a.u.)       :      0.00000
Magnitude (Debye)      :      0.00000



--------------------
Rotational spectrum 
--------------------
 
Rotational constants in cm-1:     0.000000     0.000000     0.000000 
Rotational constants in MHz :     0.000000     0.000000     0.000000 

 Dipole components along the rotational axes: 
x,y,z [a.u.] :    -0.000000    -0.000000    -0.000000 
x,y,z [Debye]:    -0.000000    -0.000000    -0.000000 

 

Timings for individual modules:

Sum of individual times         ...        1.310 sec (=   0.022 min)
GTO integral calculation        ...        0.264 sec (=   0.004 min)  20.2 %
SCF iterations                  ...        1.046 sec (=   0.017 min)  79.8 %
                             ****ORCA TERMINATED NORMALLY****
TOTAL RUN TIME: 0 days 0 hours 0 minutes 1 seconds 526 msec
