
                                 *****************
                                 * O   R   C   A *
                                 *****************

           --- An Ab Initio, DFT and Semiempirical electronic structure package ---

                  #######################################################
                  #                        -***-                        #
                  #          Department of theory and spectroscopy      #
                  #               Directorship: Frank Neese             #
                  #        Max Planck Institute fuer Kohlenforschung    #
                  #                Kaiser Wilhelm Platz 1               #
                  #                 D-45470 Muelheim/Ruhr               #
                  #                      Germany                        #
                  #                                                     #
                  #                  All rights reserved                #
                  #                        -***-                        #
                  #######################################################


                         Program Version 4.2.0 -  RELEASE  -


 With contributions from (in alphabetic order):
   Daniel Aravena         : Magnetic Suceptibility
   Michael Atanasov       : Ab Initio Ligand Field Theory (pilot matlab implementation)
   Alexander A. Auer      : GIAO ZORA, VPT2
   Ute Becker             : Parallelization
   Giovanni Bistoni       : ED, misc. LED, open-shell LED, HFLED
   Martin Brehm           : Molecular dynamics
   Dmytro Bykov           : SCF Hessian
   Vijay G. Chilkuri      : MRCI spin determinant printing, contributions to CSF-ICE
   Dipayan Datta          : RHF DLPNO-CCSD density
   Achintya Kumar Dutta   : EOM-CC, STEOM-CC
   Dmitry Ganyushin       : Spin-Orbit,Spin-Spin,Magnetic field MRCI
   Miquel Garcia          : C-PCM Hessian, Gaussian charge scheme
   Yang Guo               : DLPNO-NEVPT2, CIM, IAO-localization
   Andreas Hansen         : Spin unrestricted coupled pair/coupled cluster methods
   Benjamin Helmich-Paris : CASSCF linear response (MC-RPA)
   Lee Huntington         : MR-EOM, pCC
   Robert Izsak           : Overlap fitted RIJCOSX, COSX-SCS-MP3, EOM
   Christian Kollmar      : KDIIS, OOCD, Brueckner-CCSD(T), CCSD density
   Simone Kossmann        : Meta GGA functionals, TD-DFT gradient, OOMP2, MP2 Hessian
   Martin Krupicka        : AUTO-CI
   Lucas Lang             : DCDCAS
   Dagmar Lenk            : GEPOL surface, SMD
   Dimitrios Liakos       : Extrapolation schemes; Compound Job, initial MDCI parallelization
   Dimitrios Manganas     : Further ROCIS development; embedding schemes
   Dimitrios Pantazis     : SARC Basis sets
   Taras Petrenko         : DFT Hessian,TD-DFT gradient, ASA, ECA, R-Raman, ABS, FL, XAS/XES, NRVS
   Peter Pinski           : DLPNO-MP2, DLPNO-MP2 Gradient
   Christoph Reimann      : Effective Core Potentials
   Marius Retegan         : Local ZFS, SOC
   Christoph Riplinger    : Optimizer, TS searches, QM/MM, DLPNO-CCSD(T), (RO)-DLPNO pert. Triples
   Tobias Risthaus        : Range-separated hybrids, TD-DFT gradient, RPA, STAB
   Michael Roemelt        : Original ROCIS implementation
   Masaaki Saitow         : Open-shell DLPNO-CCSD energy and density
   Barbara Sandhoefer     : DKH picture change effects
   Avijit Sen             : IP-ROCIS
   Kantharuban Sivalingam : CASSCF convergence, NEVPT2, FIC-MRCI
   Bernardo de Souza      : ESD, SOC TD-DFT
   Georgi Stoychev        : AutoAux, RI-MP2 NMR
   Willem Van den Heuvel  : Paramagnetic NMR
   Boris Wezisla          : Elementary symmetry handling
   Frank Wennmohs         : Technical directorship


 We gratefully acknowledge several colleagues who have allowed us to
 interface, adapt or use parts of their codes:
   Stefan Grimme, W. Hujo, H. Kruse,             : VdW corrections, initial TS optimization,
                  C. Bannwarth                     DFT functionals, gCP, sTDA/sTD-DF
   Ed Valeev, F. Pavosevic, A. Kumar             : LibInt (2-el integral package), F12 methods
   Garnet Chan, S. Sharma, J. Yang, R. Olivares  : DMRG
   Ulf Ekstrom                                   : XCFun DFT Library
   Mihaly Kallay                                 : mrcc  (arbitrary order and MRCC methods)
   Andreas Klamt, Michael Diedenhofen            : otool_cosmo (COSMO solvation model)
   Jiri Pittner, Ondrej Demel                    : Mk-CCSD
   Frank Weinhold                                : gennbo (NPA and NBO analysis)
   Christopher J. Cramer and Donald G. Truhlar   : smd solvation model
   Lars Goerigk                                  : TD-DFT with DH, B97 family of functionals
   V. Asgeirsson, H. Jonsson                     : NEB implementation
   FAccTs GmbH                                   : IRC, NEB, NEB-TS, Multilevel, MM, QM/MM, CI optimization
   S Lehtola, MJT Oliveira, MAL Marques          : LibXC Library


 Your calculation uses the libint2 library for the computation of 2-el integrals
 For citations please refer to: http://libint.valeyev.net

 Your ORCA version has been built with support for libXC version: 4.2.3
 For citations please refer to: https://tddft.org/programs/libxc/

 This ORCA versions uses:
   CBLAS   interface :  Fast vector & matrix operations
   LAPACKE interface :  Fast linear algebra routines
   SCALAPACK package :  Parallel linear algebra routines


Setting NCore(Hg) from 46 to 60
----- Orbital basis set information -----
Your calculation utilizes the basis: def2-QZVPPD
   F. Weigend and R. Ahlrichs, Phys. Chem. Chem. Phys. 7, 3297 (2005).
   D. Rappoport and F. Furche, J. Chem. Phys. 133 134105 (2010).

cite the ECPs for Hg [Def2-ECP] as follows:
Ce-Yb(ecp-28): M. Dolg, H. Stoll, H.Preuss, J. Chem. Phys., 1989, 90, 1730-1734.
Y-Cd(ecp-28), Hf-Hg(ecp-46): D. Andrae,U. Haeussermann, M. Dolg, H. Stoll, H. Preuss, Theor. Chim. Acta, 1990, 77, 123-141.
In-Sb(ecp-28), Tl-Bi(ecp-46): B. Metz, H. Stoll, M. Dolg, J. Chem. Phys., 2000, 113, 2563-2569.
Te-Xe(ecp-28), Po-Rn(ecp-46): K. A. Peterson, D. Figgen, E. Goll, H. Stoll, M. Dolg, J. Chem. Phys., 2003, 119, 11113-11123.
Rb(ecp-28), Cs(ecp-46): T. Leininger, A. Nicklass, W. Kuechle, H. Stoll, M. Dolg, A. Bergner, Chem. Phys. Lett., 1996, 255, 274-280.
Sr(ecp-28), Ba(ecp-46): M. Kaupp, P. V. Schleyer, H. Stoll and H. Preuss, J. Chem. Phys., 1991, 94, 1360-1366.
La(ecp-46): M. Dolg, H. Stoll, A. Savin, H. Preuss, Theor. Chim. Acta, 1989, 75, 173-194.
Lu(ecp-28): X. Cao, M. Dolg, J. Chem. Phys., 2001, 115, 7348-7355.

ECP parameters for Hg [Def2-ECP] have been obtained from:
TURBOMOLE (7.0.2)

================================================================================
                                        WARNINGS
                       Please study these warnings very carefully!
================================================================================


WARNING: MDCI localization with Augmented Hessian Foster-Boys
  ===> : Switching off randomization!

WARNING: Post HF methods need fully converged wavefunctions
  ===> : Setting SCFConvForced true
         You can overwrite this default with %scf ConvForced false 


INFO   : the flag for use of LIBINT has been found!

================================================================================
                                       INPUT FILE
================================================================================
NAME = 80_Hg.in
|  1> #
|  2> # 80_Hg CCSD(T)/Def2-QZVPPD
|  3> #
|  4> ! CCSD(T) Def2-QZVPPD tightscf slowconv
|  5> 
|  6> *xyz 0 1
|  7>  Hg 0.0 0.0 0.0
|  8> *
|  9> 
| 10> %maxcore 5000 
| 11> 
| 12> %pal
| 13> nprocs 24
| 14> end
| 15> 
| 16> %method
| 17> NewNCore Hg 60 end
| 18> end
| 19> 
| 20> 
| 21>                          ****END OF INPUT****
================================================================================

                       ****************************
                       * Single Point Calculation *
                       ****************************

---------------------------------
CARTESIAN COORDINATES (ANGSTROEM)
---------------------------------
  Hg     0.000000    0.000000    0.000000

----------------------------
CARTESIAN COORDINATES (A.U.)
----------------------------
  NO LB      ZA    FRAG     MASS         X           Y           Z
   0 Hg   20.0000*   0   200.590    0.000000    0.000000    0.000000
* core charge reduced due to ECP

--------------------------------
INTERNAL COORDINATES (ANGSTROEM)
--------------------------------
 Hg     0   0   0     0.000000000000     0.00000000     0.00000000

---------------------------
INTERNAL COORDINATES (A.U.)
---------------------------
 Hg     0   0   0     0.000000000000     0.00000000     0.00000000

---------------------
BASIS SET INFORMATION
---------------------
There are 1 groups of distinct atoms

 Group   1 Type Hg  : 9s8p7d4f2g contracted to 7s5p4d4f2g pattern {3111111/41111/4111/1111/11}

Atom   0Hg   basis set group =>   1
-------------------------
ECP PARAMETER INFORMATION
-------------------------

 Group 1, Type Hg ECP Def2-ECP (replacing 60 core electrons, lmax=3)

Atom   0Hg   ECP group =>   1



           ************************************************************
           *        Program running with 24 parallel MPI-processes    *
           *              working on a common directory               *
           ************************************************************
------------------------------------------------------------------------------
                           ORCA GTO INTEGRAL CALCULATION
------------------------------------------------------------------------------

                         BASIS SET STATISTICS AND STARTUP INFO

 # of primitive gaussian shells          ...   30
 # of primitive gaussian functions       ...  114
 # of contracted shells                  ...   22
 # of contracted basis functions         ...   88
 Highest angular momentum                ...    4
 Maximum contraction depth               ...    4
 Integral package used                   ... LIBINT
 Integral threshhold            Thresh   ...  2.500e-11
 Primitive cut-off              TCut     ...  2.500e-12


------------------------------ INTEGRAL EVALUATION ----------------------------


 * One electron integrals 

   ECP integrals                         ... done
 Pre-screening matrix                    ... done
 Shell pair data                         ... done (   0.000 sec)



           ************************************************************
           *        Program running with 24 parallel MPI-processes    *
           *              working on a common directory               *
           ************************************************************
-------------------------------------------------------------------------------
                                 ORCA SCF
-------------------------------------------------------------------------------

------------
SCF SETTINGS
------------
Hamiltonian:
 Ab initio Hamiltonian  Method          .... Hartree-Fock(GTOs)


General Settings:
 Integral files         IntName         .... 80_Hg
 Hartree-Fock type      HFTyp           .... RHF
 Total Charge           Charge          ....    0
 Multiplicity           Mult            ....    1
 Number of Electrons    NEL             ....   20
 Basis Dimension        Dim             ....   88
 Nuclear Repulsion      ENuc            ....      0.0000000000 Eh

Convergence Acceleration:
 DIIS                   CNVDIIS         .... on
   Start iteration      DIISMaxIt       ....     0
   Startup error        DIISStart       ....  0.200000
   # of expansion vecs  DIISMaxEq       ....     5
   Bias factor          DIISBfac        ....   1.050
   Max. coefficient     DIISMaxC        ....  10.000
 Newton-Raphson         CNVNR           .... off
 SOSCF                  CNVSOSCF        .... off
 Level Shifting         CNVShift        .... on
   Level shift para.    LevelShift      ....    0.2500
   Turn off err/grad.   ShiftErr        ....    0.0000
 Zerner damping         CNVZerner       .... off
 Static damping         CNVDamp         .... on
   Fraction old density DampFac         ....    0.8500
   Max. Damping (<1)    DampMax         ....    0.9800
   Min. Damping (>=0)   DampMin         ....    0.0000
   Turn off err/grad.   DampErr         ....    0.0300
 Fernandez-Rico         CNVRico         .... off

SCF Procedure:
 Maximum # iterations   MaxIter         ....   125
 SCF integral mode      SCFMode         .... Direct
   Integral package                     .... LIBINT
 Reset frequency        DirectResetFreq ....    20
 Integral Threshold     Thresh          ....  2.500e-11 Eh
 Primitive CutOff       TCut            ....  2.500e-12 Eh

Convergence Tolerance:
 Convergence Check Mode ConvCheckMode   .... Total+1el-Energy
 Convergence forced     ConvForced      .... 1
 Energy Change          TolE            ....  1.000e-08 Eh
 1-El. energy change                    ....  1.000e-05 Eh
 DIIS Error             TolErr          ....  5.000e-07


Diagonalization of the overlap matrix:
Smallest eigenvalue                        ... 6.394e-03
Time for diagonalization                   ...    0.003 sec
Threshold for overlap eigenvalues          ... 1.000e-08
Number of eigenvalues below threshold      ... 0
Time for construction of square roots      ...    0.012 sec
Total time needed                          ...    0.015 sec

-------------------
DFT GRID GENERATION
-------------------

General Integration Accuracy     IntAcc      ...  4.340
Radial Grid Type                 RadialGrid  ... Gauss-Chebyshev
Angular Grid (max. acc.)         AngularGrid ... Lebedev-110
Angular grid pruning method      GridPruning ... 3 (G Style)
Weight generation scheme         WeightScheme... Becke
Basis function cutoff            BFCut       ...    1.0000e-11
Integration weight cutoff        WCut        ...    1.0000e-14
Grids for H and He will be reduced by one unit

# of grid points (after initial pruning)     ...   3590 (   0.0 sec)
# of grid points (after weights+screening)   ...   3590 (   0.0 sec)
Grid point division into batches done        ...    0.0 sec
Reduced shell lists constructed in    0.0 sec

Total number of grid points                  ...     3590
Total number of batches                      ...       57
Average number of points per batch           ...       62
Average number of grid points per atom       ...     3590
Average number of shells per batch           ...     6.00 (27.27%)
Average number of basis functions per batch  ...    19.50 (22.16%)
Average number of large shells per batch     ...     4.50 (75.00%)
Average number of large basis fcns per batch ...    15.00 (76.92%)
Maximum spatial batch extension              ...  25.56, 38.92, 38.92 au
Average spatial batch extension              ...   1.27,  1.82,  2.05 au

Time for grid setup =    0.062 sec

------------------------------
INITIAL GUESS: MODEL POTENTIAL
------------------------------
Loading Hartree-Fock densities                     ... done
  calling /sw/apps/orca/orca_4_2_0_linux_x86-64_openmpi314/orca 80_Hg_atom80.inp > 80_Hg_atom80.out in order to generate an atomic fitting density for atom 0 (Hg with ECP) on-the-fly... 
    atom 0 (Hg), assumed electronic state with S=1: 1s2 2s2 2p6 3s2 3p6 4s2 3d10 4p6 5s2 4d10 5p6 6s2 4f14 5d10           ... done
Calculating cut-offs                               ... done
Setting up the integral package                    ... done
Initializing the effective Hamiltonian             ... done
Starting the Coulomb interaction                   ... done (   0.0 sec)
Reading the grid                                   ... done
Mapping shells                                     ... done
Starting the XC term evaluation                    ... done (   0.0 sec)
Transforming the Hamiltonian                       ... done (   0.0 sec)
Diagonalizing the Hamiltonian                      ... done (   0.0 sec)
Back transforming the eigenvectors                 ... done (   0.0 sec)
Now organizing SCF variables                       ... done
                      ------------------
                      INITIAL GUESS DONE (   1.7 sec)
                      ------------------
--------------
SCF ITERATIONS
--------------
ITER       Energy         Delta-E        Max-DP      RMS-DP      [F,P]     Damp
               ***  Starting incremental Fock matrix formation  ***
  0   -152.4115696623   0.000000000000 0.17845581  0.00273185  0.6785037 0.8500
  1   -152.4360472714  -0.024477609014 0.15752673  0.00242420  0.5775055 0.8500
                               ***Turning on DIIS***
  2   -152.4554056292  -0.019358357850 0.13244655  0.00202979  0.4904472 0.8500
  3   -152.8129495749  -0.357543945710 0.10853259  0.00164755  0.4168702 0.8500
  4   -152.9734489410  -0.160499366099 0.09150323  0.00138513  0.3551807 0.8500
  5   -152.9466915276   0.026757413413 0.07937682  0.00120529  0.3029077 0.8500
  6   -152.8856070188   0.061084508839 0.06913689  0.00105494  0.2581965 0.8500
  7   -152.7947111067   0.090895912056 0.06055493  0.00092983  0.2199163 0.8500
  8   -152.7471956763   0.047515430418 0.05228849  0.00080696  0.1870818 0.8500
  9   -152.7223323215   0.024863354755 0.04472102  0.00069266  0.1590774 0.8500
 10   -152.7024493903   0.019882931204 0.03815735  0.00059271  0.1352759 0.8500
 11   -152.6829954548   0.019453935560 0.03257643  0.00050738  0.1150563 0.8500
 12   -152.6640168460   0.018978608758 0.02784283  0.00043483  0.0978683 0.8500
 13   -152.6473214415   0.016695404498 0.02379528  0.00037260  0.0832464 0.8500
 14   -152.6333438479   0.013977593594 0.02032198  0.00031901  0.0708060 0.8500
 15   -152.6216484752   0.011695372732 0.01734539  0.00027293  0.0602234 0.8500
 16   -152.6117168543   0.009931620863 0.01480067  0.00023343  0.0512228 0.8500
 17   -152.6032026199   0.008514234417 0.01262844  0.00019962  0.0435679 0.8500
 18   -152.5959108365   0.007291783446 0.01077475  0.00017069  0.0370572 0.8500
 19   -152.5896946541   0.006216182331 0.00919269  0.00014595  0.0315196 0.8500
               *** Restarting incremental Fock matrix formation ***
                                   *** Resetting DIIS ***
 20   -152.5490950469   0.040599607248 0.04985354  0.00077743  0.0268096 0.0000
 21   -152.5501733577  -0.001078310793 0.00165229  0.00005472  0.0034811 0.0000
 22   -152.5579603782  -0.007787020546 0.00290046  0.00005973  0.0009065 0.0000
 23   -152.5541905554   0.003769822847 0.00088485  0.00002592  0.0002969 0.0000
 24   -152.5546919400  -0.000501384665 0.00073629  0.00001687  0.0001521 0.0000
 25   -152.5547645173  -0.000072577296 0.00058601  0.00001020  0.0000660 0.0000
 26   -152.5546703489   0.000094168386 0.00034876  0.00000557  0.0000271 0.0000
 27   -152.5546425969   0.000027752023 0.00019864  0.00000310  0.0000118 0.0000
 28   -152.5546115783   0.000031018617 0.00008991  0.00000140  0.0000048 0.0000
 29   -152.5545936758   0.000017902485 0.00003468  0.00000054  0.0000019 0.0000
                            ***DIIS convergence achieved***

               *****************************************************
               *                     SUCCESS                       *
               *           SCF CONVERGED AFTER  30 CYCLES          *
               *****************************************************


----------------
TOTAL SCF ENERGY
----------------

Total Energy       :         -152.55458513 Eh           -4151.22131 eV

Components:
Nuclear Repulsion  :            0.00000000 Eh               0.00000 eV
Electronic Energy  :         -152.55458513 Eh           -4151.22131 eV
One Electron Energy:         -270.13318462 Eh           -7350.69766 eV
Two Electron Energy:          117.57859948 Eh            3199.47635 eV

Virial components:
Potential Energy   :         -203.63571552 Eh           -5541.20953 eV
Kinetic Energy     :           51.08113039 Eh            1389.98822 eV
Virial Ratio       :            3.98651545


---------------
SCF CONVERGENCE
---------------

  Last Energy change         ...    8.5410e-06  Tolerance :   1.0000e-08
  Last MAX-Density change    ...    1.2020e-05  Tolerance :   1.0000e-07
  Last RMS-Density change    ...    1.8856e-07  Tolerance :   5.0000e-09
  Last DIIS Error            ...    7.0668e-07  Tolerance :   5.0000e-07

             **** THE GBW FILE WAS UPDATED (80_Hg.gbw) ****
             **** DENSITY FILE WAS UPDATED (80_Hg.scfp) ****
             **** ENERGY FILE WAS UPDATED (80_Hg.en.tmp) ****
             **** THE GBW FILE WAS UPDATED (80_Hg.gbw) ****
             **** DENSITY FILE WAS UPDATED (80_Hg.scfp) ****
----------------
ORBITAL ENERGIES
----------------

  NO   OCC          E(Eh)            E(eV) 
   0   2.0000      -5.043841      -137.2499 
   1   2.0000      -3.031869       -82.5013 
   2   2.0000      -3.031869       -82.5013 
   3   2.0000      -3.031869       -82.5013 
   4   2.0000      -0.604306       -16.4440 
   5   2.0000      -0.604306       -16.4440 
   6   2.0000      -0.604306       -16.4440 
   7   2.0000      -0.604306       -16.4440 
   8   2.0000      -0.604306       -16.4440 
   9   2.0000      -0.327014        -8.8985 
  10   0.0000       0.048658         1.3241 
  11   0.0000       0.048658         1.3241 
  12   0.0000       0.048658         1.3241 
  13   0.0000       0.123750         3.3674 
  14   0.0000       0.249121         6.7789 
  15   0.0000       0.249121         6.7789 
  16   0.0000       0.249121         6.7789 
  17   0.0000       0.324980         8.8432 
  18   0.0000       0.324980         8.8432 
  19   0.0000       0.324980         8.8432 
  20   0.0000       0.324980         8.8432 
  21   0.0000       0.324980         8.8432 
  22   0.0000       0.531791        14.4708 
  23   0.0000       0.531791        14.4708 
  24   0.0000       0.531791        14.4708 
  25   0.0000       0.531791        14.4708 
  26   0.0000       0.531791        14.4708 
  27   0.0000       0.531791        14.4708 
  28   0.0000       0.531791        14.4708 
  29   0.0000       0.676047        18.3962 
  30   0.0000       1.135663        30.9030 
  31   0.0000       1.135663        30.9030 
  32   0.0000       1.135663        30.9030 
  33   0.0000       1.135663        30.9030 
  34   0.0000       1.135663        30.9030 
  35   0.0000       1.293112        35.1874 
  36   0.0000       1.293112        35.1874 
  37   0.0000       1.293112        35.1874 
  38   0.0000       1.293112        35.1874 
  39   0.0000       1.293112        35.1874 
  40   0.0000       1.293112        35.1874 
  41   0.0000       1.293112        35.1874 
  42   0.0000       1.338081        36.4110 
  43   0.0000       1.338081        36.4110 
  44   0.0000       1.338081        36.4110 
  45   0.0000       2.777051        75.5674 
  46   0.0000       2.777051        75.5674 
  47   0.0000       2.777051        75.5674 
  48   0.0000       2.777051        75.5674 
  49   0.0000       2.777051        75.5674 
  50   0.0000       2.777051        75.5674 
  51   0.0000       2.777051        75.5674 
  52   0.0000       3.054174        83.1083 
  53   0.0000       3.054174        83.1083 
  54   0.0000       3.054174        83.1083 
  55   0.0000       3.054174        83.1083 
  56   0.0000       3.054174        83.1083 
  57   0.0000       3.054174        83.1083 
  58   0.0000       3.054174        83.1083 
  59   0.0000       3.054174        83.1083 
  60   0.0000       3.054174        83.1083 
  61   0.0000       3.422736        93.1374 
  62   0.0000       3.450052        93.8807 
  63   0.0000       3.450052        93.8807 
  64   0.0000       3.450052        93.8807 
  65   0.0000       3.450052        93.8807 
  66   0.0000       3.450052        93.8807 
  67   0.0000       6.729236       183.1118 
  68   0.0000       6.729236       183.1118 
  69   0.0000       6.729236       183.1118 
  70   0.0000       6.729236       183.1118 
  71   0.0000       6.729236       183.1118 
  72   0.0000       6.729236       183.1118 
  73   0.0000       6.729236       183.1118 
  74   0.0000       8.108353       220.6395 
  75   0.0000       8.108353       220.6395 
  76   0.0000       8.108353       220.6395 
  77   0.0000       8.108353       220.6395 
  78   0.0000       8.108353       220.6395 
  79   0.0000       8.108353       220.6395 
  80   0.0000       8.108353       220.6395 
  81   0.0000       8.108353       220.6395 
  82   0.0000       8.108353       220.6395 
  83   0.0000      32.967119       897.0809 
  84   0.0000      32.967119       897.0809 
  85   0.0000      32.967119       897.0809 
  86   0.0000      36.686608       998.2934 
  87   0.0000     125.123802      3404.7917 

                    ********************************
                    * MULLIKEN POPULATION ANALYSIS *
                    ********************************

-----------------------
MULLIKEN ATOMIC CHARGES
-----------------------
   0 Hg:   -0.000000
Sum of atomic charges:   -0.0000000

--------------------------------
MULLIKEN REDUCED ORBITAL CHARGES
--------------------------------
  0 Hgs       :     4.000000  s :     4.000000
      pz      :     2.000000  p :     6.000000
      px      :     2.000000
      py      :     2.000000
      dz2     :     2.000000  d :    10.000000
      dxz     :     2.000000
      dyz     :     2.000000
      dx2y2   :     2.000000
      dxy     :     2.000000
      f0      :     0.000000  f :     0.000000
      f+1     :     0.000000
      f-1     :     0.000000
      f+2     :     0.000000
      f-2     :     0.000000
      f+3     :     0.000000
      f-3     :     0.000000
      g0      :     0.000000  g :     0.000000
      g+1     :     0.000000
      g-1     :     0.000000
      g+2     :     0.000000
      g-2     :     0.000000
      g+3     :     0.000000
      g-3     :     0.000000
      g+4     :     0.000000
      g-4     :     0.000000


                     *******************************
                     * LOEWDIN POPULATION ANALYSIS *
                     *******************************

----------------------
LOEWDIN ATOMIC CHARGES
----------------------
   0 Hg:   -0.000000

-------------------------------
LOEWDIN REDUCED ORBITAL CHARGES
-------------------------------
  0 Hgs       :     4.000000  s :     4.000000
      pz      :     2.000000  p :     6.000000
      px      :     2.000000
      py      :     2.000000
      dz2     :     2.000000  d :    10.000000
      dxz     :     2.000000
      dyz     :     2.000000
      dx2y2   :     2.000000
      dxy     :     2.000000
      f0      :     0.000000  f :     0.000000
      f+1     :     0.000000
      f-1     :     0.000000
      f+2     :     0.000000
      f-2     :     0.000000
      f+3     :     0.000000
      f-3     :     0.000000
      g0      :     0.000000  g :     0.000000
      g+1     :     0.000000
      g-1     :     0.000000
      g+2     :     0.000000
      g-2     :     0.000000
      g+3     :     0.000000
      g-3     :     0.000000
      g+4     :     0.000000
      g-4     :     0.000000


                      *****************************
                      * MAYER POPULATION ANALYSIS *
                      *****************************

  NA   - Mulliken gross atomic population
  ZA   - Total nuclear charge
  QA   - Mulliken gross atomic charge
  VA   - Mayer's total valence
  BVA  - Mayer's bonded valence
  FA   - Mayer's free valence

  ATOM       NA         ZA         QA         VA         BVA        FA
  0 Hg    20.0000    20.0000    -0.0000    -0.0000     0.0000    -0.0000

  Mayer bond orders larger than 0.100000


--------------------------
ATOM BASIS FOR ELEMENT Hg
--------------------------
 NewGTO Hg
 S 9
    1         48.013786990000        -0.005559421732
    2         21.239875095000         0.168578373527
    3         15.876100879000        -0.355268134627
    4          5.486593942900         0.796522931550
    5          1.552176689500        -0.865390189425
    6          0.747425411900        -0.511439430787
    7          0.202688384800        -0.028262720260
    8          0.093376229200         0.009138120324
    9          0.041248705600        -0.002226466610
 S 9
    1         48.013786990000        -0.001965451323
    2         21.239875095000         0.059598390505
    3         15.876100879000        -0.125599794199
    4          5.486593942900         0.308621797247
    5          1.552176689500        -0.476904165750
    6          0.747425411900        -0.299848731350
    7          0.202688384800         0.381897723706
    8          0.093376229200         0.587659171524
    9          0.041248705600         0.245769867650
 S 9
    1         48.013786990000        -0.001051124138
    2         21.239875095000         0.031873242596
    3         15.876100879000        -0.067170819154
    4          5.486593942900         0.163733046199
    5          1.552176689500        -0.327571273968
    6          0.747425411900         0.074064667135
    7          0.202688384800        -0.809369540685
    8          0.093376229200         3.111127761525
    9          0.041248705600        -2.611213357410
 S 9
    1         48.013786990000        -0.001674325537
    2         21.239875095000         0.050770581807
    3         15.876100879000        -0.106995752273
    4          5.486593942900         0.275098156526
    5          1.552176689500        -0.128465916185
    6          0.747425411900        -1.451924617231
    7          0.202688384800         4.968017195246
    8          0.093376229200        -5.575170136930
    9          0.041248705600         2.003112989908
 S 9
    1         48.013786990000         0.009532608870
    2         21.239875095000        -0.289057347380
    3         15.876100879000         0.609169862392
    4          5.486593942900        -1.546904629763
    5          1.552176689500         5.392314761608
    6          0.747425411900        -6.065402667214
    7          0.202688384800         4.153622745714
    8          0.093376229200        -2.979937435995
    9          0.041248705600         0.896950516017
 S 9
    1         48.013786990000         0.053956850536
    2         21.239875095000        -1.636133853987
    3         15.876100879000         3.448047398631
    4          5.486593942900        -3.802716221111
    5          1.552176689500         3.348494329673
    6          0.747425411900        -2.385999056534
    7          0.202688384800         1.161035058283
    8          0.093376229200        -0.816164626809
    9          0.041248705600         0.250112468453
 S 9
    1         48.013786990000         0.056603546112
    2         21.239875095000        -1.716389617440
    3         15.876100879000         3.617181284423
    4          5.486593942900        -1.631372525415
    5          1.552176689500         1.074564095575
    6          0.747425411900        -0.731366023078
    7          0.202688384800         0.351690841687
    8          0.093376229200        -0.247940728371
    9          0.041248705600         0.076219965715
 P 8
    1         17.500000000000        -0.086454387533
    2         15.252594855000         0.153268218812
    3          6.440471516900        -0.302739748478
    4          1.818015992000         0.543595246336
    5          0.900679818000         0.497500425139
    6          0.413045401200         0.138135688594
    7          0.118457026500         0.005986119874
    8          0.036087619300        -0.000403716377
 P 8
    1         17.500000000000        -0.011623852279
    2         15.252594855000         0.020607018168
    3          6.440471516900        -0.040703568850
    4          1.818015992000         0.073086757345
    5          0.900679818000         0.132019573384
    6          0.413045401200        -0.079425907771
    7          0.118457026500        -0.083481259662
    8          0.036087619300        -0.932136056833
 P 8
    1         17.500000000000        -0.022305880139
    2         15.252594855000         0.039544349518
    3          6.440471516900        -0.078109124773
    4          1.818015992000         0.140251648934
    5          0.900679818000         0.169574842206
    6          0.413045401200         0.153127296648
    7          0.118457026500        -1.479253488794
    8          0.036087619300         1.015328045047
 P 8
    1         17.500000000000        -0.057090535344
    2         15.252594855000         0.101211342915
    3          6.440471516900        -0.199915525441
    4          1.818015992000         0.358965513597
    5          0.900679818000         1.300444955401
    6          0.413045401200        -2.431600263359
    7          0.118457026500         1.344482536284
    8          0.036087619300        -0.446343631763
 P 8
    1         17.500000000000        -0.573823856525
    2         15.252594855000         1.017287414915
    3          6.440471516900        -2.009375058363
    4          1.818015992000         3.608005672604
    5          0.900679818000        -4.253788224871
    6          0.413045401200         2.201220428777
    7          0.118457026500        -0.643201431896
    8          0.036087619300         0.203024371291
 D 7
    1         11.888648987000        -0.013304478718
    2          6.777366095400         0.073309055191
    3          2.093494134000        -0.241437534390
    4          1.081708717600        -0.388462895224
    5          0.533291360600        -0.346385729364
    6          0.249841018300        -0.191494489139
    7          0.108797700600        -0.046714999526
 D 7
    1         11.888648987000        -0.004592762374
    2          6.777366095400         0.025306596181
    3          2.093494134000        -0.083345258915
    4          1.081708717600        -0.134099035857
    5          0.533291360600         0.115570796872
    6          0.249841018300        -0.637727817460
    7          0.108797700600         1.354849929625
 D 7
    1         11.888648987000        -0.005873480246
    2          6.777366095400         0.032363484252
    3          2.093494134000        -0.106586557714
    4          1.081708717600        -0.171493313607
    5          0.533291360600        -1.027658132631
    6          0.249841018300         2.286323205641
    7          0.108797700600        -1.085034915615
 D 7
    1         11.888648987000        -0.036892052164
    2          6.777366095400         0.203279026970
    3          2.093494134000        -0.669483284661
    4          1.081708717600        -1.077170605314
    5          0.533291360600         2.769958787348
    6          0.249841018300        -1.946568239801
    7          0.108797700600         0.621473034278
 F 4
    1          1.889380000000        -0.010781408972
    2          0.795690000000         0.130827762016
    3          0.335100000000        -0.269453420727
    4          0.141120000000         1.140790330197
 F 4
    1          1.889380000000         0.134626543719
    2          0.795690000000        -0.040872709179
    3          0.335100000000         1.314554107593
    4          0.141120000000        -0.763038383983
 F 4
    1          1.889380000000         0.089890680492
    2          0.795690000000         1.354821437910
    3          0.335100000000        -1.369998277500
    4          0.141120000000         0.517320115191
 F 4
    1          1.889380000000         1.486135899308
    2          0.795690000000        -1.604712384663
    3          0.335100000000         0.867029656413
    4          0.141120000000        -0.289089790707
 G 2
    1          1.835850000000        -0.077495866492
    2          0.722490000000         1.041443674812
 G 2
    1          1.835850000000         1.205857808276
    2          0.722490000000        -0.612775436271
 end
  // -----------------------------------------------
  // The basis set
  // -----------------------------------------------
  BAS[ATNO] = new BFNGauss[NSH];
  // Basis function   1 L = s
  InitBFNGauss(BAS[ATNO][  0]);
  BAS[ATNO][  0].l  = 0;
  BAS[ATNO][  0].ng = 9;
  BAS[ATNO][  0].a[  0] =        48.013786990000;     BAS[ATNO][  0].d[  0] =         0.005559421732;
  BAS[ATNO][  0].a[  1] =        21.239875095000;     BAS[ATNO][  0].d[  1] =        -0.168578373527;
  BAS[ATNO][  0].a[  2] =        15.876100879000;     BAS[ATNO][  0].d[  2] =         0.355268134627;
  BAS[ATNO][  0].a[  3] =         5.486593942900;     BAS[ATNO][  0].d[  3] =        -0.796522931550;
  BAS[ATNO][  0].a[  4] =         1.552176689500;     BAS[ATNO][  0].d[  4] =         0.865390189425;
  BAS[ATNO][  0].a[  5] =         0.747425411900;     BAS[ATNO][  0].d[  5] =         0.511439430787;
  BAS[ATNO][  0].a[  6] =         0.202688384800;     BAS[ATNO][  0].d[  6] =         0.028262720260;
  BAS[ATNO][  0].a[  7] =         0.093376229200;     BAS[ATNO][  0].d[  7] =        -0.009138120324;
  BAS[ATNO][  0].a[  8] =         0.041248705600;     BAS[ATNO][  0].d[  8] =         0.002226466610;

  // Basis function   2 L = s
  InitBFNGauss(BAS[ATNO][  1]);
  BAS[ATNO][  1].l  = 0;
  BAS[ATNO][  1].ng = 9;
  BAS[ATNO][  1].a[  0] =        48.013786990000;     BAS[ATNO][  1].d[  0] =        -0.001965451323;
  BAS[ATNO][  1].a[  1] =        21.239875095000;     BAS[ATNO][  1].d[  1] =         0.059598390505;
  BAS[ATNO][  1].a[  2] =        15.876100879000;     BAS[ATNO][  1].d[  2] =        -0.125599794199;
  BAS[ATNO][  1].a[  3] =         5.486593942900;     BAS[ATNO][  1].d[  3] =         0.308621797247;
  BAS[ATNO][  1].a[  4] =         1.552176689500;     BAS[ATNO][  1].d[  4] =        -0.476904165750;
  BAS[ATNO][  1].a[  5] =         0.747425411900;     BAS[ATNO][  1].d[  5] =        -0.299848731350;
  BAS[ATNO][  1].a[  6] =         0.202688384800;     BAS[ATNO][  1].d[  6] =         0.381897723706;
  BAS[ATNO][  1].a[  7] =         0.093376229200;     BAS[ATNO][  1].d[  7] =         0.587659171524;
  BAS[ATNO][  1].a[  8] =         0.041248705600;     BAS[ATNO][  1].d[  8] =         0.245769867650;

  // Basis function   3 L = s
  InitBFNGauss(BAS[ATNO][  2]);
  BAS[ATNO][  2].l  = 0;
  BAS[ATNO][  2].ng = 9;
  BAS[ATNO][  2].a[  0] =        48.013786990000;     BAS[ATNO][  2].d[  0] =        -0.001051124138;
  BAS[ATNO][  2].a[  1] =        21.239875095000;     BAS[ATNO][  2].d[  1] =         0.031873242596;
  BAS[ATNO][  2].a[  2] =        15.876100879000;     BAS[ATNO][  2].d[  2] =        -0.067170819154;
  BAS[ATNO][  2].a[  3] =         5.486593942900;     BAS[ATNO][  2].d[  3] =         0.163733046199;
  BAS[ATNO][  2].a[  4] =         1.552176689500;     BAS[ATNO][  2].d[  4] =        -0.327571273968;
  BAS[ATNO][  2].a[  5] =         0.747425411900;     BAS[ATNO][  2].d[  5] =         0.074064667135;
  BAS[ATNO][  2].a[  6] =         0.202688384800;     BAS[ATNO][  2].d[  6] =        -0.809369540685;
  BAS[ATNO][  2].a[  7] =         0.093376229200;     BAS[ATNO][  2].d[  7] =         3.111127761525;
  BAS[ATNO][  2].a[  8] =         0.041248705600;     BAS[ATNO][  2].d[  8] =        -2.611213357410;

  // Basis function   4 L = s
  InitBFNGauss(BAS[ATNO][  3]);
  BAS[ATNO][  3].l  = 0;
  BAS[ATNO][  3].ng = 9;
  BAS[ATNO][  3].a[  0] =        48.013786990000;     BAS[ATNO][  3].d[  0] =         0.001674325537;
  BAS[ATNO][  3].a[  1] =        21.239875095000;     BAS[ATNO][  3].d[  1] =        -0.050770581807;
  BAS[ATNO][  3].a[  2] =        15.876100879000;     BAS[ATNO][  3].d[  2] =         0.106995752273;
  BAS[ATNO][  3].a[  3] =         5.486593942900;     BAS[ATNO][  3].d[  3] =        -0.275098156526;
  BAS[ATNO][  3].a[  4] =         1.552176689500;     BAS[ATNO][  3].d[  4] =         0.128465916185;
  BAS[ATNO][  3].a[  5] =         0.747425411900;     BAS[ATNO][  3].d[  5] =         1.451924617231;
  BAS[ATNO][  3].a[  6] =         0.202688384800;     BAS[ATNO][  3].d[  6] =        -4.968017195246;
  BAS[ATNO][  3].a[  7] =         0.093376229200;     BAS[ATNO][  3].d[  7] =         5.575170136930;
  BAS[ATNO][  3].a[  8] =         0.041248705600;     BAS[ATNO][  3].d[  8] =        -2.003112989908;

  // Basis function   5 L = s
  InitBFNGauss(BAS[ATNO][  4]);
  BAS[ATNO][  4].l  = 0;
  BAS[ATNO][  4].ng = 9;
  BAS[ATNO][  4].a[  0] =        48.013786990000;     BAS[ATNO][  4].d[  0] =        -0.009532608870;
  BAS[ATNO][  4].a[  1] =        21.239875095000;     BAS[ATNO][  4].d[  1] =         0.289057347380;
  BAS[ATNO][  4].a[  2] =        15.876100879000;     BAS[ATNO][  4].d[  2] =        -0.609169862392;
  BAS[ATNO][  4].a[  3] =         5.486593942900;     BAS[ATNO][  4].d[  3] =         1.546904629763;
  BAS[ATNO][  4].a[  4] =         1.552176689500;     BAS[ATNO][  4].d[  4] =        -5.392314761608;
  BAS[ATNO][  4].a[  5] =         0.747425411900;     BAS[ATNO][  4].d[  5] =         6.065402667214;
  BAS[ATNO][  4].a[  6] =         0.202688384800;     BAS[ATNO][  4].d[  6] =        -4.153622745714;
  BAS[ATNO][  4].a[  7] =         0.093376229200;     BAS[ATNO][  4].d[  7] =         2.979937435995;
  BAS[ATNO][  4].a[  8] =         0.041248705600;     BAS[ATNO][  4].d[  8] =        -0.896950516017;

  // Basis function   6 L = s
  InitBFNGauss(BAS[ATNO][  5]);
  BAS[ATNO][  5].l  = 0;
  BAS[ATNO][  5].ng = 9;
  BAS[ATNO][  5].a[  0] =        48.013786990000;     BAS[ATNO][  5].d[  0] =        -0.053956850536;
  BAS[ATNO][  5].a[  1] =        21.239875095000;     BAS[ATNO][  5].d[  1] =         1.636133853987;
  BAS[ATNO][  5].a[  2] =        15.876100879000;     BAS[ATNO][  5].d[  2] =        -3.448047398631;
  BAS[ATNO][  5].a[  3] =         5.486593942900;     BAS[ATNO][  5].d[  3] =         3.802716221111;
  BAS[ATNO][  5].a[  4] =         1.552176689500;     BAS[ATNO][  5].d[  4] =        -3.348494329673;
  BAS[ATNO][  5].a[  5] =         0.747425411900;     BAS[ATNO][  5].d[  5] =         2.385999056534;
  BAS[ATNO][  5].a[  6] =         0.202688384800;     BAS[ATNO][  5].d[  6] =        -1.161035058283;
  BAS[ATNO][  5].a[  7] =         0.093376229200;     BAS[ATNO][  5].d[  7] =         0.816164626809;
  BAS[ATNO][  5].a[  8] =         0.041248705600;     BAS[ATNO][  5].d[  8] =        -0.250112468453;

  // Basis function   7 L = s
  InitBFNGauss(BAS[ATNO][  6]);
  BAS[ATNO][  6].l  = 0;
  BAS[ATNO][  6].ng = 9;
  BAS[ATNO][  6].a[  0] =        48.013786990000;     BAS[ATNO][  6].d[  0] =         0.056603546112;
  BAS[ATNO][  6].a[  1] =        21.239875095000;     BAS[ATNO][  6].d[  1] =        -1.716389617440;
  BAS[ATNO][  6].a[  2] =        15.876100879000;     BAS[ATNO][  6].d[  2] =         3.617181284423;
  BAS[ATNO][  6].a[  3] =         5.486593942900;     BAS[ATNO][  6].d[  3] =        -1.631372525415;
  BAS[ATNO][  6].a[  4] =         1.552176689500;     BAS[ATNO][  6].d[  4] =         1.074564095575;
  BAS[ATNO][  6].a[  5] =         0.747425411900;     BAS[ATNO][  6].d[  5] =        -0.731366023078;
  BAS[ATNO][  6].a[  6] =         0.202688384800;     BAS[ATNO][  6].d[  6] =         0.351690841687;
  BAS[ATNO][  6].a[  7] =         0.093376229200;     BAS[ATNO][  6].d[  7] =        -0.247940728371;
  BAS[ATNO][  6].a[  8] =         0.041248705600;     BAS[ATNO][  6].d[  8] =         0.076219965715;

  // Basis function   8 L = p
  InitBFNGauss(BAS[ATNO][  7]);
  BAS[ATNO][  7].l  = 1;
  BAS[ATNO][  7].ng = 8;
  BAS[ATNO][  7].a[  0] =        17.500000000000;     BAS[ATNO][  7].d[  0] =        -0.086454387533;
  BAS[ATNO][  7].a[  1] =        15.252594855000;     BAS[ATNO][  7].d[  1] =         0.153268218812;
  BAS[ATNO][  7].a[  2] =         6.440471516900;     BAS[ATNO][  7].d[  2] =        -0.302739748478;
  BAS[ATNO][  7].a[  3] =         1.818015992000;     BAS[ATNO][  7].d[  3] =         0.543595246336;
  BAS[ATNO][  7].a[  4] =         0.900679818000;     BAS[ATNO][  7].d[  4] =         0.497500425139;
  BAS[ATNO][  7].a[  5] =         0.413045401200;     BAS[ATNO][  7].d[  5] =         0.138135688594;
  BAS[ATNO][  7].a[  6] =         0.118457026500;     BAS[ATNO][  7].d[  6] =         0.005986119874;
  BAS[ATNO][  7].a[  7] =         0.036087619300;     BAS[ATNO][  7].d[  7] =        -0.000403716377;

  // Basis function   9 L = p
  InitBFNGauss(BAS[ATNO][  8]);
  BAS[ATNO][  8].l  = 1;
  BAS[ATNO][  8].ng = 8;
  BAS[ATNO][  8].a[  0] =        17.500000000000;     BAS[ATNO][  8].d[  0] =         0.011623852279;
  BAS[ATNO][  8].a[  1] =        15.252594855000;     BAS[ATNO][  8].d[  1] =        -0.020607018168;
  BAS[ATNO][  8].a[  2] =         6.440471516900;     BAS[ATNO][  8].d[  2] =         0.040703568850;
  BAS[ATNO][  8].a[  3] =         1.818015992000;     BAS[ATNO][  8].d[  3] =        -0.073086757345;
  BAS[ATNO][  8].a[  4] =         0.900679818000;     BAS[ATNO][  8].d[  4] =        -0.132019573384;
  BAS[ATNO][  8].a[  5] =         0.413045401200;     BAS[ATNO][  8].d[  5] =         0.079425907771;
  BAS[ATNO][  8].a[  6] =         0.118457026500;     BAS[ATNO][  8].d[  6] =         0.083481259662;
  BAS[ATNO][  8].a[  7] =         0.036087619300;     BAS[ATNO][  8].d[  7] =         0.932136056833;

  // Basis function  10 L = p
  InitBFNGauss(BAS[ATNO][  9]);
  BAS[ATNO][  9].l  = 1;
  BAS[ATNO][  9].ng = 8;
  BAS[ATNO][  9].a[  0] =        17.500000000000;     BAS[ATNO][  9].d[  0] =         0.022305880139;
  BAS[ATNO][  9].a[  1] =        15.252594855000;     BAS[ATNO][  9].d[  1] =        -0.039544349518;
  BAS[ATNO][  9].a[  2] =         6.440471516900;     BAS[ATNO][  9].d[  2] =         0.078109124773;
  BAS[ATNO][  9].a[  3] =         1.818015992000;     BAS[ATNO][  9].d[  3] =        -0.140251648934;
  BAS[ATNO][  9].a[  4] =         0.900679818000;     BAS[ATNO][  9].d[  4] =        -0.169574842206;
  BAS[ATNO][  9].a[  5] =         0.413045401200;     BAS[ATNO][  9].d[  5] =        -0.153127296648;
  BAS[ATNO][  9].a[  6] =         0.118457026500;     BAS[ATNO][  9].d[  6] =         1.479253488794;
  BAS[ATNO][  9].a[  7] =         0.036087619300;     BAS[ATNO][  9].d[  7] =        -1.015328045047;

  // Basis function  11 L = p
  InitBFNGauss(BAS[ATNO][ 10]);
  BAS[ATNO][ 10].l  = 1;
  BAS[ATNO][ 10].ng = 8;
  BAS[ATNO][ 10].a[  0] =        17.500000000000;     BAS[ATNO][ 10].d[  0] =         0.057090535344;
  BAS[ATNO][ 10].a[  1] =        15.252594855000;     BAS[ATNO][ 10].d[  1] =        -0.101211342915;
  BAS[ATNO][ 10].a[  2] =         6.440471516900;     BAS[ATNO][ 10].d[  2] =         0.199915525441;
  BAS[ATNO][ 10].a[  3] =         1.818015992000;     BAS[ATNO][ 10].d[  3] =        -0.358965513597;
  BAS[ATNO][ 10].a[  4] =         0.900679818000;     BAS[ATNO][ 10].d[  4] =        -1.300444955401;
  BAS[ATNO][ 10].a[  5] =         0.413045401200;     BAS[ATNO][ 10].d[  5] =         2.431600263359;
  BAS[ATNO][ 10].a[  6] =         0.118457026500;     BAS[ATNO][ 10].d[  6] =        -1.344482536284;
  BAS[ATNO][ 10].a[  7] =         0.036087619300;     BAS[ATNO][ 10].d[  7] =         0.446343631763;

  // Basis function  12 L = p
  InitBFNGauss(BAS[ATNO][ 11]);
  BAS[ATNO][ 11].l  = 1;
  BAS[ATNO][ 11].ng = 8;
  BAS[ATNO][ 11].a[  0] =        17.500000000000;     BAS[ATNO][ 11].d[  0] =         0.573823856525;
  BAS[ATNO][ 11].a[  1] =        15.252594855000;     BAS[ATNO][ 11].d[  1] =        -1.017287414915;
  BAS[ATNO][ 11].a[  2] =         6.440471516900;     BAS[ATNO][ 11].d[  2] =         2.009375058363;
  BAS[ATNO][ 11].a[  3] =         1.818015992000;     BAS[ATNO][ 11].d[  3] =        -3.608005672604;
  BAS[ATNO][ 11].a[  4] =         0.900679818000;     BAS[ATNO][ 11].d[  4] =         4.253788224871;
  BAS[ATNO][ 11].a[  5] =         0.413045401200;     BAS[ATNO][ 11].d[  5] =        -2.201220428777;
  BAS[ATNO][ 11].a[  6] =         0.118457026500;     BAS[ATNO][ 11].d[  6] =         0.643201431896;
  BAS[ATNO][ 11].a[  7] =         0.036087619300;     BAS[ATNO][ 11].d[  7] =        -0.203024371291;

  // Basis function  13 L = d
  InitBFNGauss(BAS[ATNO][ 12]);
  BAS[ATNO][ 12].l  = 2;
  BAS[ATNO][ 12].ng = 7;
  BAS[ATNO][ 12].a[  0] =        11.888648987000;     BAS[ATNO][ 12].d[  0] =         0.013304478718;
  BAS[ATNO][ 12].a[  1] =         6.777366095400;     BAS[ATNO][ 12].d[  1] =        -0.073309055191;
  BAS[ATNO][ 12].a[  2] =         2.093494134000;     BAS[ATNO][ 12].d[  2] =         0.241437534390;
  BAS[ATNO][ 12].a[  3] =         1.081708717600;     BAS[ATNO][ 12].d[  3] =         0.388462895224;
  BAS[ATNO][ 12].a[  4] =         0.533291360600;     BAS[ATNO][ 12].d[  4] =         0.346385729364;
  BAS[ATNO][ 12].a[  5] =         0.249841018300;     BAS[ATNO][ 12].d[  5] =         0.191494489139;
  BAS[ATNO][ 12].a[  6] =         0.108797700600;     BAS[ATNO][ 12].d[  6] =         0.046714999526;

  // Basis function  14 L = d
  InitBFNGauss(BAS[ATNO][ 13]);
  BAS[ATNO][ 13].l  = 2;
  BAS[ATNO][ 13].ng = 7;
  BAS[ATNO][ 13].a[  0] =        11.888648987000;     BAS[ATNO][ 13].d[  0] =        -0.004592762374;
  BAS[ATNO][ 13].a[  1] =         6.777366095400;     BAS[ATNO][ 13].d[  1] =         0.025306596181;
  BAS[ATNO][ 13].a[  2] =         2.093494134000;     BAS[ATNO][ 13].d[  2] =        -0.083345258915;
  BAS[ATNO][ 13].a[  3] =         1.081708717600;     BAS[ATNO][ 13].d[  3] =        -0.134099035857;
  BAS[ATNO][ 13].a[  4] =         0.533291360600;     BAS[ATNO][ 13].d[  4] =         0.115570796872;
  BAS[ATNO][ 13].a[  5] =         0.249841018300;     BAS[ATNO][ 13].d[  5] =        -0.637727817460;
  BAS[ATNO][ 13].a[  6] =         0.108797700600;     BAS[ATNO][ 13].d[  6] =         1.354849929625;

  // Basis function  15 L = d
  InitBFNGauss(BAS[ATNO][ 14]);
  BAS[ATNO][ 14].l  = 2;
  BAS[ATNO][ 14].ng = 7;
  BAS[ATNO][ 14].a[  0] =        11.888648987000;     BAS[ATNO][ 14].d[  0] =        -0.005873480246;
  BAS[ATNO][ 14].a[  1] =         6.777366095400;     BAS[ATNO][ 14].d[  1] =         0.032363484252;
  BAS[ATNO][ 14].a[  2] =         2.093494134000;     BAS[ATNO][ 14].d[  2] =        -0.106586557714;
  BAS[ATNO][ 14].a[  3] =         1.081708717600;     BAS[ATNO][ 14].d[  3] =        -0.171493313607;
  BAS[ATNO][ 14].a[  4] =         0.533291360600;     BAS[ATNO][ 14].d[  4] =        -1.027658132631;
  BAS[ATNO][ 14].a[  5] =         0.249841018300;     BAS[ATNO][ 14].d[  5] =         2.286323205641;
  BAS[ATNO][ 14].a[  6] =         0.108797700600;     BAS[ATNO][ 14].d[  6] =        -1.085034915615;

  // Basis function  16 L = d
  InitBFNGauss(BAS[ATNO][ 15]);
  BAS[ATNO][ 15].l  = 2;
  BAS[ATNO][ 15].ng = 7;
  BAS[ATNO][ 15].a[  0] =        11.888648987000;     BAS[ATNO][ 15].d[  0] =        -0.036892052164;
  BAS[ATNO][ 15].a[  1] =         6.777366095400;     BAS[ATNO][ 15].d[  1] =         0.203279026970;
  BAS[ATNO][ 15].a[  2] =         2.093494134000;     BAS[ATNO][ 15].d[  2] =        -0.669483284661;
  BAS[ATNO][ 15].a[  3] =         1.081708717600;     BAS[ATNO][ 15].d[  3] =        -1.077170605314;
  BAS[ATNO][ 15].a[  4] =         0.533291360600;     BAS[ATNO][ 15].d[  4] =         2.769958787348;
  BAS[ATNO][ 15].a[  5] =         0.249841018300;     BAS[ATNO][ 15].d[  5] =        -1.946568239801;
  BAS[ATNO][ 15].a[  6] =         0.108797700600;     BAS[ATNO][ 15].d[  6] =         0.621473034278;

  // Basis function  17 L = f
  InitBFNGauss(BAS[ATNO][ 16]);
  BAS[ATNO][ 16].l  = 3;
  BAS[ATNO][ 16].ng = 4;
  BAS[ATNO][ 16].a[  0] =         1.889380000000;     BAS[ATNO][ 16].d[  0] =        -0.010781408972;
  BAS[ATNO][ 16].a[  1] =         0.795690000000;     BAS[ATNO][ 16].d[  1] =         0.130827762016;
  BAS[ATNO][ 16].a[  2] =         0.335100000000;     BAS[ATNO][ 16].d[  2] =        -0.269453420727;
  BAS[ATNO][ 16].a[  3] =         0.141120000000;     BAS[ATNO][ 16].d[  3] =         1.140790330197;

  // Basis function  18 L = f
  InitBFNGauss(BAS[ATNO][ 17]);
  BAS[ATNO][ 17].l  = 3;
  BAS[ATNO][ 17].ng = 4;
  BAS[ATNO][ 17].a[  0] =         1.889380000000;     BAS[ATNO][ 17].d[  0] =         0.134626543719;
  BAS[ATNO][ 17].a[  1] =         0.795690000000;     BAS[ATNO][ 17].d[  1] =        -0.040872709179;
  BAS[ATNO][ 17].a[  2] =         0.335100000000;     BAS[ATNO][ 17].d[  2] =         1.314554107593;
  BAS[ATNO][ 17].a[  3] =         0.141120000000;     BAS[ATNO][ 17].d[  3] =        -0.763038383983;

  // Basis function  19 L = f
  InitBFNGauss(BAS[ATNO][ 18]);
  BAS[ATNO][ 18].l  = 3;
  BAS[ATNO][ 18].ng = 4;
  BAS[ATNO][ 18].a[  0] =         1.889380000000;     BAS[ATNO][ 18].d[  0] =        -0.089890680492;
  BAS[ATNO][ 18].a[  1] =         0.795690000000;     BAS[ATNO][ 18].d[  1] =        -1.354821437910;
  BAS[ATNO][ 18].a[  2] =         0.335100000000;     BAS[ATNO][ 18].d[  2] =         1.369998277500;
  BAS[ATNO][ 18].a[  3] =         0.141120000000;     BAS[ATNO][ 18].d[  3] =        -0.517320115191;

  // Basis function  20 L = f
  InitBFNGauss(BAS[ATNO][ 19]);
  BAS[ATNO][ 19].l  = 3;
  BAS[ATNO][ 19].ng = 4;
  BAS[ATNO][ 19].a[  0] =         1.889380000000;     BAS[ATNO][ 19].d[  0] =        -1.486135899308;
  BAS[ATNO][ 19].a[  1] =         0.795690000000;     BAS[ATNO][ 19].d[  1] =         1.604712384663;
  BAS[ATNO][ 19].a[  2] =         0.335100000000;     BAS[ATNO][ 19].d[  2] =        -0.867029656413;
  BAS[ATNO][ 19].a[  3] =         0.141120000000;     BAS[ATNO][ 19].d[  3] =         0.289089790707;

  // Basis function  21 L = g
  InitBFNGauss(BAS[ATNO][ 20]);
  BAS[ATNO][ 20].l  = 4;
  BAS[ATNO][ 20].ng = 2;
  BAS[ATNO][ 20].a[  0] =         1.835850000000;     BAS[ATNO][ 20].d[  0] =        -0.077495866492;
  BAS[ATNO][ 20].a[  1] =         0.722490000000;     BAS[ATNO][ 20].d[  1] =         1.041443674812;

  // Basis function  22 L = g
  InitBFNGauss(BAS[ATNO][ 21]);
  BAS[ATNO][ 21].l  = 4;
  BAS[ATNO][ 21].ng = 2;
  BAS[ATNO][ 21].a[  0] =         1.835850000000;     BAS[ATNO][ 21].d[  0] =         1.205857808276;
  BAS[ATNO][ 21].a[  1] =         0.722490000000;     BAS[ATNO][ 21].d[  1] =        -0.612775436271;

-------------------------------------------
RADIAL EXPECTATION VALUES <R**-3> TO <R**3>
-------------------------------------------
   0 :     0.000000     1.488828     1.166806     0.936002     0.956503     1.067153
   1 :     0.000000     0.244616     0.425119     2.845536     9.365152    35.155581
   2 :     0.000000     0.067217     0.204803     5.897383    37.892751   256.819459
   3 :     0.000000     0.230706     0.382638     3.712258    17.912493   104.982889
   4 :     0.000000     0.939666     0.823355     1.814177     5.190390    22.843654
   5 :     0.000000     6.714841     2.249364     0.584008     0.639285     1.878754
   6 :     0.000000    64.290946     6.390965     0.218256     0.093463     0.181624
   7 :     1.446012     1.161480     1.027382     1.071899     1.267157     1.654881
   8 :     1.446012     1.161480     1.027382     1.071899     1.267157     1.654881
   9 :     1.446012     1.161480     1.027382     1.071899     1.267157     1.654881
  10 :     0.032384     0.064562     0.220580     5.333348    31.979424   210.591477
  11 :     0.032384     0.064562     0.220580     5.333348    31.979424   210.591477
  12 :     0.032384     0.064562     0.220580     5.333348    31.979424   210.591477
  13 :     0.090546     0.132092     0.303556     4.467917    25.703438   176.080155
  14 :     0.090546     0.132092     0.303556     4.467917    25.703438   176.080155
  15 :     0.090546     0.132092     0.303556     4.467917    25.703438   176.080155
  16 :     0.495938     0.443512     0.556042     2.544264     9.097831    44.675555
  17 :     0.495938     0.443512     0.556042     2.544264     9.097831    44.675555
  18 :     0.495938     0.443512     0.556042     2.544264     9.097831    44.675555
  19 :    16.525210     4.515189     1.692091     1.152798     2.626440    10.339528
  20 :    16.525210     4.515189     1.692091     1.152798     2.626440    10.339528
  21 :    16.525210     4.515189     1.692091     1.152798     2.626440    10.339528
  22 :     0.716104     0.698190     0.779191     1.486157     2.574948    26.115526
  23 :     0.716104     0.698190     0.779191     1.486157     2.574948    26.115526
  24 :     0.716104     0.698190     0.779191     1.486157     2.574948    26.115526
  25 :     0.716104     0.698190     0.779191     1.486157     2.574948    26.115526
  26 :     0.716104     0.698190     0.779191     1.486157     2.574948    26.115526
  27 :     0.056650     0.091741     0.259980     4.339983    19.991079   480.653585
  28 :     0.056650     0.091741     0.259980     4.339983    19.991079   480.653585
  29 :     0.056650     0.091741     0.259980     4.339983    19.991079   480.653585
  30 :     0.056650     0.091741     0.259980     4.339983    19.991079   480.653585
  31 :     0.056650     0.091741     0.259980     4.339983    19.991079   480.653585
  32 :     0.215009     0.252865     0.425295     3.018322    10.969737   231.347453
  33 :     0.215009     0.252865     0.425295     3.018322    10.969737   231.347453
  34 :     0.215009     0.252865     0.425295     3.018322    10.969737   231.347453
  35 :     0.215009     0.252865     0.425295     3.018322    10.969737   231.347453
  36 :     0.215009     0.252865     0.425295     3.018322    10.969737   231.347453
  37 :     0.781334     0.681293     0.721027     1.907612     4.986643    85.540987
  38 :     0.781334     0.681293     0.721027     1.907612     4.986643    85.540987
  39 :     0.781334     0.681293     0.721027     1.907612     4.986643    85.540987
  40 :     0.781334     0.681293     0.721027     1.907612     4.986643    85.540987
  41 :     0.781334     0.681293     0.721027     1.907612     4.986643    85.540987
  42 :     0.022710     0.072396     0.258903     4.091162    17.551146   549.560765
  43 :     0.022710     0.072396     0.258903     4.091162    17.551146   549.560765
  44 :     0.022710     0.072396     0.258903     4.091162    17.551146   549.560765
  45 :     0.022710     0.072396     0.258903     4.091162    17.551146   549.560765
  46 :     0.022710     0.072396     0.258903     4.091162    17.551146   549.560765
  47 :     0.022710     0.072396     0.258903     4.091162    17.551146   549.560765
  48 :     0.022710     0.072396     0.258903     4.091162    17.551146   549.560765
  49 :     0.147840     0.235856     0.448430     2.626651     8.215740   213.167483
  50 :     0.147840     0.235856     0.448430     2.626651     8.215740   213.167483
  51 :     0.147840     0.235856     0.448430     2.626651     8.215740   213.167483
  52 :     0.147840     0.235856     0.448430     2.626651     8.215740   213.167483
  53 :     0.147840     0.235856     0.448430     2.626651     8.215740   213.167483
  54 :     0.147840     0.235856     0.448430     2.626651     8.215740   213.167483
  55 :     0.147840     0.235856     0.448430     2.626651     8.215740   213.167483
  56 :     0.406221     0.473908     0.632378     1.970906     5.004914   113.043307
  57 :     0.406221     0.473908     0.632378     1.970906     5.004914   113.043307
  58 :     0.406221     0.473908     0.632378     1.970906     5.004914   113.043307
  59 :     0.406221     0.473908     0.632378     1.970906     5.004914   113.043307
  60 :     0.406221     0.473908     0.632378     1.970906     5.004914   113.043307
  61 :     0.406221     0.473908     0.632378     1.970906     5.004914   113.043307
  62 :     0.406221     0.473908     0.632378     1.970906     5.004914   113.043307
  63 :     1.288439     1.024291     0.928522     1.364726     2.516878    44.919920
  64 :     1.288439     1.024291     0.928522     1.364726     2.516878    44.919920
  65 :     1.288439     1.024291     0.928522     1.364726     2.516878    44.919920
  66 :     1.288439     1.024291     0.928522     1.364726     2.516878    44.919920
  67 :     1.288439     1.024291     0.928522     1.364726     2.516878    44.919920
  68 :     1.288439     1.024291     0.928522     1.364726     2.516878    44.919920
  69 :     1.288439     1.024291     0.928522     1.364726     2.516878    44.919920
  70 :     0.178294     0.301660     0.536625     1.945857     3.942510    58.074709
  71 :     0.178294     0.301660     0.536625     1.945857     3.942510    58.074709
  72 :     0.178294     0.301660     0.536625     1.945857     3.942510    58.074709
  73 :     0.178294     0.301660     0.536625     1.945857     3.942510    58.074709
  74 :     0.178294     0.301660     0.536625     1.945857     3.942510    58.074709
  75 :     0.178294     0.301660     0.536625     1.945857     3.942510    58.074709
  76 :     0.178294     0.301660     0.536625     1.945857     3.942510    58.074709
  77 :     0.178294     0.301660     0.536625     1.945857     3.942510    58.074709
  78 :     0.178294     0.301660     0.536625     1.945857     3.942510    58.074709
  79 :     0.858336     0.835380     0.876109     1.266803     1.823912    21.195078
  80 :     0.858336     0.835380     0.876109     1.266803     1.823912    21.195078
  81 :     0.858336     0.835380     0.876109     1.266803     1.823912    21.195078
  82 :     0.858336     0.835380     0.876109     1.266803     1.823912    21.195078
  83 :     0.858336     0.835380     0.876109     1.266803     1.823912    21.195078
  84 :     0.858336     0.835380     0.876109     1.266803     1.823912    21.195078
  85 :     0.858336     0.835380     0.876109     1.266803     1.823912    21.195078
  86 :     0.858336     0.835380     0.876109     1.266803     1.823912    21.195078
  87 :     0.858336     0.835380     0.876109     1.266803     1.823912    21.195078
-------
TIMINGS
-------

Total SCF time: 0 days 0 hours 0 min 18 sec 

Total time                  ....      18.073 sec
Sum of individual times     ....      17.201 sec  ( 95.2%)

Fock matrix formation       ....       4.872 sec  ( 27.0%)
Diagonalization             ....       0.135 sec  (  0.7%)
Density matrix formation    ....       0.012 sec  (  0.1%)
Population analysis         ....       0.024 sec  (  0.1%)
Initial guess               ....       1.660 sec  (  9.2%)
Orbital Transformation      ....       0.000 sec  (  0.0%)
Orbital Orthonormalization  ....       0.000 sec  (  0.0%)
DIIS solution               ....      10.435 sec  ( 57.7%)


           ************************************************************
           *        Program running with 24 parallel MPI-processes    *
           *              working on a common directory               *
           ************************************************************


------------------------------------------------------------------------------- 
                              ORCA-MATRIX DRIVEN CI                            
------------------------------------------------------------------------------- 

--------------------------------
AUTOMATIC CHOICE OF INCORE LEVEL
--------------------------------

Memory available                           ...   2500.00 MB
Memory needed for S+T                      ...      7.66 MB
Memory needed for J+K                      ...     15.38 MB
Memory needed for DIIS                     ...    107.22 MB
Memory needed for 3-ext                    ...     36.21 MB
Memory needed for 4-ext                    ...    143.01 MB
Memory needed for triples                  ...     18.10 MB
 -> Final InCoreLevel    ... 5
 -> check shows that triples correction can be computed


Wavefunction type
-----------------
Correlation treatment                      ...      CCSD     
Single excitations                         ... ON
Orbital optimization                       ... OFF
Calculation of Z vector                    ... OFF
Calculation of Brueckner orbitals          ... OFF
Perturbative triple excitations            ... ON
Calculation of F12 correction              ... OFF
Frozen core treatment                      ... chemical core (0 el)
Reference Wavefunction                     ... RHF
  Internal Orbitals:     0 ...    9 ( 10 MO's/ 20 electrons)
  Virtual  Orbitals:    10 ...   87 ( 78 MO's              )
Number of AO's                             ...     88
Number of electrons                        ...     20
Number of correlated electrons             ...     20

Algorithmic settings
--------------------
Integral transformation                    ... AO direct full transformation
K(C) Formation                             ... FULL-MO TRAFO
Maximum number of iterations               ...        50
Convergence tolerance (max. residuum)      ... 1.000e-05
Level shift for amplitude update           ... 2.000e-01
Maximum number of DIIS vectors             ...         7
DIIS turned on at iteration                ...         0
Damping before turning on DIIS             ...     0.500
Damping after turning on DIIS              ...     0.000
Pair specific amplitude update             ... OFF
Natural orbital iterations                 ... OFF
Perturbative natural orbital generation    ... OFF
Printlevel                                 ... 2

Memory handling:
----------------
Maximum memory for working arrays          ...   2500 MB
Data storage in matrix containers          ... UNCOMPRESSED
Data type for integral storage             ... DOUBLE
In-Core Storage of quantities:
   Amplitudes+Sigma Vector      ... YES
   J+K operators                ... YES
   DIIS vectors                 ... YES
   3-external integrals         ... YES
   4-external integrals         ... YES


Initializing the integral package          ... done
Warning: reference  - re-canonicalizations have been set to INT 1 VIRT 1

--------------------------
CLOSED-SHELL FOCK OPERATOR
--------------------------

<ss|ss>:          406 b            0 skpd (  0.0%)    0.000 s ( 0.000 ms/b)
<ss|sp>:          980 b            0 skpd (  0.0%)    0.000 s ( 0.000 ms/b)
<ss|sd>:          784 b            0 skpd (  0.0%)    0.000 s ( 0.000 ms/b)
<ss|sf>:          784 b            0 skpd (  0.0%)    0.000 s ( 0.000 ms/b)
<ss|sg>:          392 b            0 skpd (  0.0%)    0.000 s ( 0.000 ms/b)
<ss|pp>:          420 b            0 skpd (  0.0%)    0.000 s ( 0.000 ms/b)
<ss|pd>:          560 b            0 skpd (  0.0%)    0.000 s ( 0.000 ms/b)
<ss|pf>:          560 b            0 skpd (  0.0%)    0.000 s ( 0.000 ms/b)
<ss|pg>:          280 b            0 skpd (  0.0%)    0.000 s ( 0.001 ms/b)
<ss|dd>:          280 b            0 skpd (  0.0%)    0.000 s ( 0.001 ms/b)
<ss|df>:          448 b            0 skpd (  0.0%)    0.000 s ( 0.001 ms/b)
<ss|dg>:          224 b            0 skpd (  0.0%)    0.000 s ( 0.001 ms/b)
<ss|ff>:          280 b            0 skpd (  0.0%)    0.000 s ( 0.001 ms/b)
<ss|fg>:          224 b            0 skpd (  0.0%)    0.000 s ( 0.001 ms/b)
<ss|gg>:           84 b            0 skpd (  0.0%)    0.000 s ( 0.005 ms/b)
<sp|sp>:          630 b            0 skpd (  0.0%)    0.000 s ( 0.000 ms/b)
<sp|sd>:          980 b            0 skpd (  0.0%)    0.000 s ( 0.000 ms/b)
<sp|sf>:          980 b            0 skpd (  0.0%)    0.000 s ( 0.000 ms/b)
<sp|sg>:          490 b            0 skpd (  0.0%)    0.000 s ( 0.000 ms/b)
<sp|pp>:          525 b            0 skpd (  0.0%)    0.000 s ( 0.000 ms/b)
<sp|pd>:          700 b            1 skpd (  0.1%)    0.000 s ( 0.000 ms/b)
<sp|pf>:          700 b            2 skpd (  0.3%)    0.000 s ( 0.000 ms/b)
<sp|pg>:          350 b            3 skpd (  0.9%)    0.000 s ( 0.001 ms/b)
<sp|dd>:          350 b            0 skpd (  0.0%)    0.000 s ( 0.001 ms/b)
<sp|df>: done
<sp|dg>: done
<sp|ff>: done
<sp|fg>: done
<sp|gg>: done
<sd|sd>:          406 b            0 skpd (  0.0%)    0.000 s ( 0.000 ms/b)
<sd|sf>:          784 b            0 skpd (  0.0%)    0.000 s ( 0.000 ms/b)
<sd|sg>:          392 b            0 skpd (  0.0%)    0.000 s ( 0.000 ms/b)
<sd|pp>:          420 b            0 skpd (  0.0%)    0.000 s ( 0.001 ms/b)
<sd|pd>:          560 b            0 skpd (  0.0%)    0.001 s ( 0.001 ms/b)
<sd|pf>: done
<sd|pg>: done
<sd|dd>:          280 b            0 skpd (  0.0%)    0.001 s ( 0.003 ms/b)
<sd|df>:          448 b            0 skpd (  0.0%)    0.001 s ( 0.002 ms/b)
<sd|dg>:          224 b            0 skpd (  0.0%)    0.001 s ( 0.005 ms/b)
<sd|ff>: done
<sd|fg>: done
<sd|gg>: done
<sf|sf>:          406 b            0 skpd (  0.0%)    0.000 s ( 0.001 ms/b)
<sf|sg>:          392 b            0 skpd (  0.0%)    0.000 s ( 0.001 ms/b)
<sf|pp>:          420 b            1 skpd (  0.2%)    0.000 s ( 0.001 ms/b)
<sf|pd>: done
<sf|pf>: done
<sf|pg>: done
<sf|dd>:          280 b            0 skpd (  0.0%)    0.001 s ( 0.005 ms/b)
<sf|df>: done
<sf|dg>: done
<sf|ff>: done
<sf|fg>: done
<sf|gg>: done
<sg|sg>:          105 b            0 skpd (  0.0%)    0.000 s ( 0.002 ms/b)
<sg|pp>:          210 b            0 skpd (  0.0%)    0.000 s ( 0.002 ms/b)
<sg|pd>: done
<sg|pf>: done
<sg|pg>: done
<sg|dd>:          140 b            0 skpd (  0.0%)    0.001 s ( 0.009 ms/b)
<sg|df>: done
<sg|dg>: done
<sg|ff>: done
<sg|fg>: done
<sg|gg>: done
<pp|pp>:          120 b            0 skpd (  0.0%)    0.000 s ( 0.002 ms/b)
<pp|pd>:          300 b            0 skpd (  0.0%)    0.000 s ( 0.001 ms/b)
<pp|pf>:          300 b            0 skpd (  0.0%)    0.000 s ( 0.001 ms/b)
<pp|pg>:          150 b            0 skpd (  0.0%)    0.001 s ( 0.006 ms/b)
<pp|dd>:          150 b            0 skpd (  0.0%)    0.001 s ( 0.005 ms/b)
<pp|df>:          240 b            0 skpd (  0.0%)    0.001 s ( 0.002 ms/b)
<pp|dg>:          120 b            0 skpd (  0.0%)    0.001 s ( 0.007 ms/b)
<pp|ff>:          150 b            0 skpd (  0.0%)    0.001 s ( 0.006 ms/b)
<pp|fg>:          120 b            0 skpd (  0.0%)    0.001 s ( 0.011 ms/b)
<pp|gg>:           45 b            0 skpd (  0.0%)    0.001 s ( 0.019 ms/b)
<pd|pd>:          210 b            0 skpd (  0.0%)    0.001 s ( 0.005 ms/b)
<pd|pf>:          400 b            0 skpd (  0.0%)    0.001 s ( 0.002 ms/b)
<pd|pg>:          200 b            0 skpd (  0.0%)    0.002 s ( 0.010 ms/b)
<pd|dd>:          200 b            0 skpd (  0.0%)    0.002 s ( 0.010 ms/b)
<pd|df>:          320 b            0 skpd (  0.0%)    0.001 s ( 0.004 ms/b)
<pd|dg>:          160 b            0 skpd (  0.0%)    0.002 s ( 0.011 ms/b)
<pd|ff>: done
<pd|fg>: done
<pd|gg>: done
<pf|pf>:          210 b            0 skpd (  0.0%)    0.001 s ( 0.003 ms/b)
<pf|pg>:          200 b            0 skpd (  0.0%)    0.002 s ( 0.011 ms/b)
<pf|dd>:          200 b            0 skpd (  0.0%)    0.002 s ( 0.012 ms/b)
<pf|df>: done
<pf|dg>: done
<pf|ff>: done
<pf|fg>: done
<pf|gg>: done
<pg|pg>:           55 b            0 skpd (  0.0%)    0.001 s ( 0.019 ms/b)
<pg|dd>:          100 b            0 skpd (  0.0%)    0.002 s ( 0.024 ms/b)
<pg|df>: done
<pg|dg>: done
<pg|ff>: done
<pg|fg>: done
<pg|gg>: done
<dd|dd>:           55 b            0 skpd (  0.0%)    0.002 s ( 0.044 ms/b)
<dd|df>:          160 b            0 skpd (  0.0%)    0.001 s ( 0.009 ms/b)
<dd|dg>:           80 b            0 skpd (  0.0%)    0.002 s ( 0.028 ms/b)
<dd|ff>:          100 b            0 skpd (  0.0%)    0.001 s ( 0.009 ms/b)
<dd|fg>:           80 b            0 skpd (  0.0%)    0.001 s ( 0.017 ms/b)
<dd|gg>:           30 b            0 skpd (  0.0%)    0.002 s ( 0.068 ms/b)
<df|df>:          136 b            0 skpd (  0.0%)    0.003 s ( 0.018 ms/b)
<df|dg>:          128 b            0 skpd (  0.0%)    0.004 s ( 0.030 ms/b)
<df|ff>: done
<df|fg>: done
<df|gg>: done
<dg|dg>:           36 b            0 skpd (  0.0%)    0.003 s ( 0.090 ms/b)
<dg|ff>: done
<dg|fg>: done
<dg|gg>: done
<ff|ff>: done
<ff|fg>: done
<ff|gg>: done
<fg|fg>: done
<fg|gg>: done
<gg|gg>: done
Recanonicalizing the internal orbitals
Recanonicalizing the virtual orbitals
Time needed for Fock operator              ...            0.084 sec
Reference energy                           ...   -152.554579419

------------------------------
PARTIAL COULOMB TRANSFORMATION
------------------------------

Transformation type                        ... one-operator
Dimension of the basis                     ...   88
Number of internal MOs                     ...   88 (0-87)
Pair cutoff                                ... 0.000e+00 Eh
Number of AO pairs included in the trafo   ... 3916
Total Number of distinct AO pairs          ... 3916
Memory devoted for trafo                   ... 2500.0 MB 
Max. Number of MO pairs treated together   ... 83677      
Max. Number of MOs treated per batch       ...  950      
Number Format for Storage                  ... Double (8 Byte)
AO-integral source                         ... DIRECT
Integral package used                      ... LIBINT

Starting integral evaluation:
<ss|**>: <sp|**>:         7084 b        0 skpd     0.032 s (  0.004 ms/b)
        8855 b        0 skpd     0.011 s (  0.001 ms/b)
<sd|**>:         7084 b        0 skpd     0.020 s (  0.003 ms/b)
<sf|**>:         7084 b        0 skpd     0.038 s (  0.005 ms/b)
<sg|**>:         3542 b        0 skpd     0.019 s (  0.005 ms/b)
<pp|**>:         3795 b        0 skpd     0.015 s (  0.004 ms/b)
<pd|**>:         5060 b        0 skpd     0.035 s (  0.007 ms/b)
<pf|**>:         5060 b        0 skpd     0.051 s (  0.010 ms/b)
<pg|**>:         2530 b        0 skpd     0.044 s (  0.017 ms/b)
<dd|**>:         2530 b        0 skpd     0.035 s (  0.014 ms/b)
<df|**>:         4048 b        0 skpd     0.064 s (  0.016 ms/b)
<dg|**>:         2024 b        0 skpd     0.067 s (  0.033 ms/b)
<ff|**>:         2530 b        0 skpd     0.064 s (  0.025 ms/b)
<fg|**>:         2024 b        0 skpd     0.084 s (  0.042 ms/b)
<gg|**>:          759 b        0 skpd     0.080 s (  0.106 ms/b)
Closing buffer AOJ ( 0.00 GB; CompressionRatio= 1.00)
Collecting buffer AOJ 
    ... done with AO integral generation
Number of MO pairs included in the trafo   ... 3916
    ... Now sorting integrals
IBATCH = 1 of  1
Closing buffer JAO ( 0.00 GB; CompressionRatio= 1.00)
Collecting buffer JAO 
TOTAL TIME for half transformation         ...     1.372 sec
AO-integral generation                     ...     0.482 sec
Half transformation                        ...     0.188 sec
J-integral sorting                         ...     0.657 sec

-------------------------- SECOND HALF TRANSFORMATION -------------------------
Formation of (pq|rs)                       ... ok (     0.755 sec)
Integral sorting                           ... ok (     0.787 sec)

------------------
CLOSED SHELL GUESS
------------------

Initial guess performed in     0.008 sec
E(0)                                       ...   -152.554579419
E(MP2)                                     ...     -0.716449729
Initial E(tot)                             ...   -153.271029148
<T|T>                                      ...      0.152851328
Number of pairs included                   ... 55
Total number of pairs                      ... 55

------------------------------------------------
                  RHF COUPLED CLUSTER ITERATIONS
------------------------------------------------

Number of amplitudes to be optimized       ... 335400

Iter       E(tot)           E(Corr)          Delta-E          Residual     Time
  0   -153.271029148     -0.716449729      0.000000000      0.021161920    0.12
                           *** Turning on DIIS ***
  1   -153.204859891     -0.650280472      0.066169257      0.005863330    0.16
  2   -153.221691152     -0.667111733     -0.016831261      0.004268737    0.17
  3   -153.223301030     -0.668721611     -0.001609878      0.002003731    0.17
  4   -153.224045749     -0.669466330     -0.000744719      0.000667827    0.18
  5   -153.224225882     -0.669646463     -0.000180134      0.000178679    0.18
  6   -153.224246812     -0.669667393     -0.000020929      0.000045993    0.21
  7   -153.224248840     -0.669669421     -0.000002029      0.000009574    0.21
               --- The Coupled-Cluster iterations have converged ---

----------------------
COUPLED CLUSTER ENERGY
----------------------

E(0)                                       ...   -152.554579419
E(CORR)                                    ...     -0.669669421
E(TOT)                                     ...   -153.224248840
Singles Norm <S|S>**1/2                    ...      0.065634378  
T1 diagnostic                              ...      0.014676293  

------------------
LARGEST AMPLITUDES
------------------
   9-> 13  -1-> -1       0.049366
   9-> 16   9-> 16       0.038850
   9-> 15   9-> 15       0.038850
   9-> 14   9-> 14       0.038850
   9-> 10   9-> 10       0.038056
   9-> 11   9-> 11       0.038056
   9-> 12   9-> 12       0.038056
   9-> 12   9-> 16       0.030840
   9-> 16   9-> 12       0.030840
   9-> 29  -1-> -1       0.026409
   9-> 11   9-> 14       0.026220
   9-> 14   9-> 11       0.026220
   9-> 10   9-> 15       0.024815
   9-> 15   9-> 10       0.024815
   9-> 11   9-> 15       0.024682
   9-> 15   9-> 11       0.024682


        !!!!!!!!!!!!!!!!!!!!!!!!!!!!!!!!!!!!!!!!!!!!!!!!!!!!!!!!!!!!!!!!!!!!!!!!!! 
        !  Warning: Densities are linearized densities !                         !
        !!!!!!!!!!!!!!!!!!!!!!!!!!!!!!!!!!!!!!!!!!!!!!!!!!!!!!!!!!!!!!!!!!!!!!!!!! 

Trace of internal density part =     -0.280682196
Trace of external density part =      0.280682196
----------------------
RHF TRIPLES CORRECTION (Algorithm 1)
----------------------

Multiplier for the singles contribution    ...      1.000000000

10% done
20% done
30% done
40% done
50% done
60% done
70% done
80% done

Triples Correction (T)                     ...     -0.025025997
Scaling of triples based on CCSD energies (Peterson et al. Molecular Physics 113, 1551 (2015))
E(T*) = f*E(T) where f = E(F12-CCSD)/E(CCSD) 
f = CCSD (with F12)/ CCSD (without F12)    ...      1.000000000
Scaled triples correction (T)              ...     -0.025025997

Final correlation energy                   ...     -0.694695419
E(CCSD)                                    ...   -153.224248840
E(CCSD(T))                                 ...   -153.249274838

NORM  =      1.144648969 sqrt=     1.069882690
W(HF) =      0.873630280
------------------------------------------------------------------------------
                           ORCA POPULATION ANALYSIS
------------------------------------------------------------------------------
Input electron density              ... 80_Hg.mdcip
BaseName (.gbw .S,...)              ... 80_Hg

                    ********************************
                    * MULLIKEN POPULATION ANALYSIS *
                    ********************************

-----------------------
MULLIKEN ATOMIC CHARGES
-----------------------
   0 Hg:   -0.000000
Sum of atomic charges:   -0.0000000

--------------------------------
MULLIKEN REDUCED ORBITAL CHARGES
--------------------------------
  0 Hgs       :     3.928390  s :     3.928390
      pz      :     2.025013  p :     6.075039
      px      :     2.025013
      py      :     2.025013
      dz2     :     1.976046  d :     9.880228
      dxz     :     1.976046
      dyz     :     1.976046
      dx2y2   :     1.976046
      dxy     :     1.976046
      f0      :     0.014683  f :     0.102782
      f+1     :     0.014683
      f-1     :     0.014683
      f+2     :     0.014683
      f-2     :     0.014683
      f+3     :     0.014683
      f-3     :     0.014683
      g0      :     0.001507  g :     0.013562
      g+1     :     0.001507
      g-1     :     0.001507
      g+2     :     0.001507
      g-2     :     0.001507
      g+3     :     0.001507
      g-3     :     0.001507
      g+4     :     0.001507
      g-4     :     0.001507


                     *******************************
                     * LOEWDIN POPULATION ANALYSIS *
                     *******************************

----------------------
LOEWDIN ATOMIC CHARGES
----------------------
   0 Hg:   -0.000000

-------------------------------
LOEWDIN REDUCED ORBITAL CHARGES
-------------------------------
  0 Hgs       :     3.928390  s :     3.928390
      pz      :     2.025013  p :     6.075039
      px      :     2.025013
      py      :     2.025013
      dz2     :     1.976046  d :     9.880228
      dxz     :     1.976046
      dyz     :     1.976046
      dx2y2   :     1.976046
      dxy     :     1.976046
      f0      :     0.014683  f :     0.102782
      f+1     :     0.014683
      f-1     :     0.014683
      f+2     :     0.014683
      f-2     :     0.014683
      f+3     :     0.014683
      f-3     :     0.014683
      g0      :     0.001507  g :     0.013562
      g+1     :     0.001507
      g-1     :     0.001507
      g+2     :     0.001507
      g-2     :     0.001507
      g+3     :     0.001507
      g-3     :     0.001507
      g+4     :     0.001507
      g-4     :     0.001507


                      *****************************
                      * MAYER POPULATION ANALYSIS *
                      *****************************

  NA   - Mulliken gross atomic population
  ZA   - Total nuclear charge
  QA   - Mulliken gross atomic charge
  VA   - Mayer's total valence
  BVA  - Mayer's bonded valence
  FA   - Mayer's free valence

  ATOM       NA         ZA         QA         VA         BVA        FA
  0 Hg    20.0000    20.0000    -0.0000     1.0709     0.0000     1.0709





------------------------------------------------------------------------------- 
                                     TIMINGS                                   
------------------------------------------------------------------------------- 


Total execution time                   ...        5.116 sec

Fock Matrix Formation                  ...        0.084 sec (  1.6%)
Initial Guess                          ...        0.008 sec (  0.2%)
DIIS Solver                            ...        0.147 sec (  2.9%)
State Vector Update                    ...        0.008 sec (  0.2%)
Sigma-vector construction              ...        1.248 sec ( 24.4%)
  <D|H|D>(0-ext)                       ...        0.018 sec (  1.5% of sigma)
  <D|H|D>(2-ext Fock)                  ...        0.001 sec (  0.1% of sigma)
  <D|H|D>(2-ext)                       ...        0.040 sec (  3.2% of sigma)
  <D|H|D>(4-ext)                       ...        0.160 sec ( 12.9% of sigma)
  <D|H|D>(4-ext-corr)                  ...        0.126 sec ( 10.1% of sigma)
  <S|H|0>                              ...        0.002 sec (  0.2% of sigma)
  <S|H|S>                              ...        0.003 sec (  0.2% of sigma)
  <S|H|D>(1-ext)                       ...        0.009 sec (  0.8% of sigma)
  <D|H|S>(1-ext)                       ...        0.010 sec (  0.8% of sigma)
  <S|H|D>(3-ext)                       ...        0.131 sec ( 10.5% of sigma)
  Fock-dressing                        ...        0.318 sec ( 25.5% of sigma)
  (ik|jl)-dressing                     ...        0.021 sec (  1.7% of sigma)
  (ij|ab),(ia|jb)-dressing             ...        0.324 sec ( 26.0% of sigma)
  Pair energies                        ...        0.001 sec (  0.1% of sigma)
Total Time for computing (T)           ...        0.290 sec (  5.7% of ALL)
  I/O of integral and amplitudes       ...        0.100 sec ( 34.6% of (T))
  N**6 sorting step                    ...        0.061 sec ( 21.2% of (T))
  External N**7 contributions          ...        0.071 sec ( 24.6% of (T))
  Internal N**7 contributions          ...        0.029 sec (  9.9% of (T))
  N**6 triples energy contributions    ...        0.028 sec (  9.6% of (T))
One-particle density matrix            ...        0.001 sec (  0.0%)


-------------------------   --------------------
FINAL SINGLE POINT ENERGY      -153.249274837715
-------------------------   --------------------


                            ***************************************
                            *     ORCA property calculations      *
                            ***************************************

                                    ---------------------
                                    Active property flags
                                    ---------------------
   (+) Dipole Moment


------------------------------------------------------------------------------
                       ORCA ELECTRIC PROPERTIES CALCULATION
------------------------------------------------------------------------------

Dipole Moment Calculation                       ... on
Quadrupole Moment Calculation                   ... off
Polarizability Calculation                      ... off
GBWName                                         ... 80_Hg.gbw
Electron density file                           ... 80_Hg.scfp
The origin for moment calculation is the CENTER OF MASS  = ( 0.000000,  0.000000  0.000000)

-------------
DIPOLE MOMENT
-------------
                                X             Y             Z
Electronic contribution:     -0.00000       0.00000       0.00000
Nuclear contribution   :      0.00000       0.00000       0.00000
                        -----------------------------------------
Total Dipole Moment    :     -0.00000       0.00000       0.00000
                        -----------------------------------------
Magnitude (a.u.)       :      0.00000
Magnitude (Debye)      :      0.00000



--------------------
Rotational spectrum 
--------------------
 
Rotational constants in cm-1:     0.000000     0.000000     0.000000 
Rotational constants in MHz :     0.000000     0.000000     0.000000 

 Dipole components along the rotational axes: 
x,y,z [a.u.] :    -0.000000     0.000000     0.000000 
x,y,z [Debye]:    -0.000000     0.000000     0.000000 

 

                           *** MDCI DENSITY ***

------------------------------------------------------------------------------
                       ORCA ELECTRIC PROPERTIES CALCULATION
------------------------------------------------------------------------------

Dipole Moment Calculation                       ... on
Quadrupole Moment Calculation                   ... off
Polarizability Calculation                      ... off
GBWName                                         ... 80_Hg.gbw
Electron density file                           ... 80_Hg.mdcip
The origin for moment calculation is the CENTER OF MASS  = ( 0.000000,  0.000000  0.000000)

-------------
DIPOLE MOMENT
-------------
                                X             Y             Z
Electronic contribution:      0.00000      -0.00000       0.00000
Nuclear contribution   :      0.00000       0.00000       0.00000
                        -----------------------------------------
Total Dipole Moment    :      0.00000      -0.00000       0.00000
                        -----------------------------------------
Magnitude (a.u.)       :      0.00000
Magnitude (Debye)      :      0.00000



--------------------
Rotational spectrum 
--------------------
 
Rotational constants in cm-1:     0.000000     0.000000     0.000000 
Rotational constants in MHz :     0.000000     0.000000     0.000000 

 Dipole components along the rotational axes: 
x,y,z [a.u.] :     0.000000    -0.000000     0.000000 
x,y,z [Debye]:     0.000000    -0.000000     0.000000 

 

Timings for individual modules:

Sum of individual times         ...       24.891 sec (=   0.415 min)
GTO integral calculation        ...        0.850 sec (=   0.014 min)   3.4 %
SCF iterations                  ...       18.428 sec (=   0.307 min)  74.0 %
MDCI module                     ...        5.613 sec (=   0.094 min)  22.6 %
                             ****ORCA TERMINATED NORMALLY****
TOTAL RUN TIME: 0 days 0 hours 0 minutes 25 seconds 654 msec
