
                                 *****************
                                 * O   R   C   A *
                                 *****************

           --- An Ab Initio, DFT and Semiempirical electronic structure package ---

                  #######################################################
                  #                        -***-                        #
                  #          Department of theory and spectroscopy      #
                  #               Directorship: Frank Neese             #
                  #        Max Planck Institute fuer Kohlenforschung    #
                  #                Kaiser Wilhelm Platz 1               #
                  #                 D-45470 Muelheim/Ruhr               #
                  #                      Germany                        #
                  #                                                     #
                  #                  All rights reserved                #
                  #                        -***-                        #
                  #######################################################


                         Program Version 4.2.0 -  RELEASE  -


 With contributions from (in alphabetic order):
   Daniel Aravena         : Magnetic Suceptibility
   Michael Atanasov       : Ab Initio Ligand Field Theory (pilot matlab implementation)
   Alexander A. Auer      : GIAO ZORA, VPT2
   Ute Becker             : Parallelization
   Giovanni Bistoni       : ED, misc. LED, open-shell LED, HFLED
   Martin Brehm           : Molecular dynamics
   Dmytro Bykov           : SCF Hessian
   Vijay G. Chilkuri      : MRCI spin determinant printing, contributions to CSF-ICE
   Dipayan Datta          : RHF DLPNO-CCSD density
   Achintya Kumar Dutta   : EOM-CC, STEOM-CC
   Dmitry Ganyushin       : Spin-Orbit,Spin-Spin,Magnetic field MRCI
   Miquel Garcia          : C-PCM Hessian, Gaussian charge scheme
   Yang Guo               : DLPNO-NEVPT2, CIM, IAO-localization
   Andreas Hansen         : Spin unrestricted coupled pair/coupled cluster methods
   Benjamin Helmich-Paris : CASSCF linear response (MC-RPA)
   Lee Huntington         : MR-EOM, pCC
   Robert Izsak           : Overlap fitted RIJCOSX, COSX-SCS-MP3, EOM
   Christian Kollmar      : KDIIS, OOCD, Brueckner-CCSD(T), CCSD density
   Simone Kossmann        : Meta GGA functionals, TD-DFT gradient, OOMP2, MP2 Hessian
   Martin Krupicka        : AUTO-CI
   Lucas Lang             : DCDCAS
   Dagmar Lenk            : GEPOL surface, SMD
   Dimitrios Liakos       : Extrapolation schemes; Compound Job, initial MDCI parallelization
   Dimitrios Manganas     : Further ROCIS development; embedding schemes
   Dimitrios Pantazis     : SARC Basis sets
   Taras Petrenko         : DFT Hessian,TD-DFT gradient, ASA, ECA, R-Raman, ABS, FL, XAS/XES, NRVS
   Peter Pinski           : DLPNO-MP2, DLPNO-MP2 Gradient
   Christoph Reimann      : Effective Core Potentials
   Marius Retegan         : Local ZFS, SOC
   Christoph Riplinger    : Optimizer, TS searches, QM/MM, DLPNO-CCSD(T), (RO)-DLPNO pert. Triples
   Tobias Risthaus        : Range-separated hybrids, TD-DFT gradient, RPA, STAB
   Michael Roemelt        : Original ROCIS implementation
   Masaaki Saitow         : Open-shell DLPNO-CCSD energy and density
   Barbara Sandhoefer     : DKH picture change effects
   Avijit Sen             : IP-ROCIS
   Kantharuban Sivalingam : CASSCF convergence, NEVPT2, FIC-MRCI
   Bernardo de Souza      : ESD, SOC TD-DFT
   Georgi Stoychev        : AutoAux, RI-MP2 NMR
   Willem Van den Heuvel  : Paramagnetic NMR
   Boris Wezisla          : Elementary symmetry handling
   Frank Wennmohs         : Technical directorship


 We gratefully acknowledge several colleagues who have allowed us to
 interface, adapt or use parts of their codes:
   Stefan Grimme, W. Hujo, H. Kruse,             : VdW corrections, initial TS optimization,
                  C. Bannwarth                     DFT functionals, gCP, sTDA/sTD-DF
   Ed Valeev, F. Pavosevic, A. Kumar             : LibInt (2-el integral package), F12 methods
   Garnet Chan, S. Sharma, J. Yang, R. Olivares  : DMRG
   Ulf Ekstrom                                   : XCFun DFT Library
   Mihaly Kallay                                 : mrcc  (arbitrary order and MRCC methods)
   Andreas Klamt, Michael Diedenhofen            : otool_cosmo (COSMO solvation model)
   Jiri Pittner, Ondrej Demel                    : Mk-CCSD
   Frank Weinhold                                : gennbo (NPA and NBO analysis)
   Christopher J. Cramer and Donald G. Truhlar   : smd solvation model
   Lars Goerigk                                  : TD-DFT with DH, B97 family of functionals
   V. Asgeirsson, H. Jonsson                     : NEB implementation
   FAccTs GmbH                                   : IRC, NEB, NEB-TS, Multilevel, MM, QM/MM, CI optimization
   S Lehtola, MJT Oliveira, MAL Marques          : LibXC Library


 Your calculation uses the libint2 library for the computation of 2-el integrals
 For citations please refer to: http://libint.valeyev.net

 Your ORCA version has been built with support for libXC version: 4.2.3
 For citations please refer to: https://tddft.org/programs/libxc/

 This ORCA versions uses:
   CBLAS   interface :  Fast vector & matrix operations
   LAPACKE interface :  Fast linear algebra routines
   SCALAPACK package :  Parallel linear algebra routines


----- Orbital basis set information -----
Your calculation utilizes the basis: def2-SVP
   F. Weigend and R. Ahlrichs, Phys. Chem. Chem. Phys. 7, 3297 (2005).

----- AuxJ basis set information -----
Your calculation utilizes the auxiliary basis: def2/J
   F. Weigend, Phys. Chem. Chem. Phys. 8, 1057 (2006).

================================================================================
                                        WARNINGS
                       Please study these warnings very carefully!
================================================================================


INFO   : the flag for use of LIBINT has been found!

================================================================================
                                       INPUT FILE
================================================================================
NAME = 84_Po_atom84.inp
|  1> # input to generate an atomic fitting density for Po
|  2> # this file is use internally by ORCA
|  3> #
|  4> # atomic ground state (S=3): 1s2 2s2 2p6 3s2 3p6 4s2 3d10 4p6 5s2 4d10 5p6 6s2 4f14 5d10 6p4 
|  5> #
|  6> ! RHF AllowRHF def2-SVP def2/J  NoMulliken NoLoewdin NoMayer NoPrintMOs 
|  7> 
|  8> %output print[p_atomdensfit] 2 end
|  9> 
| 10> %scf
| 11>   guess hcore
| 12>   maxiter 1000
| 13>   maxdisk 500000
| 14>   SCFMode Conventional
| 15>   lshift 1.000000
| 16>   hftyp rohf
| 17>   rohf_case sahf
| 18>   rohf_numop   2
| 19>   rohf_norb[1] 3
| 20>   rohf_nel[1]  4
| 21> end
| 22> 
| 23> %basis
| 24>   NewECP 84
| 25>     N_core 60
| 26>     lmax f
| 27>     s 6
| 28>       1      13.2772270000    283.2447060000  2
| 29>       2       8.3995180000     62.3964610000  2
| 30>       3       5.0132700000    -17.4282950000  2
| 31>       4       4.9846400000    -23.3803530000  2
| 32>       5       1.3267600000     -0.1633920000  2
| 33>       6       1.5287580000     -0.3245660000  2
| 34>     p 8
| 35>       1      10.6656820000     71.9917160000  2
| 36>       2       9.2837530000    143.9718710000  2
| 37>       3       6.8727490000      4.9496150000  2
| 38>       4       6.3261500000      9.7404990000  2
| 39>       5       5.0132700000    -17.4282950000  2
| 40>       6       4.9846400000    -23.3803530000  2
| 41>       7       1.3267600000     -0.1633920000  2
| 42>       8       1.5287580000     -0.3245660000  2
| 43>     d 8
| 44>       1       8.2148660000     36.3783830000  2
| 45>       2       8.0086960000     54.5627150000  2
| 46>       3       5.0552270000      9.8894990000  2
| 47>       4       4.7825530000     14.6938770000  2
| 48>       5       5.0132700000    -17.4282950000  2
| 49>       6       4.9846400000    -23.3803530000  2
| 50>       7       1.3267600000     -0.1633920000  2
| 51>       8       1.5287580000     -0.3245660000  2
| 52>     f 4
| 53>       1       5.0132700000     17.4282950000  2
| 54>       2       4.9846400000     23.3803530000  2
| 55>       3       1.3267600000      0.1633920000  2
| 56>       4       1.5287580000      0.3245660000  2
| 57>   end
| 58>   NewGTO 84
| 59>     s 9 
| 60>      1    8913.2900000000      0.0001167204
| 61>      2    1338.9800000000      0.0008220098
| 62>      3     299.5380000000      0.0028832430
| 63>      4      51.1489000000      0.0196164827
| 64>      5      23.0156000000     -0.3708903452
| 65>      6      14.3765000000      1.5850187531
| 66>      7       8.9827900000     -1.5324722084
| 67>      8       5.6129200000     -1.5029543564
| 68>      9       2.1648400000      1.9273423937
| 69>     s 1 
| 70>      1       1.1753800000      1.0000000000
| 71>     s 3 
| 72>      1      14.7877669070      0.3570618912
| 73>      2      11.9587812040     -0.6121790190
| 74>      3       2.4798455066      1.1751187195
| 75>     s 1 
| 76>      1       0.5548147779      1.0000000000
| 77>     s 1 
| 78>      1       0.2858173520      1.0000000000
| 79>     s 1 
| 80>      1       0.1384943947      1.0000000000
| 81>     s 1 
| 82>      1       0.0649545238      1.0000000000
| 83>     p 7 
| 84>      1     113.5570000000      0.0004320813
| 85>      2      20.3639000000     -0.0203815095
| 86>      3      12.7274000000      0.1951355081
| 87>      4       7.9498400000     -0.4451475745
| 88>      5       4.9647700000     -0.0355177529
| 89>      6       2.3013000000      0.6319853351
| 90>      7       1.1954500000      0.5696573282
| 91>     p 3 
| 92>      1       8.4681300000     -0.4997453257
| 93>      2       7.7962017000      0.5987433400
| 94>      3       0.6687175800      0.9647786408
| 95>     p 1 
| 96>      1       0.5915242393      1.0000000000
| 97>     p 1 
| 98>      1       0.2444484380      1.0000000000
| 99>     p 1 
|100>      1       0.1101892246      1.0000000000
|101>     p 1 
|102>      1       0.0481497760      1.0000000000
|103>     s 1 
|104>      1       0.0290313047      1.0000000000
|105>     p 1 
|106>      1       0.0166309678      1.0000000000
|107>   end
|108>   NewAuxGTO 84
|109>     S 1
|110>      1 1310.72 1.0
|111>     S 1
|112>      1  655.36 1.0
|113>     S 1
|114>      1  327.68 1.0
|115>     S 1
|116>      1  163.84 1.0
|117>     S 1
|118>      1   81.82 1.0
|119>     S 1
|120>      1   40.96 1.0
|121>     S 1
|122>      1   20.48 1.0
|123>     S 1
|124>      1   10.24 1.0
|125>     S 1
|126>      1    5.12 1.0
|127>     S 1
|128>      1    2.56 1.0
|129>     S 1
|130>      1    1.28 1.0
|131>     S 1
|132>      1    0.64 1.0
|133>     S 1
|134>      1    0.32 1.0
|135>     S 1
|136>      1    0.16 1.0
|137>     S 1
|138>      1    0.08 1.0
|139>     S 1
|140>      1    0.04 1.0
|141>     S 1
|142>      1    0.02 1.0
|143>     S 1
|144>      1    0.01 1.0
|145>   end
|146> end
|147> 
|148> * xyz 0 3
|149> 84  0.0 0.0 0.0
|150> *
|151> 
|152> 
|153>                          ****END OF INPUT****
================================================================================

                       ****************************
                       * Single Point Calculation *
                       ****************************

---------------------------------
CARTESIAN COORDINATES (ANGSTROEM)
---------------------------------
  Po     0.000000    0.000000    0.000000

----------------------------
CARTESIAN COORDINATES (A.U.)
----------------------------
  NO LB      ZA    FRAG     MASS         X           Y           Z
   0 Po   24.0000*   0   209.000    0.000000    0.000000    0.000000
* core charge reduced due to ECP

--------------------------------
INTERNAL COORDINATES (ANGSTROEM)
--------------------------------
 Po     0   0   0     0.000000000000     0.00000000     0.00000000

---------------------------
INTERNAL COORDINATES (A.U.)
---------------------------
 Po     0   0   0     0.000000000000     0.00000000     0.00000000

---------------------
BASIS SET INFORMATION
---------------------
There are 1 groups of distinct atoms

 Group   1 Type Po  : 18s15p contracted to 8s7p pattern {91311111/7311111}

Atom   0Po   basis set group =>   1
---------------------------------
AUXILIARY/J BASIS SET INFORMATION
---------------------------------
There are 1 groups of distinct atoms

 Group   1 Type Po  : 18s contracted to 18s pattern {111111111111111111}

Atom   0Po   basis set group =>   1
-------------------------
ECP PARAMETER INFORMATION
-------------------------

 Group 1, Type Po ECP (replacing 60 core electrons, lmax=3)

Atom   0Po   ECP group =>   1

------------------------------------------------------------------------------
                           ORCA GTO INTEGRAL CALCULATION
------------------------------------------------------------------------------

                         BASIS SET STATISTICS AND STARTUP INFO

 # of primitive gaussian shells          ...   33
 # of primitive gaussian functions       ...   63
 # of contracted shells                  ...   15
 # of contracted basis functions         ...   29
 Highest angular momentum                ...    1
 Maximum contraction depth               ...    9
 Integral package used                   ... LIBINT
 Integral threshhold            Thresh   ...  1.000e-10
 Primitive cut-off              TCut     ...  1.000e-11
 Storage cut-off                TCutStore... -1.000e+00
 Buffer length                           ... 1048576 integrals/buffer
 Generate file with integrals 4 distinct ...false


------------------------------ INTEGRAL EVALUATION ----------------------------


 * One electron integrals 

   ECP integrals                         ... done
 Pre-screening matrix                    ... done
 Shell pair data                         ... done (   0.000 sec)
 Statistics run                          ... done
 Maximum amount of storage needed        ...     1 MB
 Maximum amount of storage dedicated     ... 500000 MB
 Beginning two electron integral evaluation:
 Starting repulsion integrals
  <ss|ss>  ...          666 b.         0 skpd (  0.0%)     0.000 s. (  0.000 ms/b)
  <ss|sp>  ...         2016 b.         0 skpd (  0.0%)     0.001 s. (  0.001 ms/b)
  <ss|pp>  ...         1008 b.         0 skpd (  0.0%)     0.003 s. (  0.003 ms/b)
  <sp|sp>  ...         1596 b.         0 skpd (  0.0%)     0.003 s. (  0.002 ms/b)
  <sp|pp>  ...         1568 b.         0 skpd (  0.0%)     0.005 s. (  0.003 ms/b)
  <pp|pp>  ...          406 b.         0 skpd (  0.0%)     0.004 s. (  0.009 ms/b)


                                      INTEGRAL STATISTICS

Integral type statistics:
 Number of integrals retained            ...      94830 
 One   Center Integrals retained         ...      94830 (100.0%)
 Two   Center Integrals retained         ...          0 (  0.0%)
 Three Center Integrals retained         ...          0 (  0.0%)
 Four  Center Integrals retained         ...          0 (  0.0%)

Storage statistics:
 Number of char integrals                ...          0 (  0.0%)
 Number of short int integrals           ...          0 (  0.0%)
 Number of double/float integrals        ...      94830 (100.0%)
 Amount of memory used                   ...          1 MB
 Amount of memory estimated              ...          1 MB ( 96.6%)

Prescreening statistics:
 Total number of shell quadruples        ...       7260 
 Number of skipped shell quadruples      ...          0 (  0.0%)
 # of negligible batches done            ...          0 (  0.0%)

Timings:
 Total evaluation time               ...     0.181 sec (   0.003 min)
 One electron matrix time            ...     0.015 sec (   0.000 min) =  8.5%
 Schwartz matrix evaluation time     ...     0.075 sec (   0.001 min) = 41.2%
 Statistics run                      ...     0.001 sec (   0.000 min) =  0.5%
 Repulsion integral time             ...     0.017 sec (   0.000 min) =  9.2%

-------------------------------------------------------------------------------
                                 ORCA SCF
-------------------------------------------------------------------------------

------------
SCF SETTINGS
------------
Hamiltonian:
 Ab initio Hamiltonian  Method          .... Hartree-Fock(GTOs)


General Settings:
 Integral files         IntName         .... 84_Po_atom84
 Hartree-Fock type      HFTyp           .... ROHF
 Total Charge           Charge          ....    0
 Multiplicity           Mult            ....    3
 Number of Electrons    NEL             ....   24
 Basis Dimension        Dim             ....   29
 Nuclear Repulsion      ENuc            ....      0.0000000000 Eh

Convergence Acceleration:
 DIIS                   CNVDIIS         .... on
   Start iteration      DIISMaxIt       ....    12
   Startup error        DIISStart       ....  0.200000
   # of expansion vecs  DIISMaxEq       ....     5
   Bias factor          DIISBfac        ....   1.050
   Max. coefficient     DIISMaxC        ....  10.000
 Newton-Raphson         CNVNR           .... off
 SOSCF                  CNVSOSCF        .... off
 Level Shifting         CNVShift        .... on
   Level shift para.    LevelShift      ....    1.0000
   Turn off err/grad.   ShiftErr        ....    0.0010
 Zerner damping         CNVZerner       .... off
 Static damping         CNVDamp         .... on
   Fraction old density DampFac         ....    0.7000
   Max. Damping (<1)    DampMax         ....    0.9800
   Min. Damping (>=0)   DampMin         ....    0.0000
   Turn off err/grad.   DampErr         ....    0.1000
 Fernandez-Rico         CNVRico         .... off

SCF Procedure:
 Maximum # iterations   MaxIter         ....  1000
 SCF integral mode      SCFMode         .... Conventional
 Integral Threshold     Thresh          ....  1.000e-10 Eh
 Primitive CutOff       TCut            ....  1.000e-11 Eh
 Integral Buffer length BufferLength    .... 1048576
 Integral index format  IndFormat       ....     0
 Integral value format  ValFormat       ....     0
 Integral Storage       Thresh          ....  1.000e-10 Eh

Convergence Tolerance:
 Convergence Check Mode ConvCheckMode   .... Total+1el-Energy
 Convergence forced     ConvForced      .... 0
 Energy Change          TolE            ....  1.000e-06 Eh
 1-El. energy change                    ....  1.000e-03 Eh
 DIIS Error             TolErr          ....  1.000e-06


Diagonalization of the overlap matrix:
Smallest eigenvalue                        ... 7.054e-04
Time for diagonalization                   ...    0.000 sec
Threshold for overlap eigenvalues          ... 1.000e-08
Number of eigenvalues below threshold      ... 0
Time for construction of square roots      ...    0.002 sec
Total time needed                          ...    0.003 sec

--------------------
INITIAL GUESS: HCORE
--------------------
AVERAGE-CONFIGURATION (SAHF) CASE FOUND

-------------------
FINAL ROHF SETTINGS
-------------------
Number of operators             ... 2
  operator   0:  10 orbitals  20 electrons n(mue)= 2.000
  operator   1:   3 orbitals   4 electrons n(mue)= 1.333
Vector coupling coefficients a and b (Zerner convention):
   1.000    1.000           1.000    1.000 
   1.000    0.938           1.000    1.125 

                      -----------------
                      INTIAL GUESS DONE 
                      -----------------

 InCore treatment chosen:
   Memory dedicated               ...    1024 MB
   Memory needed                  ...      1 MB
   Number of tiny    integrals    ...       0
   Number of small   integrals    ...       0
   Number of regular integrals    ...   94830

--------------
SCF ITERATIONS
--------------
ITER       Energy         Delta-E        Max-DP      RMS-DP      [F,P]     Damp
  0   -202.5477321464   0.00000000000011.83751494  0.71087470  2.5669307 0.7000
  1   -206.1171867610  -3.569454614654 9.95100696  0.61198017  0.6254100 0.7000
  2   -208.0669956855  -1.949808924458 9.86607396  0.59187829  0.4392563 0.7000
  3   -209.2928054354  -1.225809749865 7.99453868  0.46863596  0.2664433 0.7000
                            ****Activating DIIS****
  4   -210.0657441821  -0.772938746767 6.58342857  0.35165139  0.1404341 0.7000
  5   -210.6548638424  -0.58911966025715.52430689  0.82799530  0.0833017 0.0000
  6   -211.6728359306  -1.017972088226 1.10779832  0.06831561  0.0680873 0.0000
  7   -211.7073535984  -0.034517667793 1.02766060  0.07722302  0.0410462 0.0000
  8   -211.7263674854  -0.019013886948 0.55462350  0.02458077  0.0335141 0.0000
  9   -211.7320060918  -0.005638606399 0.85291219  0.03633493  0.0291147 0.0000
 10   -211.7384722773  -0.006466185543 1.24496226  0.05087495  0.0221817 0.0000
 11   -211.7436638845  -0.005191607246 0.68741179  0.02848991  0.0130894 0.0000
 12   -211.7453382865  -0.001674401909 0.31490536  0.01529976  0.0074945 0.0000
 13   -211.7459801172  -0.000641830703 0.09661916  0.00586198  0.0032922 0.0000
 14   -211.7461311248  -0.000151007660 0.11277560  0.00525390  0.0020380 0.0000
 15   -211.7461745522  -0.000043427388 0.07654324  0.00330298  0.0014447 0.0000
 16   -211.7461910432  -0.000016490989 0.04295308  0.00184770  0.0011107 0.0000
 17   -211.7461987311  -0.000007687930 0.06757388  0.00286243  0.0009313 0.0000
 18   -211.7462076356  -0.000008904424 0.07566961  0.00315261  0.0006318 0.0000
 19   -211.7462128067  -0.000005171156 0.02884999  0.00116323  0.0002783 0.0000
 20   -211.7462136076  -0.000000800852 0.01097563  0.00043013  0.0001309 0.0000
                 **** Energy Check signals convergence ****

               *****************************************************
               *                     SUCCESS                       *
               *           SCF CONVERGED AFTER  21 CYCLES          *
               *****************************************************


----------------
TOTAL SCF ENERGY
----------------

Total Energy       :         -211.74621382 Eh           -5761.90741 eV

Components:
Nuclear Repulsion  :            0.00000000 Eh               0.00000 eV
Electronic Energy  :         -211.74621382 Eh           -5761.90741 eV
One Electron Energy:         -333.40727758 Eh           -9072.47326 eV
Two Electron Energy:          121.66106377 Eh            3310.56585 eV

Virial components:
Potential Energy   :         -269.30777014 Eh           -7328.23699 eV
Kinetic Energy     :           57.56155632 Eh            1566.32958 eV
Virial Ratio       :            4.67860474


---------------
SCF CONVERGENCE
---------------

  Last Energy change         ...   -2.1105e-07  Tolerance :   1.0000e-06
  Last MAX-Density change    ...    5.1532e-03  Tolerance :   1.0000e-05
  Last RMS-Density change    ...    2.0137e-04  Tolerance :   1.0000e-06
  Last DIIS Error            ...    6.5933e-05  Tolerance :   1.0000e-06

             **** THE GBW FILE WAS UPDATED (84_Po_atom84.gbw) ****
             **** DENSITY FILE WAS UPDATED (84_Po_atom84.scfp) ****
             **** ENERGY FILE WAS UPDATED (84_Po_atom84.en.tmp) ****
             **** THE GBW FILE WAS UPDATED (84_Po_atom84.gbw) ****
             **** DENSITY FILE WAS UPDATED (84_Po_atom84.scfp) ****
----------------
ORBITAL ENERGIES
----------------

  NO   OCC          E(Eh)            E(eV) 
   0   2.0000     -10.881666      -296.1052 
   1   2.0000      -7.980011      -217.1471 
   2   2.0000      -7.980011      -217.1471 
   3   2.0000      -7.974357      -216.9933 
   4   2.0000      -2.939017       -79.9747 
   5   2.0000      -1.936236       -52.6877 
   6   2.0000      -1.936236       -52.6877 
   7   2.0000      -1.926998       -52.4363 
   8   2.0000      -0.624095       -16.9825 
   9   2.0000      -0.334706        -9.1078 
  10   1.3333      -0.351468        -9.5639 
  11   1.3333      -0.351468        -9.5639 
  12   1.3333      -0.091479        -2.4893 
  13   0.0000       0.003862         0.1051 
  14   0.0000       0.003862         0.1051 
  15   0.0000       0.007850         0.2136 
  16   0.0000       0.182537         4.9671 
  17   0.0000       0.182537         4.9671 
  18   0.0000       0.191757         5.2180 
  19   0.0000       0.266867         7.2618 
  20   0.0000       0.973575        26.4923 
  21   0.0000       0.973575        26.4923 
  22   0.0000       0.988167        26.8894 
  23   0.0000       1.249367        33.9970 
  24   0.0000      10.552401       287.1454 
  25   0.0000      32.018162       871.2585 
  26   0.0000      32.018162       871.2585 
  27   0.0000      32.021662       871.3537 
  28   0.0000      73.647771      2004.0577 
CleanUpVectors: The p-vectors have cracked symmetry
CleanUpVectors: The p-vectors have cracked symmetry
CleanUpVectors: The p-vectors have cracked symmetry
CleanUpVectors: The p-vectors have cracked symmetry
CleanUpVectors: The p-vectors have cracked symmetry
CleanUpVectors: The p-vectors have cracked symmetry
CleanUpVectors: The p-vectors have cracked symmetry
CleanUpVectors: The p-vectors have cracked symmetry
CleanUpVectors: The p-vectors have cracked symmetry
CleanUpVectors: The p-vectors have cracked symmetry
CleanUpVectors: The p-vectors have cracked symmetry
CleanUpVectors: The p-vectors have cracked symmetry
CleanUpVectors: The p-vectors have cracked symmetry
CleanUpVectors: The p-vectors have cracked symmetry
CleanUpVectors: The p-vectors have cracked symmetry
CleanUpVectors: The p-vectors have cracked symmetry
CleanUpVectors: The p-vectors have cracked symmetry
CleanUpVectors: The p-vectors have cracked symmetry
CleanUpVectors: The p-vectors have cracked symmetry
CleanUpVectors: The p-vectors have cracked symmetry
--------------------------
ATOM BASIS FOR ELEMENT Po
--------------------------
 NewGTO Po
 S 18
    1       8913.290000000001         0.000050320398
    2       1338.980000000000         0.000354384157
    3        299.538000000000         0.001243021239
    4         51.148900000000         0.008457041128
    5         23.015600000000        -0.159897926208
    6         14.376500000000         0.683331919801
    7          8.982790000000        -0.660678098704
    8          5.612920000000        -0.647952387771
    9          2.164840000000         0.830914192924
   10          1.175380000000         0.726642691877
   11         14.787766907000         0.027656208289
   12         11.958781204000        -0.047416290780
   13          2.479845506600         0.091018752972
   14          0.554814777900        -0.183629347075
   15          0.285817352000         0.147371448396
   16          0.138494394700        -0.080060160763
   17          0.064954523800         0.033434191797
   18          0.029031304700        -0.008169749993
 P 33
    1        113.557000000000        -0.000019340778
    2         20.363900000000         0.000912315003
    3         12.727400000000        -0.008734635266
    4          7.949840000000         0.019925649313
    5          4.964770000000         0.001589841952
    6          2.301300000000        -0.028288861671
    7          1.195450000000        -0.025498941925
    8        113.557000000000        -0.000377011485
    9         20.363900000000         0.017783836452
   10         12.727400000000        -0.170265012123
   11          7.949840000000         0.388412431477
   12          4.964770000000         0.030990928750
   13          2.301300000000        -0.551437264237
   14          1.195450000000        -0.497053113686
   15        113.557000000000         0.000235229962
   16         20.363900000000        -0.011095925038
   17         12.727400000000         0.106233984784
   18          7.949840000000        -0.242343390584
   19          4.964770000000        -0.019336267694
   20          2.301300000000         0.344059987476
   21          1.195450000000         0.310127913292
   22          8.468130000000         0.003772588201
   23          7.796201700000        -0.004519926338
   24          0.668717580000        -0.007283134689
   25          8.468130000000         0.073539393031
   26          7.796201700000        -0.088107320951
   27          0.668717580000        -0.141970783928
   28          8.468130000000        -0.045883664899
   29          7.796201700000         0.054973078007
   30          0.668717580000         0.088580277954
   31          0.591524239300         0.011781573999
   32          0.591524239300         0.229659256364
   33          0.591524239300        -0.143292022489
 S 18
    1       8913.290000000001         0.000034190989
    2       1338.980000000000         0.000240791913
    3        299.538000000000         0.000844590414
    4         51.148900000000         0.005746270174
    5         23.015600000000        -0.108645171556
    6         14.376500000000         0.464300666164
    7          8.982790000000        -0.448908169601
    8          5.612920000000        -0.440261484305
    9          2.164840000000         0.564577772705
   10          1.175380000000         1.332235674026
   11         14.787766907000         0.111936770952
   12         11.958781204000        -0.191914467268
   13          2.479845506600         0.368392702183
   14          0.554814777900        -1.954012617089
   15          0.285817352000         0.043673201977
   16          0.138494394700        -0.252864318177
   17          0.064954523800         0.106614650320
   18          0.029031304700        -0.026118867552
 P 33
    1        113.557000000000         0.000064941854
    2         20.363900000000        -0.003063342511
    3         12.727400000000         0.029328882503
    4          7.949840000000        -0.066905716116
    5          4.964770000000        -0.005338321107
    6          2.301300000000         0.094987446505
    7          1.195450000000         0.085619542074
    8        113.557000000000        -0.000010327428
    9         20.363900000000         0.000487150368
   10         12.727400000000        -0.004664047798
   11          7.949840000000         0.010639732280
   12          4.964770000000         0.000848930565
   13          2.301300000000        -0.015105450766
   14          1.195450000000        -0.013615712655
   15        113.557000000000         0.000385658582
   16         20.363900000000        -0.018191724671
   17         12.727400000000         0.174170192689
   18          7.949840000000        -0.397321018509
   19          4.964770000000        -0.031701733460
   20          2.301300000000         0.564084971836
   21          1.195450000000         0.508453472078
   22          8.468130000000        -0.081081195892
   23          7.796201700000         0.097143131798
   24          0.668717580000         0.156530540546
   25          8.468130000000         0.012893998709
   26          7.796201700000        -0.015448260256
   27          0.668717580000        -0.024892388002
   28          8.468130000000        -0.481502406731
   29          7.796201700000         0.576886554807
   30          0.668717580000         0.929559945072
   31          0.591524239300        -0.353452833119
   32          0.591524239300         0.056208105022
   33          0.591524239300        -2.098987168848
 S 18
    1       8913.290000000001        -0.000007863118
    2       1338.980000000000        -0.000055376440
    3        299.538000000000        -0.000194235803
    4         51.148900000000        -0.001321506116
    5         23.015600000000         0.024985817652
    6         14.376500000000        -0.106778162474
    7          8.982790000000         0.103238252630
    8          5.612920000000         0.101249719692
    9          2.164840000000        -0.129839523258
   10          1.175380000000        -0.514130497283
   11         14.787766907000        -0.031875771979
   12         11.958781204000         0.054650690260
   13          2.479845506600        -0.104905668383
   14          0.554814777900         1.252918378820
   15          0.285817352000        -0.467212262370
   16          0.138494394700         0.215317042078
   17          0.064954523800        -2.246820718253
   18          0.029031304700         2.347073947765
 S 18
    1       8913.290000000001         0.000010386589
    2       1338.980000000000         0.000073148120
    3        299.538000000000         0.000256570912
    4         51.148900000000         0.001745610360
    5         23.015600000000        -0.033004389155
    6         14.376500000000         0.141045935603
    7          8.982790000000        -0.136369980479
    8          5.612920000000        -0.133743277770
    9          2.164840000000         0.171508261725
   10          1.175380000000         0.390693158102
   11         14.787766907000         0.071320864210
   12         11.958781204000        -0.122278903916
   13          2.479845506600         0.234722564040
   14          0.554814777900        -0.175538846980
   15          0.285817352000        -4.097128826354
   16          0.138494394700         9.064394351141
   17          0.064954523800        -8.201435240734
   18          0.029031304700         2.974683038519
 S 18
    1       8913.290000000001        -0.000033045843
    2       1338.980000000000        -0.000232727154
    3        299.538000000000        -0.000816302846
    4         51.148900000000        -0.005553812373
    5         23.015600000000         0.105006357147
    6         14.376500000000        -0.448750007723
    7          8.982790000000         0.433873046618
    8          5.612920000000         0.425515961703
    9          2.164840000000        -0.545668568505
   10          1.175380000000        -3.600068338000
   11         14.787766907000        -0.073537539497
   12         11.958781204000         0.126079371387
   13          2.479845506600        -0.242017816458
   14          0.554814777900        12.960117634012
   15          0.285817352000       -17.905268347698
   16          0.138494394700        13.567785828277
   17          0.064954523800        -6.379510310458
   18          0.029031304700         1.558680479948
 S 18
    1       8913.290000000001         0.000043145210
    2       1338.980000000000         0.000303852502
    3        299.538000000000         0.001065778776
    4         51.148900000000         0.007251151192
    5         23.015600000000        -0.137098072561
    6         14.376500000000         0.585895585676
    7          8.982790000000        -0.566471974112
    8          5.612920000000        -0.555560822965
    9          2.164840000000         0.712434094768
   10          1.175380000000        12.172727740943
   11         14.787766907000        -2.024044592033
   12         11.958781204000         3.470204083104
   13          2.479845506600        -6.661289675039
   14          0.554814777900       -14.697677943982
   15          0.285817352000        12.037962878412
   16          0.138494394700        -6.657601806751
   17          0.064954523800         2.756056157215
   18          0.029031304700        -0.664791730784
 P 33
    1        113.557000000000        -0.000034049682
    2         20.363900000000         0.001606141995
    3         12.727400000000        -0.015377434838
    4          7.949840000000         0.035079355300
    5          4.964770000000         0.002798936678
    6          2.301300000000        -0.049802895454
    7          1.195450000000        -0.044891206781
    8        113.557000000000         0.000503947436
    9         20.363900000000        -0.023771474149
   10         12.727400000000         0.227591518009
   11          7.949840000000        -0.519186965022
   12          4.964770000000        -0.041425260720
   13          2.301300000000         0.737100608573
   14          1.195450000000         0.664405865095
   15        113.557000000000        -0.000661386530
   16         20.363900000000         0.031197961698
   17         12.727400000000        -0.298693779658
   18          7.949840000000         0.681387067007
   19          4.964770000000         0.054366998410
   20          2.301300000000        -0.967379490630
   21          1.195450000000        -0.871974056013
   22          8.468130000000        -0.205838740265
   23          7.796201700000         0.246614762580
   24          0.668717580000         0.397380045084
   25          8.468130000000         3.046486742088
   26          7.796201700000        -3.649986409915
   27          0.668717580000        -5.881366342206
   28          8.468130000000        -3.998244959364
   29          7.796201700000         4.790285007177
   30          0.668717580000         7.718774221804
   31          0.591524239300        -0.358541724479
   32          0.591524239300         5.306545350519
   33          0.591524239300        -6.964372405181
 P 33
    1        113.557000000000         0.000032894959
    2         20.363900000000        -0.001551673071
    3         12.727400000000         0.014855941510
    4          7.949840000000        -0.033889712819
    5          4.964770000000        -0.002704016633
    6          2.301300000000         0.048113935107
    7          1.195450000000         0.043368816015
    8        113.557000000000        -0.000005230414
    9         20.363900000000         0.000246721485
   10         12.727400000000        -0.002362147043
   11          7.949840000000         0.005388583745
   12          4.964770000000         0.000429948172
   13          2.301300000000        -0.007650285206
   14          1.195450000000        -0.006895794552
   15        113.557000000000         0.000195346740
   16         20.363900000000        -0.009214611761
   17         12.727400000000         0.088222020451
   18          7.949840000000        -0.201254086473
   19          4.964770000000        -0.016057804923
   20          2.301300000000         0.285724641818
   21          1.195450000000         0.257545748325
   22          8.468130000000        -0.049322850222
   23          7.796201700000         0.059093555380
   24          0.668717580000         0.095219764848
   25          8.468130000000         0.007842506969
   26          7.796201700000        -0.009396083515
   27          0.668717580000        -0.015140278107
   28          8.468130000000        -0.292903785188
   29          7.796201700000         0.350927125524
   30          0.668717580000         0.565462649126
   31          0.591524239300        -0.243608453793
   32          0.591524239300         0.038734602481
   33          0.591524239300        -1.446668996198
 P 33
    1        113.557000000000         0.000009645227
    2         20.363900000000        -0.000454970608
    3         12.727400000000         0.004355954142
    4          7.949840000000        -0.009936902001
    5          4.964770000000        -0.000792852641
    6          2.301300000000         0.014107627898
    7          1.195450000000         0.012716297625
    8        113.557000000000        -0.000001533809
    9         20.363900000000         0.000072350613
   10         12.727400000000        -0.000692695188
   11          7.949840000000         0.001580192072
   12          4.964770000000         0.000126081495
   13          2.301300000000        -0.002243431781
   14          1.195450000000        -0.002022178812
   15        113.557000000000         0.000057278359
   16         20.363900000000        -0.002701851313
   17         12.727400000000         0.025867913698
   18          7.949840000000        -0.059010475091
   19          4.964770000000        -0.004708369972
   20          2.301300000000         0.083778407457
   21          1.195450000000         0.075515967067
   22          8.468130000000        -0.015018308135
   23          7.796201700000         0.017993388856
   24          0.668717580000         0.028993453595
   25          8.468130000000         0.002388250528
   26          7.796201700000        -0.002861355623
   27          0.668717580000        -0.004610614606
   28          8.468130000000        -0.089186498775
   29          7.796201700000         0.106854070290
   30          0.668717580000         0.172178156836
   31          0.591524239300        -0.078161187955
   32          0.591524239300         0.012429395953
   33          0.591524239300        -0.464161650633
 P 30
    1        113.557000000000         0.000019594212
    2         20.363900000000        -0.000924269598
    3         12.727400000000         0.008849090282
    4          7.949840000000        -0.020186746706
    5          4.964770000000        -0.001610674577
    6          2.301300000000         0.028659547109
    7          1.195450000000         0.025833069419
    8        113.557000000000         0.000123216515
    9         20.363900000000        -0.005812189912
   10         12.727400000000         0.055646743520
   11          7.949840000000        -0.126942621298
   12          4.964770000000        -0.010128588617
   13          2.301300000000         0.180223098261
   14          1.195450000000         0.162449036288
   15          8.468130000000        -0.029042064175
   16          7.796201700000         0.034795207900
   17          0.668717580000         0.056066883991
   18          8.468130000000        -0.182628523950
   19          7.796201700000         0.218806673692
   20          0.668717580000         0.352571780159
   21          0.591524239300        -0.131078686892
   22          0.591524239300        -0.824277054272
   23          0.244448438000        -0.118770644526
   24          0.244448438000        -0.746878987923
   25          0.110189224600         0.467081410793
   26          0.110189224600         2.937201298880
   27          0.048149776000        -0.480249462865
   28          0.048149776000        -3.020007462339
   29          0.016630967800         0.169354757295
   30          0.016630967800         1.064972832585
 P 30
    1        113.557000000000         0.000070432453
    2         20.363900000000        -0.003322337047
    3         12.727400000000         0.031808533499
    4          7.949840000000        -0.072562352559
    5          4.964770000000        -0.005789656859
    6          2.301300000000         0.103018291740
    7          1.195450000000         0.092858364853
    8        113.557000000000         0.000442908426
    9         20.363900000000        -0.020892230908
   10         12.727400000000         0.200025228432
   11          7.949840000000        -0.456302116115
   12          4.964770000000        -0.036407759440
   13          2.301300000000         0.647821671461
   14          1.195450000000         0.583931844647
   15          8.468130000000        -0.124996615021
   16          7.796201700000         0.149758060591
   17          0.668717580000         0.241311040130
   18          8.468130000000        -0.786030468006
   19          7.796201700000         0.941740689813
   20          0.668717580000         1.517463731128
   21          0.591524239300        -0.784470443214
   22          0.591524239300        -4.933074943770
   23          0.244448438000         0.825423412265
   24          0.244448438000         5.190604169054
   25          0.110189224600        -0.682590736030
   26          0.110189224600        -4.292413163414
   27          0.048149776000         0.310930261782
   28          0.048149776000         1.955258221547
   29          0.016630967800        -0.073311339164
   30          0.016630967800        -0.461012053998
 P 33
    1        113.557000000000        -0.000810239538
    2         20.363900000000         0.038219438912
    3         12.727400000000        -0.365918414011
    4          7.949840000000         0.834741437105
    5          4.964770000000         0.066602946521
    6          2.301300000000        -1.185099901855
    7          1.195450000000        -1.068222324548
    8        113.557000000000         0.000128846405
    9         20.363900000000        -0.006077754894
   10         12.727400000000         0.058189300916
   11          7.949840000000        -0.132742761258
   12          4.964770000000        -0.010591374330
   13          2.301300000000         0.188457678445
   14          1.195450000000         0.169871501156
   15        113.557000000000         0.000139888265
   16         20.363900000000        -0.006598605422
   17         12.727400000000         0.063175998899
   18          7.949840000000        -0.144118530505
   19          4.964770000000        -0.011499032339
   20          2.301300000000         0.204608096310
   21          1.195450000000         0.184429123586
   22          8.468130000000        -4.897661714297
   23          7.796201700000         5.867873459148
   24          0.668717580000         9.455134783300
   25          8.468130000000         0.778838944331
   26          7.796201700000        -0.933124547384
   27          0.668717580000        -1.503580202699
   28          8.468130000000         0.845583767379
   29          7.796201700000        -1.013091314904
   30          0.668717580000        -1.632433793417
   31          0.591524239300        -8.530767374970
   32          0.591524239300         1.356584885654
   33          0.591524239300         1.472841293736
 end
  // -----------------------------------------------
  // The basis set
  // -----------------------------------------------
  BAS[ATNO] = new BFNGauss[NSH];
  // Basis function   1 L = s
  InitBFNGauss(BAS[ATNO][  0]);
  BAS[ATNO][  0].l  = 0;
  BAS[ATNO][  0].ng = 18;
  BAS[ATNO][  0].a[  0] =      8913.290000000001;     BAS[ATNO][  0].d[  0] =         0.000050320398;
  BAS[ATNO][  0].a[  1] =      1338.980000000000;     BAS[ATNO][  0].d[  1] =         0.000354384157;
  BAS[ATNO][  0].a[  2] =       299.538000000000;     BAS[ATNO][  0].d[  2] =         0.001243021239;
  BAS[ATNO][  0].a[  3] =        51.148900000000;     BAS[ATNO][  0].d[  3] =         0.008457041128;
  BAS[ATNO][  0].a[  4] =        23.015600000000;     BAS[ATNO][  0].d[  4] =        -0.159897926208;
  BAS[ATNO][  0].a[  5] =        14.376500000000;     BAS[ATNO][  0].d[  5] =         0.683331919801;
  BAS[ATNO][  0].a[  6] =         8.982790000000;     BAS[ATNO][  0].d[  6] =        -0.660678098704;
  BAS[ATNO][  0].a[  7] =         5.612920000000;     BAS[ATNO][  0].d[  7] =        -0.647952387771;
  BAS[ATNO][  0].a[  8] =         2.164840000000;     BAS[ATNO][  0].d[  8] =         0.830914192924;
  BAS[ATNO][  0].a[  9] =         1.175380000000;     BAS[ATNO][  0].d[  9] =         0.726642691877;
  BAS[ATNO][  0].a[ 10] =        14.787766907000;     BAS[ATNO][  0].d[ 10] =         0.027656208289;
  BAS[ATNO][  0].a[ 11] =        11.958781204000;     BAS[ATNO][  0].d[ 11] =        -0.047416290780;
  BAS[ATNO][  0].a[ 12] =         2.479845506600;     BAS[ATNO][  0].d[ 12] =         0.091018752972;
  BAS[ATNO][  0].a[ 13] =         0.554814777900;     BAS[ATNO][  0].d[ 13] =        -0.183629347075;
  BAS[ATNO][  0].a[ 14] =         0.285817352000;     BAS[ATNO][  0].d[ 14] =         0.147371448396;
  BAS[ATNO][  0].a[ 15] =         0.138494394700;     BAS[ATNO][  0].d[ 15] =        -0.080060160763;
  BAS[ATNO][  0].a[ 16] =         0.064954523800;     BAS[ATNO][  0].d[ 16] =         0.033434191797;
  BAS[ATNO][  0].a[ 17] =         0.029031304700;     BAS[ATNO][  0].d[ 17] =        -0.008169749993;

  // Basis function   2 L = p
  InitBFNGauss(BAS[ATNO][  1]);
  BAS[ATNO][  1].l  = 1;
  BAS[ATNO][  1].ng = 33;
  BAS[ATNO][  1].a[  0] =       113.557000000000;     BAS[ATNO][  1].d[  0] =         0.000019340778;
  BAS[ATNO][  1].a[  1] =        20.363900000000;     BAS[ATNO][  1].d[  1] =        -0.000912315003;
  BAS[ATNO][  1].a[  2] =        12.727400000000;     BAS[ATNO][  1].d[  2] =         0.008734635266;
  BAS[ATNO][  1].a[  3] =         7.949840000000;     BAS[ATNO][  1].d[  3] =        -0.019925649313;
  BAS[ATNO][  1].a[  4] =         4.964770000000;     BAS[ATNO][  1].d[  4] =        -0.001589841952;
  BAS[ATNO][  1].a[  5] =         2.301300000000;     BAS[ATNO][  1].d[  5] =         0.028288861671;
  BAS[ATNO][  1].a[  6] =         1.195450000000;     BAS[ATNO][  1].d[  6] =         0.025498941925;
  BAS[ATNO][  1].a[  7] =       113.557000000000;     BAS[ATNO][  1].d[  7] =         0.000377011485;
  BAS[ATNO][  1].a[  8] =        20.363900000000;     BAS[ATNO][  1].d[  8] =        -0.017783836452;
  BAS[ATNO][  1].a[  9] =        12.727400000000;     BAS[ATNO][  1].d[  9] =         0.170265012123;
  BAS[ATNO][  1].a[ 10] =         7.949840000000;     BAS[ATNO][  1].d[ 10] =        -0.388412431477;
  BAS[ATNO][  1].a[ 11] =         4.964770000000;     BAS[ATNO][  1].d[ 11] =        -0.030990928750;
  BAS[ATNO][  1].a[ 12] =         2.301300000000;     BAS[ATNO][  1].d[ 12] =         0.551437264237;
  BAS[ATNO][  1].a[ 13] =         1.195450000000;     BAS[ATNO][  1].d[ 13] =         0.497053113686;
  BAS[ATNO][  1].a[ 14] =       113.557000000000;     BAS[ATNO][  1].d[ 14] =        -0.000235229962;
  BAS[ATNO][  1].a[ 15] =        20.363900000000;     BAS[ATNO][  1].d[ 15] =         0.011095925038;
  BAS[ATNO][  1].a[ 16] =        12.727400000000;     BAS[ATNO][  1].d[ 16] =        -0.106233984784;
  BAS[ATNO][  1].a[ 17] =         7.949840000000;     BAS[ATNO][  1].d[ 17] =         0.242343390584;
  BAS[ATNO][  1].a[ 18] =         4.964770000000;     BAS[ATNO][  1].d[ 18] =         0.019336267694;
  BAS[ATNO][  1].a[ 19] =         2.301300000000;     BAS[ATNO][  1].d[ 19] =        -0.344059987476;
  BAS[ATNO][  1].a[ 20] =         1.195450000000;     BAS[ATNO][  1].d[ 20] =        -0.310127913292;
  BAS[ATNO][  1].a[ 21] =         8.468130000000;     BAS[ATNO][  1].d[ 21] =        -0.003772588201;
  BAS[ATNO][  1].a[ 22] =         7.796201700000;     BAS[ATNO][  1].d[ 22] =         0.004519926338;
  BAS[ATNO][  1].a[ 23] =         0.668717580000;     BAS[ATNO][  1].d[ 23] =         0.007283134689;
  BAS[ATNO][  1].a[ 24] =         8.468130000000;     BAS[ATNO][  1].d[ 24] =        -0.073539393031;
  BAS[ATNO][  1].a[ 25] =         7.796201700000;     BAS[ATNO][  1].d[ 25] =         0.088107320951;
  BAS[ATNO][  1].a[ 26] =         0.668717580000;     BAS[ATNO][  1].d[ 26] =         0.141970783928;
  BAS[ATNO][  1].a[ 27] =         8.468130000000;     BAS[ATNO][  1].d[ 27] =         0.045883664899;
  BAS[ATNO][  1].a[ 28] =         7.796201700000;     BAS[ATNO][  1].d[ 28] =        -0.054973078007;
  BAS[ATNO][  1].a[ 29] =         0.668717580000;     BAS[ATNO][  1].d[ 29] =        -0.088580277954;
  BAS[ATNO][  1].a[ 30] =         0.591524239300;     BAS[ATNO][  1].d[ 30] =        -0.011781573999;
  BAS[ATNO][  1].a[ 31] =         0.591524239300;     BAS[ATNO][  1].d[ 31] =        -0.229659256364;
  BAS[ATNO][  1].a[ 32] =         0.591524239300;     BAS[ATNO][  1].d[ 32] =         0.143292022489;

  // Basis function   3 L = s
  InitBFNGauss(BAS[ATNO][  2]);
  BAS[ATNO][  2].l  = 0;
  BAS[ATNO][  2].ng = 18;
  BAS[ATNO][  2].a[  0] =      8913.290000000001;     BAS[ATNO][  2].d[  0] =        -0.000034190989;
  BAS[ATNO][  2].a[  1] =      1338.980000000000;     BAS[ATNO][  2].d[  1] =        -0.000240791913;
  BAS[ATNO][  2].a[  2] =       299.538000000000;     BAS[ATNO][  2].d[  2] =        -0.000844590414;
  BAS[ATNO][  2].a[  3] =        51.148900000000;     BAS[ATNO][  2].d[  3] =        -0.005746270174;
  BAS[ATNO][  2].a[  4] =        23.015600000000;     BAS[ATNO][  2].d[  4] =         0.108645171556;
  BAS[ATNO][  2].a[  5] =        14.376500000000;     BAS[ATNO][  2].d[  5] =        -0.464300666164;
  BAS[ATNO][  2].a[  6] =         8.982790000000;     BAS[ATNO][  2].d[  6] =         0.448908169601;
  BAS[ATNO][  2].a[  7] =         5.612920000000;     BAS[ATNO][  2].d[  7] =         0.440261484305;
  BAS[ATNO][  2].a[  8] =         2.164840000000;     BAS[ATNO][  2].d[  8] =        -0.564577772705;
  BAS[ATNO][  2].a[  9] =         1.175380000000;     BAS[ATNO][  2].d[  9] =        -1.332235674026;
  BAS[ATNO][  2].a[ 10] =        14.787766907000;     BAS[ATNO][  2].d[ 10] =        -0.111936770952;
  BAS[ATNO][  2].a[ 11] =        11.958781204000;     BAS[ATNO][  2].d[ 11] =         0.191914467268;
  BAS[ATNO][  2].a[ 12] =         2.479845506600;     BAS[ATNO][  2].d[ 12] =        -0.368392702183;
  BAS[ATNO][  2].a[ 13] =         0.554814777900;     BAS[ATNO][  2].d[ 13] =         1.954012617089;
  BAS[ATNO][  2].a[ 14] =         0.285817352000;     BAS[ATNO][  2].d[ 14] =        -0.043673201977;
  BAS[ATNO][  2].a[ 15] =         0.138494394700;     BAS[ATNO][  2].d[ 15] =         0.252864318177;
  BAS[ATNO][  2].a[ 16] =         0.064954523800;     BAS[ATNO][  2].d[ 16] =        -0.106614650320;
  BAS[ATNO][  2].a[ 17] =         0.029031304700;     BAS[ATNO][  2].d[ 17] =         0.026118867552;

  // Basis function   4 L = p
  InitBFNGauss(BAS[ATNO][  3]);
  BAS[ATNO][  3].l  = 1;
  BAS[ATNO][  3].ng = 33;
  BAS[ATNO][  3].a[  0] =       113.557000000000;     BAS[ATNO][  3].d[  0] =        -0.000064941854;
  BAS[ATNO][  3].a[  1] =        20.363900000000;     BAS[ATNO][  3].d[  1] =         0.003063342511;
  BAS[ATNO][  3].a[  2] =        12.727400000000;     BAS[ATNO][  3].d[  2] =        -0.029328882503;
  BAS[ATNO][  3].a[  3] =         7.949840000000;     BAS[ATNO][  3].d[  3] =         0.066905716116;
  BAS[ATNO][  3].a[  4] =         4.964770000000;     BAS[ATNO][  3].d[  4] =         0.005338321107;
  BAS[ATNO][  3].a[  5] =         2.301300000000;     BAS[ATNO][  3].d[  5] =        -0.094987446505;
  BAS[ATNO][  3].a[  6] =         1.195450000000;     BAS[ATNO][  3].d[  6] =        -0.085619542074;
  BAS[ATNO][  3].a[  7] =       113.557000000000;     BAS[ATNO][  3].d[  7] =         0.000010327428;
  BAS[ATNO][  3].a[  8] =        20.363900000000;     BAS[ATNO][  3].d[  8] =        -0.000487150368;
  BAS[ATNO][  3].a[  9] =        12.727400000000;     BAS[ATNO][  3].d[  9] =         0.004664047798;
  BAS[ATNO][  3].a[ 10] =         7.949840000000;     BAS[ATNO][  3].d[ 10] =        -0.010639732280;
  BAS[ATNO][  3].a[ 11] =         4.964770000000;     BAS[ATNO][  3].d[ 11] =        -0.000848930565;
  BAS[ATNO][  3].a[ 12] =         2.301300000000;     BAS[ATNO][  3].d[ 12] =         0.015105450766;
  BAS[ATNO][  3].a[ 13] =         1.195450000000;     BAS[ATNO][  3].d[ 13] =         0.013615712655;
  BAS[ATNO][  3].a[ 14] =       113.557000000000;     BAS[ATNO][  3].d[ 14] =        -0.000385658582;
  BAS[ATNO][  3].a[ 15] =        20.363900000000;     BAS[ATNO][  3].d[ 15] =         0.018191724671;
  BAS[ATNO][  3].a[ 16] =        12.727400000000;     BAS[ATNO][  3].d[ 16] =        -0.174170192689;
  BAS[ATNO][  3].a[ 17] =         7.949840000000;     BAS[ATNO][  3].d[ 17] =         0.397321018509;
  BAS[ATNO][  3].a[ 18] =         4.964770000000;     BAS[ATNO][  3].d[ 18] =         0.031701733460;
  BAS[ATNO][  3].a[ 19] =         2.301300000000;     BAS[ATNO][  3].d[ 19] =        -0.564084971836;
  BAS[ATNO][  3].a[ 20] =         1.195450000000;     BAS[ATNO][  3].d[ 20] =        -0.508453472078;
  BAS[ATNO][  3].a[ 21] =         8.468130000000;     BAS[ATNO][  3].d[ 21] =         0.081081195892;
  BAS[ATNO][  3].a[ 22] =         7.796201700000;     BAS[ATNO][  3].d[ 22] =        -0.097143131798;
  BAS[ATNO][  3].a[ 23] =         0.668717580000;     BAS[ATNO][  3].d[ 23] =        -0.156530540546;
  BAS[ATNO][  3].a[ 24] =         8.468130000000;     BAS[ATNO][  3].d[ 24] =        -0.012893998709;
  BAS[ATNO][  3].a[ 25] =         7.796201700000;     BAS[ATNO][  3].d[ 25] =         0.015448260256;
  BAS[ATNO][  3].a[ 26] =         0.668717580000;     BAS[ATNO][  3].d[ 26] =         0.024892388002;
  BAS[ATNO][  3].a[ 27] =         8.468130000000;     BAS[ATNO][  3].d[ 27] =         0.481502406731;
  BAS[ATNO][  3].a[ 28] =         7.796201700000;     BAS[ATNO][  3].d[ 28] =        -0.576886554807;
  BAS[ATNO][  3].a[ 29] =         0.668717580000;     BAS[ATNO][  3].d[ 29] =        -0.929559945072;
  BAS[ATNO][  3].a[ 30] =         0.591524239300;     BAS[ATNO][  3].d[ 30] =         0.353452833119;
  BAS[ATNO][  3].a[ 31] =         0.591524239300;     BAS[ATNO][  3].d[ 31] =        -0.056208105022;
  BAS[ATNO][  3].a[ 32] =         0.591524239300;     BAS[ATNO][  3].d[ 32] =         2.098987168848;

  // Basis function   5 L = s
  InitBFNGauss(BAS[ATNO][  4]);
  BAS[ATNO][  4].l  = 0;
  BAS[ATNO][  4].ng = 18;
  BAS[ATNO][  4].a[  0] =      8913.290000000001;     BAS[ATNO][  4].d[  0] =        -0.000007863118;
  BAS[ATNO][  4].a[  1] =      1338.980000000000;     BAS[ATNO][  4].d[  1] =        -0.000055376440;
  BAS[ATNO][  4].a[  2] =       299.538000000000;     BAS[ATNO][  4].d[  2] =        -0.000194235803;
  BAS[ATNO][  4].a[  3] =        51.148900000000;     BAS[ATNO][  4].d[  3] =        -0.001321506116;
  BAS[ATNO][  4].a[  4] =        23.015600000000;     BAS[ATNO][  4].d[  4] =         0.024985817652;
  BAS[ATNO][  4].a[  5] =        14.376500000000;     BAS[ATNO][  4].d[  5] =        -0.106778162474;
  BAS[ATNO][  4].a[  6] =         8.982790000000;     BAS[ATNO][  4].d[  6] =         0.103238252630;
  BAS[ATNO][  4].a[  7] =         5.612920000000;     BAS[ATNO][  4].d[  7] =         0.101249719692;
  BAS[ATNO][  4].a[  8] =         2.164840000000;     BAS[ATNO][  4].d[  8] =        -0.129839523258;
  BAS[ATNO][  4].a[  9] =         1.175380000000;     BAS[ATNO][  4].d[  9] =        -0.514130497283;
  BAS[ATNO][  4].a[ 10] =        14.787766907000;     BAS[ATNO][  4].d[ 10] =        -0.031875771979;
  BAS[ATNO][  4].a[ 11] =        11.958781204000;     BAS[ATNO][  4].d[ 11] =         0.054650690260;
  BAS[ATNO][  4].a[ 12] =         2.479845506600;     BAS[ATNO][  4].d[ 12] =        -0.104905668383;
  BAS[ATNO][  4].a[ 13] =         0.554814777900;     BAS[ATNO][  4].d[ 13] =         1.252918378820;
  BAS[ATNO][  4].a[ 14] =         0.285817352000;     BAS[ATNO][  4].d[ 14] =        -0.467212262370;
  BAS[ATNO][  4].a[ 15] =         0.138494394700;     BAS[ATNO][  4].d[ 15] =         0.215317042078;
  BAS[ATNO][  4].a[ 16] =         0.064954523800;     BAS[ATNO][  4].d[ 16] =        -2.246820718253;
  BAS[ATNO][  4].a[ 17] =         0.029031304700;     BAS[ATNO][  4].d[ 17] =         2.347073947765;

  // Basis function   6 L = s
  InitBFNGauss(BAS[ATNO][  5]);
  BAS[ATNO][  5].l  = 0;
  BAS[ATNO][  5].ng = 18;
  BAS[ATNO][  5].a[  0] =      8913.290000000001;     BAS[ATNO][  5].d[  0] =         0.000010386589;
  BAS[ATNO][  5].a[  1] =      1338.980000000000;     BAS[ATNO][  5].d[  1] =         0.000073148120;
  BAS[ATNO][  5].a[  2] =       299.538000000000;     BAS[ATNO][  5].d[  2] =         0.000256570912;
  BAS[ATNO][  5].a[  3] =        51.148900000000;     BAS[ATNO][  5].d[  3] =         0.001745610360;
  BAS[ATNO][  5].a[  4] =        23.015600000000;     BAS[ATNO][  5].d[  4] =        -0.033004389155;
  BAS[ATNO][  5].a[  5] =        14.376500000000;     BAS[ATNO][  5].d[  5] =         0.141045935603;
  BAS[ATNO][  5].a[  6] =         8.982790000000;     BAS[ATNO][  5].d[  6] =        -0.136369980479;
  BAS[ATNO][  5].a[  7] =         5.612920000000;     BAS[ATNO][  5].d[  7] =        -0.133743277770;
  BAS[ATNO][  5].a[  8] =         2.164840000000;     BAS[ATNO][  5].d[  8] =         0.171508261725;
  BAS[ATNO][  5].a[  9] =         1.175380000000;     BAS[ATNO][  5].d[  9] =         0.390693158102;
  BAS[ATNO][  5].a[ 10] =        14.787766907000;     BAS[ATNO][  5].d[ 10] =         0.071320864210;
  BAS[ATNO][  5].a[ 11] =        11.958781204000;     BAS[ATNO][  5].d[ 11] =        -0.122278903916;
  BAS[ATNO][  5].a[ 12] =         2.479845506600;     BAS[ATNO][  5].d[ 12] =         0.234722564040;
  BAS[ATNO][  5].a[ 13] =         0.554814777900;     BAS[ATNO][  5].d[ 13] =        -0.175538846980;
  BAS[ATNO][  5].a[ 14] =         0.285817352000;     BAS[ATNO][  5].d[ 14] =        -4.097128826354;
  BAS[ATNO][  5].a[ 15] =         0.138494394700;     BAS[ATNO][  5].d[ 15] =         9.064394351141;
  BAS[ATNO][  5].a[ 16] =         0.064954523800;     BAS[ATNO][  5].d[ 16] =        -8.201435240734;
  BAS[ATNO][  5].a[ 17] =         0.029031304700;     BAS[ATNO][  5].d[ 17] =         2.974683038519;

  // Basis function   7 L = s
  InitBFNGauss(BAS[ATNO][  6]);
  BAS[ATNO][  6].l  = 0;
  BAS[ATNO][  6].ng = 18;
  BAS[ATNO][  6].a[  0] =      8913.290000000001;     BAS[ATNO][  6].d[  0] =         0.000033045843;
  BAS[ATNO][  6].a[  1] =      1338.980000000000;     BAS[ATNO][  6].d[  1] =         0.000232727154;
  BAS[ATNO][  6].a[  2] =       299.538000000000;     BAS[ATNO][  6].d[  2] =         0.000816302846;
  BAS[ATNO][  6].a[  3] =        51.148900000000;     BAS[ATNO][  6].d[  3] =         0.005553812373;
  BAS[ATNO][  6].a[  4] =        23.015600000000;     BAS[ATNO][  6].d[  4] =        -0.105006357147;
  BAS[ATNO][  6].a[  5] =        14.376500000000;     BAS[ATNO][  6].d[  5] =         0.448750007723;
  BAS[ATNO][  6].a[  6] =         8.982790000000;     BAS[ATNO][  6].d[  6] =        -0.433873046618;
  BAS[ATNO][  6].a[  7] =         5.612920000000;     BAS[ATNO][  6].d[  7] =        -0.425515961703;
  BAS[ATNO][  6].a[  8] =         2.164840000000;     BAS[ATNO][  6].d[  8] =         0.545668568505;
  BAS[ATNO][  6].a[  9] =         1.175380000000;     BAS[ATNO][  6].d[  9] =         3.600068338000;
  BAS[ATNO][  6].a[ 10] =        14.787766907000;     BAS[ATNO][  6].d[ 10] =         0.073537539497;
  BAS[ATNO][  6].a[ 11] =        11.958781204000;     BAS[ATNO][  6].d[ 11] =        -0.126079371387;
  BAS[ATNO][  6].a[ 12] =         2.479845506600;     BAS[ATNO][  6].d[ 12] =         0.242017816458;
  BAS[ATNO][  6].a[ 13] =         0.554814777900;     BAS[ATNO][  6].d[ 13] =       -12.960117634012;
  BAS[ATNO][  6].a[ 14] =         0.285817352000;     BAS[ATNO][  6].d[ 14] =        17.905268347698;
  BAS[ATNO][  6].a[ 15] =         0.138494394700;     BAS[ATNO][  6].d[ 15] =       -13.567785828277;
  BAS[ATNO][  6].a[ 16] =         0.064954523800;     BAS[ATNO][  6].d[ 16] =         6.379510310458;
  BAS[ATNO][  6].a[ 17] =         0.029031304700;     BAS[ATNO][  6].d[ 17] =        -1.558680479948;

  // Basis function   8 L = s
  InitBFNGauss(BAS[ATNO][  7]);
  BAS[ATNO][  7].l  = 0;
  BAS[ATNO][  7].ng = 18;
  BAS[ATNO][  7].a[  0] =      8913.290000000001;     BAS[ATNO][  7].d[  0] =        -0.000043145210;
  BAS[ATNO][  7].a[  1] =      1338.980000000000;     BAS[ATNO][  7].d[  1] =        -0.000303852502;
  BAS[ATNO][  7].a[  2] =       299.538000000000;     BAS[ATNO][  7].d[  2] =        -0.001065778776;
  BAS[ATNO][  7].a[  3] =        51.148900000000;     BAS[ATNO][  7].d[  3] =        -0.007251151192;
  BAS[ATNO][  7].a[  4] =        23.015600000000;     BAS[ATNO][  7].d[  4] =         0.137098072561;
  BAS[ATNO][  7].a[  5] =        14.376500000000;     BAS[ATNO][  7].d[  5] =        -0.585895585676;
  BAS[ATNO][  7].a[  6] =         8.982790000000;     BAS[ATNO][  7].d[  6] =         0.566471974112;
  BAS[ATNO][  7].a[  7] =         5.612920000000;     BAS[ATNO][  7].d[  7] =         0.555560822965;
  BAS[ATNO][  7].a[  8] =         2.164840000000;     BAS[ATNO][  7].d[  8] =        -0.712434094768;
  BAS[ATNO][  7].a[  9] =         1.175380000000;     BAS[ATNO][  7].d[  9] =       -12.172727740943;
  BAS[ATNO][  7].a[ 10] =        14.787766907000;     BAS[ATNO][  7].d[ 10] =         2.024044592033;
  BAS[ATNO][  7].a[ 11] =        11.958781204000;     BAS[ATNO][  7].d[ 11] =        -3.470204083104;
  BAS[ATNO][  7].a[ 12] =         2.479845506600;     BAS[ATNO][  7].d[ 12] =         6.661289675039;
  BAS[ATNO][  7].a[ 13] =         0.554814777900;     BAS[ATNO][  7].d[ 13] =        14.697677943982;
  BAS[ATNO][  7].a[ 14] =         0.285817352000;     BAS[ATNO][  7].d[ 14] =       -12.037962878412;
  BAS[ATNO][  7].a[ 15] =         0.138494394700;     BAS[ATNO][  7].d[ 15] =         6.657601806751;
  BAS[ATNO][  7].a[ 16] =         0.064954523800;     BAS[ATNO][  7].d[ 16] =        -2.756056157215;
  BAS[ATNO][  7].a[ 17] =         0.029031304700;     BAS[ATNO][  7].d[ 17] =         0.664791730784;

  // Basis function   9 L = p
  InitBFNGauss(BAS[ATNO][  8]);
  BAS[ATNO][  8].l  = 1;
  BAS[ATNO][  8].ng = 33;
  BAS[ATNO][  8].a[  0] =       113.557000000000;     BAS[ATNO][  8].d[  0] =        -0.000034049682;
  BAS[ATNO][  8].a[  1] =        20.363900000000;     BAS[ATNO][  8].d[  1] =         0.001606141995;
  BAS[ATNO][  8].a[  2] =        12.727400000000;     BAS[ATNO][  8].d[  2] =        -0.015377434838;
  BAS[ATNO][  8].a[  3] =         7.949840000000;     BAS[ATNO][  8].d[  3] =         0.035079355300;
  BAS[ATNO][  8].a[  4] =         4.964770000000;     BAS[ATNO][  8].d[  4] =         0.002798936678;
  BAS[ATNO][  8].a[  5] =         2.301300000000;     BAS[ATNO][  8].d[  5] =        -0.049802895454;
  BAS[ATNO][  8].a[  6] =         1.195450000000;     BAS[ATNO][  8].d[  6] =        -0.044891206781;
  BAS[ATNO][  8].a[  7] =       113.557000000000;     BAS[ATNO][  8].d[  7] =         0.000503947436;
  BAS[ATNO][  8].a[  8] =        20.363900000000;     BAS[ATNO][  8].d[  8] =        -0.023771474149;
  BAS[ATNO][  8].a[  9] =        12.727400000000;     BAS[ATNO][  8].d[  9] =         0.227591518009;
  BAS[ATNO][  8].a[ 10] =         7.949840000000;     BAS[ATNO][  8].d[ 10] =        -0.519186965022;
  BAS[ATNO][  8].a[ 11] =         4.964770000000;     BAS[ATNO][  8].d[ 11] =        -0.041425260720;
  BAS[ATNO][  8].a[ 12] =         2.301300000000;     BAS[ATNO][  8].d[ 12] =         0.737100608573;
  BAS[ATNO][  8].a[ 13] =         1.195450000000;     BAS[ATNO][  8].d[ 13] =         0.664405865095;
  BAS[ATNO][  8].a[ 14] =       113.557000000000;     BAS[ATNO][  8].d[ 14] =        -0.000661386530;
  BAS[ATNO][  8].a[ 15] =        20.363900000000;     BAS[ATNO][  8].d[ 15] =         0.031197961698;
  BAS[ATNO][  8].a[ 16] =        12.727400000000;     BAS[ATNO][  8].d[ 16] =        -0.298693779658;
  BAS[ATNO][  8].a[ 17] =         7.949840000000;     BAS[ATNO][  8].d[ 17] =         0.681387067007;
  BAS[ATNO][  8].a[ 18] =         4.964770000000;     BAS[ATNO][  8].d[ 18] =         0.054366998410;
  BAS[ATNO][  8].a[ 19] =         2.301300000000;     BAS[ATNO][  8].d[ 19] =        -0.967379490630;
  BAS[ATNO][  8].a[ 20] =         1.195450000000;     BAS[ATNO][  8].d[ 20] =        -0.871974056013;
  BAS[ATNO][  8].a[ 21] =         8.468130000000;     BAS[ATNO][  8].d[ 21] =        -0.205838740265;
  BAS[ATNO][  8].a[ 22] =         7.796201700000;     BAS[ATNO][  8].d[ 22] =         0.246614762580;
  BAS[ATNO][  8].a[ 23] =         0.668717580000;     BAS[ATNO][  8].d[ 23] =         0.397380045084;
  BAS[ATNO][  8].a[ 24] =         8.468130000000;     BAS[ATNO][  8].d[ 24] =         3.046486742088;
  BAS[ATNO][  8].a[ 25] =         7.796201700000;     BAS[ATNO][  8].d[ 25] =        -3.649986409915;
  BAS[ATNO][  8].a[ 26] =         0.668717580000;     BAS[ATNO][  8].d[ 26] =        -5.881366342206;
  BAS[ATNO][  8].a[ 27] =         8.468130000000;     BAS[ATNO][  8].d[ 27] =        -3.998244959364;
  BAS[ATNO][  8].a[ 28] =         7.796201700000;     BAS[ATNO][  8].d[ 28] =         4.790285007177;
  BAS[ATNO][  8].a[ 29] =         0.668717580000;     BAS[ATNO][  8].d[ 29] =         7.718774221804;
  BAS[ATNO][  8].a[ 30] =         0.591524239300;     BAS[ATNO][  8].d[ 30] =        -0.358541724479;
  BAS[ATNO][  8].a[ 31] =         0.591524239300;     BAS[ATNO][  8].d[ 31] =         5.306545350519;
  BAS[ATNO][  8].a[ 32] =         0.591524239300;     BAS[ATNO][  8].d[ 32] =        -6.964372405181;

  // Basis function  10 L = p
  InitBFNGauss(BAS[ATNO][  9]);
  BAS[ATNO][  9].l  = 1;
  BAS[ATNO][  9].ng = 33;
  BAS[ATNO][  9].a[  0] =       113.557000000000;     BAS[ATNO][  9].d[  0] =        -0.000032894959;
  BAS[ATNO][  9].a[  1] =        20.363900000000;     BAS[ATNO][  9].d[  1] =         0.001551673071;
  BAS[ATNO][  9].a[  2] =        12.727400000000;     BAS[ATNO][  9].d[  2] =        -0.014855941510;
  BAS[ATNO][  9].a[  3] =         7.949840000000;     BAS[ATNO][  9].d[  3] =         0.033889712819;
  BAS[ATNO][  9].a[  4] =         4.964770000000;     BAS[ATNO][  9].d[  4] =         0.002704016633;
  BAS[ATNO][  9].a[  5] =         2.301300000000;     BAS[ATNO][  9].d[  5] =        -0.048113935107;
  BAS[ATNO][  9].a[  6] =         1.195450000000;     BAS[ATNO][  9].d[  6] =        -0.043368816015;
  BAS[ATNO][  9].a[  7] =       113.557000000000;     BAS[ATNO][  9].d[  7] =         0.000005230414;
  BAS[ATNO][  9].a[  8] =        20.363900000000;     BAS[ATNO][  9].d[  8] =        -0.000246721485;
  BAS[ATNO][  9].a[  9] =        12.727400000000;     BAS[ATNO][  9].d[  9] =         0.002362147043;
  BAS[ATNO][  9].a[ 10] =         7.949840000000;     BAS[ATNO][  9].d[ 10] =        -0.005388583745;
  BAS[ATNO][  9].a[ 11] =         4.964770000000;     BAS[ATNO][  9].d[ 11] =        -0.000429948172;
  BAS[ATNO][  9].a[ 12] =         2.301300000000;     BAS[ATNO][  9].d[ 12] =         0.007650285206;
  BAS[ATNO][  9].a[ 13] =         1.195450000000;     BAS[ATNO][  9].d[ 13] =         0.006895794552;
  BAS[ATNO][  9].a[ 14] =       113.557000000000;     BAS[ATNO][  9].d[ 14] =        -0.000195346740;
  BAS[ATNO][  9].a[ 15] =        20.363900000000;     BAS[ATNO][  9].d[ 15] =         0.009214611761;
  BAS[ATNO][  9].a[ 16] =        12.727400000000;     BAS[ATNO][  9].d[ 16] =        -0.088222020451;
  BAS[ATNO][  9].a[ 17] =         7.949840000000;     BAS[ATNO][  9].d[ 17] =         0.201254086473;
  BAS[ATNO][  9].a[ 18] =         4.964770000000;     BAS[ATNO][  9].d[ 18] =         0.016057804923;
  BAS[ATNO][  9].a[ 19] =         2.301300000000;     BAS[ATNO][  9].d[ 19] =        -0.285724641818;
  BAS[ATNO][  9].a[ 20] =         1.195450000000;     BAS[ATNO][  9].d[ 20] =        -0.257545748325;
  BAS[ATNO][  9].a[ 21] =         8.468130000000;     BAS[ATNO][  9].d[ 21] =         0.049322850222;
  BAS[ATNO][  9].a[ 22] =         7.796201700000;     BAS[ATNO][  9].d[ 22] =        -0.059093555380;
  BAS[ATNO][  9].a[ 23] =         0.668717580000;     BAS[ATNO][  9].d[ 23] =        -0.095219764848;
  BAS[ATNO][  9].a[ 24] =         8.468130000000;     BAS[ATNO][  9].d[ 24] =        -0.007842506969;
  BAS[ATNO][  9].a[ 25] =         7.796201700000;     BAS[ATNO][  9].d[ 25] =         0.009396083515;
  BAS[ATNO][  9].a[ 26] =         0.668717580000;     BAS[ATNO][  9].d[ 26] =         0.015140278107;
  BAS[ATNO][  9].a[ 27] =         8.468130000000;     BAS[ATNO][  9].d[ 27] =         0.292903785188;
  BAS[ATNO][  9].a[ 28] =         7.796201700000;     BAS[ATNO][  9].d[ 28] =        -0.350927125524;
  BAS[ATNO][  9].a[ 29] =         0.668717580000;     BAS[ATNO][  9].d[ 29] =        -0.565462649126;
  BAS[ATNO][  9].a[ 30] =         0.591524239300;     BAS[ATNO][  9].d[ 30] =         0.243608453793;
  BAS[ATNO][  9].a[ 31] =         0.591524239300;     BAS[ATNO][  9].d[ 31] =        -0.038734602481;
  BAS[ATNO][  9].a[ 32] =         0.591524239300;     BAS[ATNO][  9].d[ 32] =         1.446668996198;

  // Basis function  11 L = p
  InitBFNGauss(BAS[ATNO][ 10]);
  BAS[ATNO][ 10].l  = 1;
  BAS[ATNO][ 10].ng = 33;
  BAS[ATNO][ 10].a[  0] =       113.557000000000;     BAS[ATNO][ 10].d[  0] =        -0.000009645227;
  BAS[ATNO][ 10].a[  1] =        20.363900000000;     BAS[ATNO][ 10].d[  1] =         0.000454970608;
  BAS[ATNO][ 10].a[  2] =        12.727400000000;     BAS[ATNO][ 10].d[  2] =        -0.004355954142;
  BAS[ATNO][ 10].a[  3] =         7.949840000000;     BAS[ATNO][ 10].d[  3] =         0.009936902001;
  BAS[ATNO][ 10].a[  4] =         4.964770000000;     BAS[ATNO][ 10].d[  4] =         0.000792852641;
  BAS[ATNO][ 10].a[  5] =         2.301300000000;     BAS[ATNO][ 10].d[  5] =        -0.014107627898;
  BAS[ATNO][ 10].a[  6] =         1.195450000000;     BAS[ATNO][ 10].d[  6] =        -0.012716297625;
  BAS[ATNO][ 10].a[  7] =       113.557000000000;     BAS[ATNO][ 10].d[  7] =         0.000001533809;
  BAS[ATNO][ 10].a[  8] =        20.363900000000;     BAS[ATNO][ 10].d[  8] =        -0.000072350613;
  BAS[ATNO][ 10].a[  9] =        12.727400000000;     BAS[ATNO][ 10].d[  9] =         0.000692695188;
  BAS[ATNO][ 10].a[ 10] =         7.949840000000;     BAS[ATNO][ 10].d[ 10] =        -0.001580192072;
  BAS[ATNO][ 10].a[ 11] =         4.964770000000;     BAS[ATNO][ 10].d[ 11] =        -0.000126081495;
  BAS[ATNO][ 10].a[ 12] =         2.301300000000;     BAS[ATNO][ 10].d[ 12] =         0.002243431781;
  BAS[ATNO][ 10].a[ 13] =         1.195450000000;     BAS[ATNO][ 10].d[ 13] =         0.002022178812;
  BAS[ATNO][ 10].a[ 14] =       113.557000000000;     BAS[ATNO][ 10].d[ 14] =        -0.000057278359;
  BAS[ATNO][ 10].a[ 15] =        20.363900000000;     BAS[ATNO][ 10].d[ 15] =         0.002701851313;
  BAS[ATNO][ 10].a[ 16] =        12.727400000000;     BAS[ATNO][ 10].d[ 16] =        -0.025867913698;
  BAS[ATNO][ 10].a[ 17] =         7.949840000000;     BAS[ATNO][ 10].d[ 17] =         0.059010475091;
  BAS[ATNO][ 10].a[ 18] =         4.964770000000;     BAS[ATNO][ 10].d[ 18] =         0.004708369972;
  BAS[ATNO][ 10].a[ 19] =         2.301300000000;     BAS[ATNO][ 10].d[ 19] =        -0.083778407457;
  BAS[ATNO][ 10].a[ 20] =         1.195450000000;     BAS[ATNO][ 10].d[ 20] =        -0.075515967067;
  BAS[ATNO][ 10].a[ 21] =         8.468130000000;     BAS[ATNO][ 10].d[ 21] =         0.015018308135;
  BAS[ATNO][ 10].a[ 22] =         7.796201700000;     BAS[ATNO][ 10].d[ 22] =        -0.017993388856;
  BAS[ATNO][ 10].a[ 23] =         0.668717580000;     BAS[ATNO][ 10].d[ 23] =        -0.028993453595;
  BAS[ATNO][ 10].a[ 24] =         8.468130000000;     BAS[ATNO][ 10].d[ 24] =        -0.002388250528;
  BAS[ATNO][ 10].a[ 25] =         7.796201700000;     BAS[ATNO][ 10].d[ 25] =         0.002861355623;
  BAS[ATNO][ 10].a[ 26] =         0.668717580000;     BAS[ATNO][ 10].d[ 26] =         0.004610614606;
  BAS[ATNO][ 10].a[ 27] =         8.468130000000;     BAS[ATNO][ 10].d[ 27] =         0.089186498775;
  BAS[ATNO][ 10].a[ 28] =         7.796201700000;     BAS[ATNO][ 10].d[ 28] =        -0.106854070290;
  BAS[ATNO][ 10].a[ 29] =         0.668717580000;     BAS[ATNO][ 10].d[ 29] =        -0.172178156836;
  BAS[ATNO][ 10].a[ 30] =         0.591524239300;     BAS[ATNO][ 10].d[ 30] =         0.078161187955;
  BAS[ATNO][ 10].a[ 31] =         0.591524239300;     BAS[ATNO][ 10].d[ 31] =        -0.012429395953;
  BAS[ATNO][ 10].a[ 32] =         0.591524239300;     BAS[ATNO][ 10].d[ 32] =         0.464161650633;

  // Basis function  12 L = p
  InitBFNGauss(BAS[ATNO][ 11]);
  BAS[ATNO][ 11].l  = 1;
  BAS[ATNO][ 11].ng = 30;
  BAS[ATNO][ 11].a[  0] =       113.557000000000;     BAS[ATNO][ 11].d[  0] =        -0.000019594212;
  BAS[ATNO][ 11].a[  1] =        20.363900000000;     BAS[ATNO][ 11].d[  1] =         0.000924269598;
  BAS[ATNO][ 11].a[  2] =        12.727400000000;     BAS[ATNO][ 11].d[  2] =        -0.008849090282;
  BAS[ATNO][ 11].a[  3] =         7.949840000000;     BAS[ATNO][ 11].d[  3] =         0.020186746706;
  BAS[ATNO][ 11].a[  4] =         4.964770000000;     BAS[ATNO][ 11].d[  4] =         0.001610674577;
  BAS[ATNO][ 11].a[  5] =         2.301300000000;     BAS[ATNO][ 11].d[  5] =        -0.028659547109;
  BAS[ATNO][ 11].a[  6] =         1.195450000000;     BAS[ATNO][ 11].d[  6] =        -0.025833069419;
  BAS[ATNO][ 11].a[  7] =       113.557000000000;     BAS[ATNO][ 11].d[  7] =        -0.000123216515;
  BAS[ATNO][ 11].a[  8] =        20.363900000000;     BAS[ATNO][ 11].d[  8] =         0.005812189912;
  BAS[ATNO][ 11].a[  9] =        12.727400000000;     BAS[ATNO][ 11].d[  9] =        -0.055646743520;
  BAS[ATNO][ 11].a[ 10] =         7.949840000000;     BAS[ATNO][ 11].d[ 10] =         0.126942621298;
  BAS[ATNO][ 11].a[ 11] =         4.964770000000;     BAS[ATNO][ 11].d[ 11] =         0.010128588617;
  BAS[ATNO][ 11].a[ 12] =         2.301300000000;     BAS[ATNO][ 11].d[ 12] =        -0.180223098261;
  BAS[ATNO][ 11].a[ 13] =         1.195450000000;     BAS[ATNO][ 11].d[ 13] =        -0.162449036288;
  BAS[ATNO][ 11].a[ 14] =         8.468130000000;     BAS[ATNO][ 11].d[ 14] =         0.029042064175;
  BAS[ATNO][ 11].a[ 15] =         7.796201700000;     BAS[ATNO][ 11].d[ 15] =        -0.034795207900;
  BAS[ATNO][ 11].a[ 16] =         0.668717580000;     BAS[ATNO][ 11].d[ 16] =        -0.056066883991;
  BAS[ATNO][ 11].a[ 17] =         8.468130000000;     BAS[ATNO][ 11].d[ 17] =         0.182628523950;
  BAS[ATNO][ 11].a[ 18] =         7.796201700000;     BAS[ATNO][ 11].d[ 18] =        -0.218806673692;
  BAS[ATNO][ 11].a[ 19] =         0.668717580000;     BAS[ATNO][ 11].d[ 19] =        -0.352571780159;
  BAS[ATNO][ 11].a[ 20] =         0.591524239300;     BAS[ATNO][ 11].d[ 20] =         0.131078686892;
  BAS[ATNO][ 11].a[ 21] =         0.591524239300;     BAS[ATNO][ 11].d[ 21] =         0.824277054272;
  BAS[ATNO][ 11].a[ 22] =         0.244448438000;     BAS[ATNO][ 11].d[ 22] =         0.118770644526;
  BAS[ATNO][ 11].a[ 23] =         0.244448438000;     BAS[ATNO][ 11].d[ 23] =         0.746878987923;
  BAS[ATNO][ 11].a[ 24] =         0.110189224600;     BAS[ATNO][ 11].d[ 24] =        -0.467081410793;
  BAS[ATNO][ 11].a[ 25] =         0.110189224600;     BAS[ATNO][ 11].d[ 25] =        -2.937201298880;
  BAS[ATNO][ 11].a[ 26] =         0.048149776000;     BAS[ATNO][ 11].d[ 26] =         0.480249462865;
  BAS[ATNO][ 11].a[ 27] =         0.048149776000;     BAS[ATNO][ 11].d[ 27] =         3.020007462339;
  BAS[ATNO][ 11].a[ 28] =         0.016630967800;     BAS[ATNO][ 11].d[ 28] =        -0.169354757295;
  BAS[ATNO][ 11].a[ 29] =         0.016630967800;     BAS[ATNO][ 11].d[ 29] =        -1.064972832585;

  // Basis function  13 L = p
  InitBFNGauss(BAS[ATNO][ 12]);
  BAS[ATNO][ 12].l  = 1;
  BAS[ATNO][ 12].ng = 30;
  BAS[ATNO][ 12].a[  0] =       113.557000000000;     BAS[ATNO][ 12].d[  0] =         0.000070432453;
  BAS[ATNO][ 12].a[  1] =        20.363900000000;     BAS[ATNO][ 12].d[  1] =        -0.003322337047;
  BAS[ATNO][ 12].a[  2] =        12.727400000000;     BAS[ATNO][ 12].d[  2] =         0.031808533499;
  BAS[ATNO][ 12].a[  3] =         7.949840000000;     BAS[ATNO][ 12].d[  3] =        -0.072562352559;
  BAS[ATNO][ 12].a[  4] =         4.964770000000;     BAS[ATNO][ 12].d[  4] =        -0.005789656859;
  BAS[ATNO][ 12].a[  5] =         2.301300000000;     BAS[ATNO][ 12].d[  5] =         0.103018291740;
  BAS[ATNO][ 12].a[  6] =         1.195450000000;     BAS[ATNO][ 12].d[  6] =         0.092858364853;
  BAS[ATNO][ 12].a[  7] =       113.557000000000;     BAS[ATNO][ 12].d[  7] =         0.000442908426;
  BAS[ATNO][ 12].a[  8] =        20.363900000000;     BAS[ATNO][ 12].d[  8] =        -0.020892230908;
  BAS[ATNO][ 12].a[  9] =        12.727400000000;     BAS[ATNO][ 12].d[  9] =         0.200025228432;
  BAS[ATNO][ 12].a[ 10] =         7.949840000000;     BAS[ATNO][ 12].d[ 10] =        -0.456302116115;
  BAS[ATNO][ 12].a[ 11] =         4.964770000000;     BAS[ATNO][ 12].d[ 11] =        -0.036407759440;
  BAS[ATNO][ 12].a[ 12] =         2.301300000000;     BAS[ATNO][ 12].d[ 12] =         0.647821671461;
  BAS[ATNO][ 12].a[ 13] =         1.195450000000;     BAS[ATNO][ 12].d[ 13] =         0.583931844647;
  BAS[ATNO][ 12].a[ 14] =         8.468130000000;     BAS[ATNO][ 12].d[ 14] =        -0.124996615021;
  BAS[ATNO][ 12].a[ 15] =         7.796201700000;     BAS[ATNO][ 12].d[ 15] =         0.149758060591;
  BAS[ATNO][ 12].a[ 16] =         0.668717580000;     BAS[ATNO][ 12].d[ 16] =         0.241311040130;
  BAS[ATNO][ 12].a[ 17] =         8.468130000000;     BAS[ATNO][ 12].d[ 17] =        -0.786030468006;
  BAS[ATNO][ 12].a[ 18] =         7.796201700000;     BAS[ATNO][ 12].d[ 18] =         0.941740689813;
  BAS[ATNO][ 12].a[ 19] =         0.668717580000;     BAS[ATNO][ 12].d[ 19] =         1.517463731128;
  BAS[ATNO][ 12].a[ 20] =         0.591524239300;     BAS[ATNO][ 12].d[ 20] =        -0.784470443214;
  BAS[ATNO][ 12].a[ 21] =         0.591524239300;     BAS[ATNO][ 12].d[ 21] =        -4.933074943770;
  BAS[ATNO][ 12].a[ 22] =         0.244448438000;     BAS[ATNO][ 12].d[ 22] =         0.825423412265;
  BAS[ATNO][ 12].a[ 23] =         0.244448438000;     BAS[ATNO][ 12].d[ 23] =         5.190604169054;
  BAS[ATNO][ 12].a[ 24] =         0.110189224600;     BAS[ATNO][ 12].d[ 24] =        -0.682590736030;
  BAS[ATNO][ 12].a[ 25] =         0.110189224600;     BAS[ATNO][ 12].d[ 25] =        -4.292413163414;
  BAS[ATNO][ 12].a[ 26] =         0.048149776000;     BAS[ATNO][ 12].d[ 26] =         0.310930261782;
  BAS[ATNO][ 12].a[ 27] =         0.048149776000;     BAS[ATNO][ 12].d[ 27] =         1.955258221547;
  BAS[ATNO][ 12].a[ 28] =         0.016630967800;     BAS[ATNO][ 12].d[ 28] =        -0.073311339164;
  BAS[ATNO][ 12].a[ 29] =         0.016630967800;     BAS[ATNO][ 12].d[ 29] =        -0.461012053998;

  // Basis function  14 L = p
  InitBFNGauss(BAS[ATNO][ 13]);
  BAS[ATNO][ 13].l  = 1;
  BAS[ATNO][ 13].ng = 33;
  BAS[ATNO][ 13].a[  0] =       113.557000000000;     BAS[ATNO][ 13].d[  0] =        -0.000810239538;
  BAS[ATNO][ 13].a[  1] =        20.363900000000;     BAS[ATNO][ 13].d[  1] =         0.038219438912;
  BAS[ATNO][ 13].a[  2] =        12.727400000000;     BAS[ATNO][ 13].d[  2] =        -0.365918414011;
  BAS[ATNO][ 13].a[  3] =         7.949840000000;     BAS[ATNO][ 13].d[  3] =         0.834741437105;
  BAS[ATNO][ 13].a[  4] =         4.964770000000;     BAS[ATNO][ 13].d[  4] =         0.066602946521;
  BAS[ATNO][ 13].a[  5] =         2.301300000000;     BAS[ATNO][ 13].d[  5] =        -1.185099901855;
  BAS[ATNO][ 13].a[  6] =         1.195450000000;     BAS[ATNO][ 13].d[  6] =        -1.068222324548;
  BAS[ATNO][ 13].a[  7] =       113.557000000000;     BAS[ATNO][ 13].d[  7] =         0.000128846405;
  BAS[ATNO][ 13].a[  8] =        20.363900000000;     BAS[ATNO][ 13].d[  8] =        -0.006077754894;
  BAS[ATNO][ 13].a[  9] =        12.727400000000;     BAS[ATNO][ 13].d[  9] =         0.058189300916;
  BAS[ATNO][ 13].a[ 10] =         7.949840000000;     BAS[ATNO][ 13].d[ 10] =        -0.132742761258;
  BAS[ATNO][ 13].a[ 11] =         4.964770000000;     BAS[ATNO][ 13].d[ 11] =        -0.010591374330;
  BAS[ATNO][ 13].a[ 12] =         2.301300000000;     BAS[ATNO][ 13].d[ 12] =         0.188457678445;
  BAS[ATNO][ 13].a[ 13] =         1.195450000000;     BAS[ATNO][ 13].d[ 13] =         0.169871501156;
  BAS[ATNO][ 13].a[ 14] =       113.557000000000;     BAS[ATNO][ 13].d[ 14] =         0.000139888265;
  BAS[ATNO][ 13].a[ 15] =        20.363900000000;     BAS[ATNO][ 13].d[ 15] =        -0.006598605422;
  BAS[ATNO][ 13].a[ 16] =        12.727400000000;     BAS[ATNO][ 13].d[ 16] =         0.063175998899;
  BAS[ATNO][ 13].a[ 17] =         7.949840000000;     BAS[ATNO][ 13].d[ 17] =        -0.144118530505;
  BAS[ATNO][ 13].a[ 18] =         4.964770000000;     BAS[ATNO][ 13].d[ 18] =        -0.011499032339;
  BAS[ATNO][ 13].a[ 19] =         2.301300000000;     BAS[ATNO][ 13].d[ 19] =         0.204608096310;
  BAS[ATNO][ 13].a[ 20] =         1.195450000000;     BAS[ATNO][ 13].d[ 20] =         0.184429123586;
  BAS[ATNO][ 13].a[ 21] =         8.468130000000;     BAS[ATNO][ 13].d[ 21] =        -4.897661714297;
  BAS[ATNO][ 13].a[ 22] =         7.796201700000;     BAS[ATNO][ 13].d[ 22] =         5.867873459148;
  BAS[ATNO][ 13].a[ 23] =         0.668717580000;     BAS[ATNO][ 13].d[ 23] =         9.455134783300;
  BAS[ATNO][ 13].a[ 24] =         8.468130000000;     BAS[ATNO][ 13].d[ 24] =         0.778838944331;
  BAS[ATNO][ 13].a[ 25] =         7.796201700000;     BAS[ATNO][ 13].d[ 25] =        -0.933124547384;
  BAS[ATNO][ 13].a[ 26] =         0.668717580000;     BAS[ATNO][ 13].d[ 26] =        -1.503580202699;
  BAS[ATNO][ 13].a[ 27] =         8.468130000000;     BAS[ATNO][ 13].d[ 27] =         0.845583767379;
  BAS[ATNO][ 13].a[ 28] =         7.796201700000;     BAS[ATNO][ 13].d[ 28] =        -1.013091314904;
  BAS[ATNO][ 13].a[ 29] =         0.668717580000;     BAS[ATNO][ 13].d[ 29] =        -1.632433793417;
  BAS[ATNO][ 13].a[ 30] =         0.591524239300;     BAS[ATNO][ 13].d[ 30] =        -8.530767374970;
  BAS[ATNO][ 13].a[ 31] =         0.591524239300;     BAS[ATNO][ 13].d[ 31] =         1.356584885654;
  BAS[ATNO][ 13].a[ 32] =         0.591524239300;     BAS[ATNO][ 13].d[ 32] =         1.472841293736;

-------------------------------------------
RADIAL EXPECTATION VALUES <R**-3> TO <R**3>
-------------------------------------------
   0 :     0.000000     1.936966     1.335467     0.806584     0.699222     0.651653
   1 :     2.267103     1.580307     1.206584     0.895599     0.865686     0.916121
   2 :     2.267103     1.580307     1.206584     0.895599     0.865686     0.916121
   3 :     2.268267     1.580858     1.206806     0.895410     0.865318     0.915769
   4 :     0.000000     0.693119     0.738686     1.569326     2.707100     5.024359
   5 :     0.605177     0.534775     0.649177     1.785399     3.508896     7.466117
   6 :     0.605177     0.534775     0.649177     1.785399     3.508896     7.466117
   7 :     0.000000     0.197648     0.366480     3.265246    11.817054    46.372203
   8 :     0.000000     0.051529     0.174522     6.846769    50.864900   399.341746
   9 :     0.000000     0.099124     0.234698     5.797927    40.577717   322.857981
  10 :     0.000000     0.349985     0.450365     3.360816    15.693949    95.879769
  11 :     0.000000     3.229835     1.368305     1.317808     3.555676    17.569413
  12 :    27.015999     7.427680     2.496328     0.502990     0.365758     0.466825
  13 :     0.609491     0.537624     0.651025     1.779811     3.485554     7.387957
  14 :     0.118328     0.138569     0.307018     3.897153    16.898321    79.924989
  15 :     0.120245     0.139955     0.308122     3.887494    16.808454    79.190871
  16 :     0.120245     0.139955     0.308122     3.887494    16.808454    79.190871
  17 :     0.010313     0.020087     0.116507     9.677059    99.909721  1085.594509
  18 :     0.010313     0.020087     0.116507     9.677059    99.909721  1085.594509
  19 :     0.010350     0.020066     0.116287     9.698358   100.324759  1091.857081
  20 :     0.050240     0.066371     0.198258     6.725136    55.446140   537.631306
  21 :     0.050240     0.066371     0.198258     6.725136    55.446140   537.631306
  22 :     0.050539     0.066791     0.199080     6.693728    54.939064   530.752070
  23 :     0.367741     0.306817     0.424266     3.615513    18.656922   132.348986
  24 :     0.367741     0.306817     0.424266     3.615513    18.656922   132.348986
  25 :     0.364388     0.304584     0.422751     3.621713    18.682764   132.310115
  26 :    27.015999     7.427680     2.496328     0.502990     0.365758     0.466825
  27 :    27.015455     7.427501     2.496276     0.503018     0.365798     0.466754
  28 :     0.000000    26.210613     4.079262     0.445155     0.681364     3.112061
Making the total density                ... o.k.
o.k.
Initializing the integrals              ... done
Making exponents                        ... done
Making rho(0)                           ... done (         0.107306418)
Integral calculation                    ... Two index integrals                     ... done
Solving the equation system             ... done
atomic density will be written to file 84_Po_atom84.adf

-------
TIMINGS
-------

Total SCF time: 0 days 0 hours 0 min 0 sec 

Total time                  ....       0.645 sec
Sum of individual times     ....       0.267 sec  ( 41.5%)

Fock matrix formation       ....       0.195 sec  ( 30.2%)
Diagonalization             ....       0.031 sec  (  4.8%)
Density matrix formation    ....       0.000 sec  (  0.1%)
Population analysis         ....       0.000 sec  (  0.0%)
Initial guess               ....       0.000 sec  (  0.1%)
Orbital Transformation      ....       0.000 sec  (  0.0%)
Orbital Orthonormalization  ....       0.000 sec  (  0.0%)
DIIS solution               ....       0.041 sec  (  6.4%)

-------------------------   --------------------
FINAL SINGLE POINT ENERGY      -211.746213818609
-------------------------   --------------------


                            ***************************************
                            *     ORCA property calculations      *
                            ***************************************

                                    ---------------------
                                    Active property flags
                                    ---------------------
   (+) Dipole Moment


------------------------------------------------------------------------------
                       ORCA ELECTRIC PROPERTIES CALCULATION
------------------------------------------------------------------------------

Dipole Moment Calculation                       ... on
Quadrupole Moment Calculation                   ... off
Polarizability Calculation                      ... off
GBWName                                         ... 84_Po_atom84.gbw
Electron density file                           ... 84_Po_atom84.scfp
The origin for moment calculation is the CENTER OF MASS  = ( 0.000000,  0.000000  0.000000)

-------------
DIPOLE MOMENT
-------------
                                X             Y             Z
Electronic contribution:      0.00000       0.00000       0.00000
Nuclear contribution   :      0.00000       0.00000       0.00000
                        -----------------------------------------
Total Dipole Moment    :      0.00000       0.00000       0.00000
                        -----------------------------------------
Magnitude (a.u.)       :      0.00000
Magnitude (Debye)      :      0.00000



--------------------
Rotational spectrum 
--------------------
 
Rotational constants in cm-1:     0.000000     0.000000     0.000000 
Rotational constants in MHz :     0.000000     0.000000     0.000000 

 Dipole components along the rotational axes: 
x,y,z [a.u.] :     0.000000     0.000000     0.000000 
x,y,z [Debye]:     0.000000     0.000000     0.000000 

 

Timings for individual modules:

Sum of individual times         ...        0.910 sec (=   0.015 min)
GTO integral calculation        ...        0.244 sec (=   0.004 min)  26.8 %
SCF iterations                  ...        0.666 sec (=   0.011 min)  73.2 %
                             ****ORCA TERMINATED NORMALLY****
TOTAL RUN TIME: 0 days 0 hours 0 minutes 1 seconds 111 msec
