
                                 *****************
                                 * O   R   C   A *
                                 *****************

           --- An Ab Initio, DFT and Semiempirical electronic structure package ---

                  #######################################################
                  #                        -***-                        #
                  #          Department of theory and spectroscopy      #
                  #               Directorship: Frank Neese             #
                  #        Max Planck Institute fuer Kohlenforschung    #
                  #                Kaiser Wilhelm Platz 1               #
                  #                 D-45470 Muelheim/Ruhr               #
                  #                      Germany                        #
                  #                                                     #
                  #                  All rights reserved                #
                  #                        -***-                        #
                  #######################################################


                         Program Version 4.2.0 -  RELEASE  -


 With contributions from (in alphabetic order):
   Daniel Aravena         : Magnetic Suceptibility
   Michael Atanasov       : Ab Initio Ligand Field Theory (pilot matlab implementation)
   Alexander A. Auer      : GIAO ZORA, VPT2
   Ute Becker             : Parallelization
   Giovanni Bistoni       : ED, misc. LED, open-shell LED, HFLED
   Martin Brehm           : Molecular dynamics
   Dmytro Bykov           : SCF Hessian
   Vijay G. Chilkuri      : MRCI spin determinant printing, contributions to CSF-ICE
   Dipayan Datta          : RHF DLPNO-CCSD density
   Achintya Kumar Dutta   : EOM-CC, STEOM-CC
   Dmitry Ganyushin       : Spin-Orbit,Spin-Spin,Magnetic field MRCI
   Miquel Garcia          : C-PCM Hessian, Gaussian charge scheme
   Yang Guo               : DLPNO-NEVPT2, CIM, IAO-localization
   Andreas Hansen         : Spin unrestricted coupled pair/coupled cluster methods
   Benjamin Helmich-Paris : CASSCF linear response (MC-RPA)
   Lee Huntington         : MR-EOM, pCC
   Robert Izsak           : Overlap fitted RIJCOSX, COSX-SCS-MP3, EOM
   Christian Kollmar      : KDIIS, OOCD, Brueckner-CCSD(T), CCSD density
   Simone Kossmann        : Meta GGA functionals, TD-DFT gradient, OOMP2, MP2 Hessian
   Martin Krupicka        : AUTO-CI
   Lucas Lang             : DCDCAS
   Dagmar Lenk            : GEPOL surface, SMD
   Dimitrios Liakos       : Extrapolation schemes; Compound Job, initial MDCI parallelization
   Dimitrios Manganas     : Further ROCIS development; embedding schemes
   Dimitrios Pantazis     : SARC Basis sets
   Taras Petrenko         : DFT Hessian,TD-DFT gradient, ASA, ECA, R-Raman, ABS, FL, XAS/XES, NRVS
   Peter Pinski           : DLPNO-MP2, DLPNO-MP2 Gradient
   Christoph Reimann      : Effective Core Potentials
   Marius Retegan         : Local ZFS, SOC
   Christoph Riplinger    : Optimizer, TS searches, QM/MM, DLPNO-CCSD(T), (RO)-DLPNO pert. Triples
   Tobias Risthaus        : Range-separated hybrids, TD-DFT gradient, RPA, STAB
   Michael Roemelt        : Original ROCIS implementation
   Masaaki Saitow         : Open-shell DLPNO-CCSD energy and density
   Barbara Sandhoefer     : DKH picture change effects
   Avijit Sen             : IP-ROCIS
   Kantharuban Sivalingam : CASSCF convergence, NEVPT2, FIC-MRCI
   Bernardo de Souza      : ESD, SOC TD-DFT
   Georgi Stoychev        : AutoAux, RI-MP2 NMR
   Willem Van den Heuvel  : Paramagnetic NMR
   Boris Wezisla          : Elementary symmetry handling
   Frank Wennmohs         : Technical directorship


 We gratefully acknowledge several colleagues who have allowed us to
 interface, adapt or use parts of their codes:
   Stefan Grimme, W. Hujo, H. Kruse,             : VdW corrections, initial TS optimization,
                  C. Bannwarth                     DFT functionals, gCP, sTDA/sTD-DF
   Ed Valeev, F. Pavosevic, A. Kumar             : LibInt (2-el integral package), F12 methods
   Garnet Chan, S. Sharma, J. Yang, R. Olivares  : DMRG
   Ulf Ekstrom                                   : XCFun DFT Library
   Mihaly Kallay                                 : mrcc  (arbitrary order and MRCC methods)
   Andreas Klamt, Michael Diedenhofen            : otool_cosmo (COSMO solvation model)
   Jiri Pittner, Ondrej Demel                    : Mk-CCSD
   Frank Weinhold                                : gennbo (NPA and NBO analysis)
   Christopher J. Cramer and Donald G. Truhlar   : smd solvation model
   Lars Goerigk                                  : TD-DFT with DH, B97 family of functionals
   V. Asgeirsson, H. Jonsson                     : NEB implementation
   FAccTs GmbH                                   : IRC, NEB, NEB-TS, Multilevel, MM, QM/MM, CI optimization
   S Lehtola, MJT Oliveira, MAL Marques          : LibXC Library


 Your calculation uses the libint2 library for the computation of 2-el integrals
 For citations please refer to: http://libint.valeyev.net

 Your ORCA version has been built with support for libXC version: 4.2.3
 For citations please refer to: https://tddft.org/programs/libxc/

 This ORCA versions uses:
   CBLAS   interface :  Fast vector & matrix operations
   LAPACKE interface :  Fast linear algebra routines
   SCALAPACK package :  Parallel linear algebra routines


----- Orbital basis set information -----
Your calculation utilizes the basis: def2-QZVP
   F. Weigend and R. Ahlrichs, Phys. Chem. Chem. Phys. 7, 3297 (2005).

================================================================================
                                        WARNINGS
                       Please study these warnings very carefully!
================================================================================


WARNING: your system is open-shell and RHF/RKS was chosen
  ===> : WILL SWITCH to UHF/UKS


WARNING: No MP2 level density has been requested!
         To caclulate MP2 level properties use
         %mp2 Density relaxed end
         or
         %mp2 Density unrelaxed end

WARNING: Post HF methods need fully converged wavefunctions
  ===> : Setting SCFConvForced true
         You can overwrite this default with %scf ConvForced false 


INFO   : the flag for use of LIBINT has been found!

================================================================================
                                       INPUT FILE
================================================================================
NAME = 01_H.in
|  1> #
|  2> # 01_H CCSD(T)/Def2-QZVP
|  3> #
|  4> ! MP2 Def2-QZVP tightscf
|  5> 
|  6> *xyz 0 2
|  7>  H 0.0 0.0 0.0
|  8> *
|  9> 
| 10> 
| 11>                          ****END OF INPUT****
================================================================================

                       ****************************
                       * Single Point Calculation *
                       ****************************

---------------------------------
CARTESIAN COORDINATES (ANGSTROEM)
---------------------------------
  H      0.000000    0.000000    0.000000

----------------------------
CARTESIAN COORDINATES (A.U.)
----------------------------
  NO LB      ZA    FRAG     MASS         X           Y           Z
   0 H     1.0000    0     1.008    0.000000    0.000000    0.000000

--------------------------------
INTERNAL COORDINATES (ANGSTROEM)
--------------------------------
 H      0   0   0     0.000000000000     0.00000000     0.00000000

---------------------------
INTERNAL COORDINATES (A.U.)
---------------------------
 H      0   0   0     0.000000000000     0.00000000     0.00000000

---------------------
BASIS SET INFORMATION
---------------------
There are 1 groups of distinct atoms

 Group   1 Type H   : 7s3p2d1f contracted to 4s3p2d1f pattern {4111/111/11/1}

Atom   0H    basis set group =>   1
------------------------------------------------------------------------------
                           ORCA GTO INTEGRAL CALCULATION
------------------------------------------------------------------------------

                         BASIS SET STATISTICS AND STARTUP INFO

 # of primitive gaussian shells          ...   13
 # of primitive gaussian functions       ...   33
 # of contracted shells                  ...   10
 # of contracted basis functions         ...   30
 Highest angular momentum                ...    3
 Maximum contraction depth               ...    4
 Integral package used                   ... LIBINT
 Integral threshhold            Thresh   ...  2.500e-11
 Primitive cut-off              TCut     ...  2.500e-12


------------------------------ INTEGRAL EVALUATION ----------------------------


 * One electron integrals 
 Pre-screening matrix                    ... done
 Shell pair data                         ... done (   0.000 sec)

-------------------------------------------------------------------------------
                                 ORCA SCF
-------------------------------------------------------------------------------

------------
SCF SETTINGS
------------
Hamiltonian:
 Ab initio Hamiltonian  Method          .... Hartree-Fock(GTOs)


General Settings:
 Integral files         IntName         .... 01_H
 Hartree-Fock type      HFTyp           .... UHF
 Total Charge           Charge          ....    0
 Multiplicity           Mult            ....    2
 Number of Electrons    NEL             ....    1
 Basis Dimension        Dim             ....   30
 Nuclear Repulsion      ENuc            ....      0.0000000000 Eh

Convergence Acceleration:
 DIIS                   CNVDIIS         .... on
   Start iteration      DIISMaxIt       ....    12
   Startup error        DIISStart       ....  0.200000
   # of expansion vecs  DIISMaxEq       ....     5
   Bias factor          DIISBfac        ....   1.050
   Max. coefficient     DIISMaxC        ....  10.000
 Newton-Raphson         CNVNR           .... off
 SOSCF                  CNVSOSCF        .... off
 Level Shifting         CNVShift        .... on
   Level shift para.    LevelShift      ....    0.2500
   Turn off err/grad.   ShiftErr        ....    0.0010
 Zerner damping         CNVZerner       .... off
 Static damping         CNVDamp         .... on
   Fraction old density DampFac         ....    0.7000
   Max. Damping (<1)    DampMax         ....    0.9800
   Min. Damping (>=0)   DampMin         ....    0.0000
   Turn off err/grad.   DampErr         ....    0.1000
 Fernandez-Rico         CNVRico         .... off

SCF Procedure:
 Maximum # iterations   MaxIter         ....   125
 SCF integral mode      SCFMode         .... Direct
   Integral package                     .... LIBINT
 Reset frequency        DirectResetFreq ....    20
 Integral Threshold     Thresh          ....  2.500e-11 Eh
 Primitive CutOff       TCut            ....  2.500e-12 Eh

Convergence Tolerance:
 Convergence Check Mode ConvCheckMode   .... Total+1el-Energy
 Convergence forced     ConvForced      .... 1
 Energy Change          TolE            ....  1.000e-08 Eh
 1-El. energy change                    ....  1.000e-05 Eh
 DIIS Error             TolErr          ....  5.000e-07


Diagonalization of the overlap matrix:
Smallest eigenvalue                        ... 3.391e-02
Time for diagonalization                   ...    0.016 sec
Threshold for overlap eigenvalues          ... 1.000e-08
Number of eigenvalues below threshold      ... 0
Time for construction of square roots      ...    0.006 sec
Total time needed                          ...    0.022 sec

-------------------
DFT GRID GENERATION
-------------------

General Integration Accuracy     IntAcc      ...  4.340
Radial Grid Type                 RadialGrid  ... Gauss-Chebyshev
Angular Grid (max. acc.)         AngularGrid ... Lebedev-110
Angular grid pruning method      GridPruning ... 3 (G Style)
Weight generation scheme         WeightScheme... Becke
Basis function cutoff            BFCut       ...    1.0000e-11
Integration weight cutoff        WCut        ...    1.0000e-14
Grids for H and He will be reduced by one unit

# of grid points (after initial pruning)     ...    794 (   0.0 sec)
# of grid points (after weights+screening)   ...    794 (   0.0 sec)
Grid point division into batches done        ...    0.0 sec
Reduced shell lists constructed in    0.0 sec

Total number of grid points                  ...      794
Total number of batches                      ...       13
Average number of points per batch           ...       61
Average number of grid points per atom       ...      794
Average number of shells per batch           ...     9.29 (92.86%)
Average number of basis functions per batch  ...    27.86 (92.86%)
Average number of large shells per batch     ...     9.29 (100.00%)
Average number of large basis fcns per batch ...    27.86 (100.00%)
Maximum spatial batch extension              ...  17.62, 21.59, 21.59 au
Average spatial batch extension              ...   6.10,  8.93,  9.49 au

Time for grid setup =    0.006 sec

------------------------------
INITIAL GUESS: MODEL POTENTIAL
------------------------------
Loading Hartree-Fock densities                     ... done
Calculating cut-offs                               ... done
Setting up the integral package                    ... done
Initializing the effective Hamiltonian             ... done
Starting the Coulomb interaction                   ... done (   0.0 sec)
Reading the grid                                   ... done
Mapping shells                                     ... done
Starting the XC term evaluation                    ... done (   0.0 sec)
Transforming the Hamiltonian                       ... done (   0.0 sec)
Diagonalizing the Hamiltonian                      ... done (   0.0 sec)
Back transforming the eigenvectors                 ... done (   0.0 sec)
Now organizing SCF variables                       ... done
                      ------------------
                      INITIAL GUESS DONE (   0.1 sec)
                      ------------------
--------------
SCF ITERATIONS
--------------
ITER       Energy         Delta-E        Max-DP      RMS-DP      [F,P]     Damp
               ***  Starting incremental Fock matrix formation  ***
  0     -0.4947260168   0.000000000000 0.01368701  0.00042126  0.0438290 0.7000
  1     -0.4956884001  -0.000962383339 0.01416623  0.00045555  0.0376751 0.7000
                               ***Turning on DIIS***
  2     -0.4965762281  -0.000887828020 0.04054191  0.00134117  0.0314340 0.0000
  3     -0.4997549662  -0.003178738054 0.01734462  0.00067517  0.0134503 0.0000
  4     -0.5000099003  -0.000254934071 0.00620982  0.00022525  0.0036173 0.0000
  5     -0.4999912453   0.000018654951 0.00259707  0.00008235  0.0010146 0.0000
  6     -0.4999826935   0.000008551862 0.00149769  0.00004507  0.0003253 0.0000
  7     -0.4999830828  -0.000000389314 0.00018847  0.00000541  0.0000264 0.0000
  8     -0.4999832972  -0.000000214430 0.00000864  0.00000025  0.0000015 0.0000
                 **** Energy Check signals convergence ****

               *****************************************************
               *                     SUCCESS                       *
               *           SCF CONVERGED AFTER   9 CYCLES          *
               *****************************************************


----------------
TOTAL SCF ENERGY
----------------

Total Energy       :           -0.49998330 Eh             -13.60524 eV

Components:
Nuclear Repulsion  :            0.00000000 Eh               0.00000 eV
Electronic Energy  :           -0.49998330 Eh             -13.60524 eV
One Electron Energy:           -0.49998330 Eh             -13.60524 eV
Two Electron Energy:           -0.00000000 Eh              -0.00000 eV

Virial components:
Potential Energy   :           -0.99996659 Eh             -27.21047 eV
Kinetic Energy     :            0.49998330 Eh              13.60524 eV
Virial Ratio       :            2.00000000


---------------
SCF CONVERGENCE
---------------

  Last Energy change         ...   -6.3483e-10  Tolerance :   1.0000e-08
  Last MAX-Density change    ...    3.7788e-07  Tolerance :   1.0000e-07
  Last RMS-Density change    ...    1.0251e-08  Tolerance :   5.0000e-09
  Last DIIS Error            ...    4.1576e-08  Tolerance :   5.0000e-07

             **** THE GBW FILE WAS UPDATED (01_H.gbw) ****
             **** DENSITY FILE WAS UPDATED (01_H.scfp) ****
             **** ENERGY FILE WAS UPDATED (01_H.en.tmp) ****
----------------------
UHF SPIN CONTAMINATION
----------------------

Expectation value of <S**2>     :     0.750000
Ideal value S*(S+1) for S=0.5   :     0.750000
Deviation                       :     0.000000

             **** THE GBW FILE WAS UPDATED (01_H.gbw) ****
             **** DENSITY FILE WAS UPDATED (01_H.scfp) ****
----------------
ORBITAL ENERGIES
----------------
                 SPIN UP ORBITALS
  NO   OCC          E(Eh)            E(eV) 
   0   1.0000      -0.499983       -13.6052 
   1   0.0000       0.218667         5.9502 
   2   0.0000       0.531929        14.4745 
   3   0.0000       0.531929        14.4745 
   4   0.0000       0.531929        14.4745 
   5   0.0000       1.167071        31.7576 
   6   0.0000       2.068148        56.2772 
   7   0.0000       2.068148        56.2772 
   8   0.0000       2.068148        56.2772 
   9   0.0000       2.068148        56.2772 
  10   0.0000       2.068148        56.2772 
  11   0.0000       2.350196        63.9521 
  12   0.0000       2.350196        63.9521 
  13   0.0000       2.350196        63.9521 
  14   0.0000       5.314188       144.6064 
  15   0.0000       6.055028       164.7657 
  16   0.0000       6.055028       164.7657 
  17   0.0000       6.055028       164.7657 
  18   0.0000       6.055028       164.7657 
  19   0.0000       6.055028       164.7657 
  20   0.0000       6.055028       164.7657 
  21   0.0000       6.055028       164.7657 
  22   0.0000       7.763351       211.2515 
  23   0.0000       7.763351       211.2515 
  24   0.0000       7.763351       211.2515 
  25   0.0000       8.120879       220.9804 
  26   0.0000       8.120879       220.9804 
  27   0.0000       8.120879       220.9804 
  28   0.0000       8.120879       220.9804 
  29   0.0000       8.120879       220.9804 

                 SPIN DOWN ORBITALS
  NO   OCC          E(Eh)            E(eV) 
   0   0.0000       0.042594         1.1591 
   1   0.0000       0.329981         8.9793 
   2   0.0000       0.607666        16.5354 
   3   0.0000       0.607666        16.5354 
   4   0.0000       0.607666        16.5354 
   5   0.0000       1.285809        34.9886 
   6   0.0000       2.112936        57.4959 
   7   0.0000       2.112936        57.4959 
   8   0.0000       2.112936        57.4959 
   9   0.0000       2.112936        57.4959 
  10   0.0000       2.112936        57.4959 
  11   0.0000       2.431986        66.1777 
  12   0.0000       2.431986        66.1777 
  13   0.0000       2.431986        66.1777 
  14   0.0000       5.407309       147.1404 
  15   0.0000       6.086729       165.6283 
  16   0.0000       6.086729       165.6283 
  17   0.0000       6.086729       165.6283 
  18   0.0000       6.086729       165.6283 
  19   0.0000       6.086729       165.6283 
  20   0.0000       6.086729       165.6283 
  21   0.0000       6.086729       165.6283 
  22   0.0000       7.823064       212.8764 
  23   0.0000       7.823064       212.8764 
  24   0.0000       7.823064       212.8764 
  25   0.0000       8.165032       222.1818 
  26   0.0000       8.165032       222.1818 
  27   0.0000       8.165032       222.1818 
  28   0.0000       8.165032       222.1818 
  29   0.0000       8.165032       222.1818 

                    ********************************
                    * MULLIKEN POPULATION ANALYSIS *
                    ********************************

--------------------------------------------
MULLIKEN ATOMIC CHARGES AND SPIN POPULATIONS
--------------------------------------------
   0 H :    0.000000    1.000000
Sum of atomic charges         :    0.0000000
Sum of atomic spin populations:    1.0000000

-----------------------------------------------------
MULLIKEN REDUCED ORBITAL CHARGES AND SPIN POPULATIONS
-----------------------------------------------------
CHARGE
  0 H s       :     1.000000  s :     1.000000
      pz      :     0.000000  p :     0.000000
      px      :     0.000000
      py      :     0.000000
      dz2     :     0.000000  d :     0.000000
      dxz     :     0.000000
      dyz     :     0.000000
      dx2y2   :     0.000000
      dxy     :     0.000000
      f0      :     0.000000  f :     0.000000
      f+1     :     0.000000
      f-1     :     0.000000
      f+2     :     0.000000
      f-2     :     0.000000
      f+3     :     0.000000
      f-3     :     0.000000

SPIN
  0 H s       :     1.000000  s :     1.000000
      pz      :     0.000000  p :     0.000000
      px      :     0.000000
      py      :     0.000000
      dz2     :     0.000000  d :     0.000000
      dxz     :     0.000000
      dyz     :     0.000000
      dx2y2   :     0.000000
      dxy     :     0.000000
      f0      :     0.000000  f :     0.000000
      f+1     :     0.000000
      f-1     :     0.000000
      f+2     :     0.000000
      f-2     :     0.000000
      f+3     :     0.000000
      f-3     :     0.000000


                     *******************************
                     * LOEWDIN POPULATION ANALYSIS *
                     *******************************

-------------------------------------------
LOEWDIN ATOMIC CHARGES AND SPIN POPULATIONS
-------------------------------------------
   0 H :    0.000000    1.000000

----------------------------------------------------
LOEWDIN REDUCED ORBITAL CHARGES AND SPIN POPULATIONS
----------------------------------------------------
CHARGE
  0 H s       :     1.000000  s :     1.000000
      pz      :     0.000000  p :     0.000000
      px      :     0.000000
      py      :     0.000000
      dz2     :     0.000000  d :     0.000000
      dxz     :     0.000000
      dyz     :     0.000000
      dx2y2   :     0.000000
      dxy     :     0.000000
      f0      :     0.000000  f :     0.000000
      f+1     :     0.000000
      f-1     :     0.000000
      f+2     :     0.000000
      f-2     :     0.000000
      f+3     :     0.000000
      f-3     :     0.000000

SPIN
  0 H s       :     1.000000  s :     1.000000
      pz      :     0.000000  p :     0.000000
      px      :     0.000000
      py      :     0.000000
      dz2     :     0.000000  d :     0.000000
      dxz     :     0.000000
      dyz     :     0.000000
      dx2y2   :     0.000000
      dxy     :     0.000000
      f0      :     0.000000  f :     0.000000
      f+1     :     0.000000
      f-1     :     0.000000
      f+2     :     0.000000
      f-2     :     0.000000
      f+3     :     0.000000
      f-3     :     0.000000


                      *****************************
                      * MAYER POPULATION ANALYSIS *
                      *****************************

  NA   - Mulliken gross atomic population
  ZA   - Total nuclear charge
  QA   - Mulliken gross atomic charge
  VA   - Mayer's total valence
  BVA  - Mayer's bonded valence
  FA   - Mayer's free valence

  ATOM       NA         ZA         QA         VA         BVA        FA
  0 H      1.0000     1.0000     0.0000     1.0000     0.0000     1.0000

  Mayer bond orders larger than 0.100000


Local spin analysis not attempted because no beta electrons available
--------------------------
ATOM BASIS FOR ELEMENT H 
--------------------------
 NewGTO H 
 S 7
    1        190.691690000000         0.000708151695
    2         28.605532000000         0.005467882664
    3          6.509594300000         0.027966604816
    4          1.841245500000         0.107645379293
    5          0.598537250000         0.298897101067
    6          0.213976240000         0.474068112563
    7          0.080316286000         0.229395203733
 S 7
    1        190.691690000000         0.000554190559
    2         28.605532000000         0.004279095809
    3          6.509594300000         0.021886311174
    4          1.841245500000         0.084241912206
    5          0.598537250000        -0.116611800145
    6          0.213976240000         1.605891896388
    7          0.080316286000        -1.866019834242
 S 7
    1        190.691690000000         0.000228445385
    2         28.605532000000         0.001763905345
    3          6.509594300000         0.009021854848
    4          1.841245500000         0.034725737836
    5          0.598537250000         2.060808876694
    6          0.213976240000        -3.036608628744
    7          0.080316286000         1.293871800231
 S 7
    1        190.691690000000         0.009425129378
    2         28.605532000000         0.072774663781
    3          6.509594300000         0.372220910292
    4          1.841245500000         1.432703802707
    5          0.598537250000        -2.608428127322
    6          0.213976240000         1.858581955779
    7          0.080316286000        -0.636634626741
 P 3
    1          2.292000000000         0.072253229577
    2          0.838000000000        -0.253421619526
    3          0.292000000000         1.150060203135
 P 3
    1          2.292000000000        -0.225420303893
    2          0.838000000000         1.646047505289
    3          0.292000000000        -0.980031348536
 P 3
    1          2.292000000000         1.639672969992
    2          0.838000000000        -1.517638389041
    3          0.292000000000         0.539393329453
 D 2
    1          2.062000000000        -0.146950460338
    2          0.662000000000         1.078780617354
 D 2
    1          2.062000000000         1.223806876345
    2          0.662000000000        -0.596263438425
 F 1
    1          1.397000000000         1.000000000000
 end
  // -----------------------------------------------
  // The basis set
  // -----------------------------------------------
  BAS[ATNO] = new BFNGauss[NSH];
  // Basis function   1 L = s
  InitBFNGauss(BAS[ATNO][  0]);
  BAS[ATNO][  0].l  = 0;
  BAS[ATNO][  0].ng = 7;
  BAS[ATNO][  0].a[  0] =       190.691690000000;     BAS[ATNO][  0].d[  0] =         0.000708151695;
  BAS[ATNO][  0].a[  1] =        28.605532000000;     BAS[ATNO][  0].d[  1] =         0.005467882664;
  BAS[ATNO][  0].a[  2] =         6.509594300000;     BAS[ATNO][  0].d[  2] =         0.027966604816;
  BAS[ATNO][  0].a[  3] =         1.841245500000;     BAS[ATNO][  0].d[  3] =         0.107645379293;
  BAS[ATNO][  0].a[  4] =         0.598537250000;     BAS[ATNO][  0].d[  4] =         0.298897101067;
  BAS[ATNO][  0].a[  5] =         0.213976240000;     BAS[ATNO][  0].d[  5] =         0.474068112563;
  BAS[ATNO][  0].a[  6] =         0.080316286000;     BAS[ATNO][  0].d[  6] =         0.229395203733;

  // Basis function   2 L = s
  InitBFNGauss(BAS[ATNO][  1]);
  BAS[ATNO][  1].l  = 0;
  BAS[ATNO][  1].ng = 7;
  BAS[ATNO][  1].a[  0] =       190.691690000000;     BAS[ATNO][  1].d[  0] =        -0.000554190559;
  BAS[ATNO][  1].a[  1] =        28.605532000000;     BAS[ATNO][  1].d[  1] =        -0.004279095809;
  BAS[ATNO][  1].a[  2] =         6.509594300000;     BAS[ATNO][  1].d[  2] =        -0.021886311174;
  BAS[ATNO][  1].a[  3] =         1.841245500000;     BAS[ATNO][  1].d[  3] =        -0.084241912206;
  BAS[ATNO][  1].a[  4] =         0.598537250000;     BAS[ATNO][  1].d[  4] =         0.116611800145;
  BAS[ATNO][  1].a[  5] =         0.213976240000;     BAS[ATNO][  1].d[  5] =        -1.605891896388;
  BAS[ATNO][  1].a[  6] =         0.080316286000;     BAS[ATNO][  1].d[  6] =         1.866019834242;

  // Basis function   3 L = s
  InitBFNGauss(BAS[ATNO][  2]);
  BAS[ATNO][  2].l  = 0;
  BAS[ATNO][  2].ng = 7;
  BAS[ATNO][  2].a[  0] =       190.691690000000;     BAS[ATNO][  2].d[  0] =        -0.000228445385;
  BAS[ATNO][  2].a[  1] =        28.605532000000;     BAS[ATNO][  2].d[  1] =        -0.001763905345;
  BAS[ATNO][  2].a[  2] =         6.509594300000;     BAS[ATNO][  2].d[  2] =        -0.009021854848;
  BAS[ATNO][  2].a[  3] =         1.841245500000;     BAS[ATNO][  2].d[  3] =        -0.034725737836;
  BAS[ATNO][  2].a[  4] =         0.598537250000;     BAS[ATNO][  2].d[  4] =        -2.060808876694;
  BAS[ATNO][  2].a[  5] =         0.213976240000;     BAS[ATNO][  2].d[  5] =         3.036608628744;
  BAS[ATNO][  2].a[  6] =         0.080316286000;     BAS[ATNO][  2].d[  6] =        -1.293871800231;

  // Basis function   4 L = s
  InitBFNGauss(BAS[ATNO][  3]);
  BAS[ATNO][  3].l  = 0;
  BAS[ATNO][  3].ng = 7;
  BAS[ATNO][  3].a[  0] =       190.691690000000;     BAS[ATNO][  3].d[  0] =        -0.009425129378;
  BAS[ATNO][  3].a[  1] =        28.605532000000;     BAS[ATNO][  3].d[  1] =        -0.072774663781;
  BAS[ATNO][  3].a[  2] =         6.509594300000;     BAS[ATNO][  3].d[  2] =        -0.372220910292;
  BAS[ATNO][  3].a[  3] =         1.841245500000;     BAS[ATNO][  3].d[  3] =        -1.432703802707;
  BAS[ATNO][  3].a[  4] =         0.598537250000;     BAS[ATNO][  3].d[  4] =         2.608428127322;
  BAS[ATNO][  3].a[  5] =         0.213976240000;     BAS[ATNO][  3].d[  5] =        -1.858581955779;
  BAS[ATNO][  3].a[  6] =         0.080316286000;     BAS[ATNO][  3].d[  6] =         0.636634626741;

  // Basis function   5 L = p
  InitBFNGauss(BAS[ATNO][  4]);
  BAS[ATNO][  4].l  = 1;
  BAS[ATNO][  4].ng = 3;
  BAS[ATNO][  4].a[  0] =         2.292000000000;     BAS[ATNO][  4].d[  0] =         0.072253229577;
  BAS[ATNO][  4].a[  1] =         0.838000000000;     BAS[ATNO][  4].d[  1] =        -0.253421619526;
  BAS[ATNO][  4].a[  2] =         0.292000000000;     BAS[ATNO][  4].d[  2] =         1.150060203135;

  // Basis function   6 L = p
  InitBFNGauss(BAS[ATNO][  5]);
  BAS[ATNO][  5].l  = 1;
  BAS[ATNO][  5].ng = 3;
  BAS[ATNO][  5].a[  0] =         2.292000000000;     BAS[ATNO][  5].d[  0] =        -0.225420303893;
  BAS[ATNO][  5].a[  1] =         0.838000000000;     BAS[ATNO][  5].d[  1] =         1.646047505289;
  BAS[ATNO][  5].a[  2] =         0.292000000000;     BAS[ATNO][  5].d[  2] =        -0.980031348536;

  // Basis function   7 L = p
  InitBFNGauss(BAS[ATNO][  6]);
  BAS[ATNO][  6].l  = 1;
  BAS[ATNO][  6].ng = 3;
  BAS[ATNO][  6].a[  0] =         2.292000000000;     BAS[ATNO][  6].d[  0] =         1.639672969992;
  BAS[ATNO][  6].a[  1] =         0.838000000000;     BAS[ATNO][  6].d[  1] =        -1.517638389041;
  BAS[ATNO][  6].a[  2] =         0.292000000000;     BAS[ATNO][  6].d[  2] =         0.539393329453;

  // Basis function   8 L = d
  InitBFNGauss(BAS[ATNO][  7]);
  BAS[ATNO][  7].l  = 2;
  BAS[ATNO][  7].ng = 2;
  BAS[ATNO][  7].a[  0] =         2.062000000000;     BAS[ATNO][  7].d[  0] =        -0.146950460338;
  BAS[ATNO][  7].a[  1] =         0.662000000000;     BAS[ATNO][  7].d[  1] =         1.078780617354;

  // Basis function   9 L = d
  InitBFNGauss(BAS[ATNO][  8]);
  BAS[ATNO][  8].l  = 2;
  BAS[ATNO][  8].ng = 2;
  BAS[ATNO][  8].a[  0] =         2.062000000000;     BAS[ATNO][  8].d[  0] =         1.223806876345;
  BAS[ATNO][  8].a[  1] =         0.662000000000;     BAS[ATNO][  8].d[  1] =        -0.596263438425;

  // Basis function  10 L = f
  InitBFNGauss(BAS[ATNO][  9]);
  BAS[ATNO][  9].l  = 3;
  BAS[ATNO][  9].ng = 1;
  BAS[ATNO][  9].a[  0] =         1.397000000000;     BAS[ATNO][  9].d[  0] =         1.000000000000;

-------------------------------------------
RADIAL EXPECTATION VALUES <R**-3> TO <R**3>
-------------------------------------------
   0 :     0.000000     1.997664     0.999967     1.499884     2.998759     7.489028
   1 :     0.000000     0.562797     0.405064     3.737304    15.838278    71.611681
   2 :     0.000000     2.040048     0.913241     2.117357     6.625079    26.221959
   3 :     0.000000    17.405599     2.678375     0.960059     1.995382     6.597850
   4 :     0.262726     0.322653     0.525129     2.117158     4.865386    11.976991
   5 :     0.262726     0.322653     0.525129     2.117158     4.865386    11.976991
   6 :     0.262726     0.322653     0.525129     2.117158     4.865386    11.976991
   7 :     1.188171     0.913422     0.863809     1.466453     2.760209     6.384842
   8 :     1.188171     0.913422     0.863809     1.466453     2.760209     6.384842
   9 :     1.188171     0.913422     0.863809     1.466453     2.760209     6.384842
  10 :     9.109215     3.326592     1.595849     0.881601     1.161876     2.177345
  11 :     9.109215     3.326592     1.595849     0.881601     1.161876     2.177345
  12 :     9.109215     3.326592     1.595849     0.881601     1.161876     2.177345
  13 :     0.337145     0.449983     0.648149     1.642419     2.856585    26.187239
  14 :     0.337145     0.449983     0.648149     1.642419     2.856585    26.187239
  15 :     0.337145     0.449983     0.648149     1.642419     2.856585    26.187239
  16 :     0.337145     0.449983     0.648149     1.642419     2.856585    26.187239
  17 :     0.337145     0.449983     0.648149     1.642419     2.856585    26.187239
  18 :     2.782946     1.729217     1.229091     0.955999     1.114634     8.031163
  19 :     2.782946     1.729217     1.229091     0.955999     1.114634     8.031163
  20 :     2.782946     1.729217     1.229091     0.955999     1.114634     8.031163
  21 :     2.782946     1.729217     1.229091     0.955999     1.114634     8.031163
  22 :     2.782946     1.729217     1.229091     0.955999     1.114634     8.031163
  23 :     0.803018     0.798286     0.862224     1.234394     1.610594    15.463060
  24 :     0.803018     0.798286     0.862224     1.234394     1.610594    15.463060
  25 :     0.803018     0.798286     0.862224     1.234394     1.610594    15.463060
  26 :     0.803018     0.798286     0.862224     1.234394     1.610594    15.463060
  27 :     0.803018     0.798286     0.862224     1.234394     1.610594    15.463060
  28 :     0.803018     0.798286     0.862224     1.234394     1.610594    15.463060
  29 :     0.803018     0.798286     0.862224     1.234394     1.610594    15.463060
-------
TIMINGS
-------

Total SCF time: 0 days 0 hours 0 min 1 sec 

Total time                  ....       1.004 sec
Sum of individual times     ....       0.800 sec  ( 79.7%)

Fock matrix formation       ....       0.672 sec  ( 67.0%)
Diagonalization             ....       0.003 sec  (  0.3%)
Density matrix formation    ....       0.000 sec  (  0.0%)
Population analysis         ....       0.014 sec  (  1.4%)
Initial guess               ....       0.088 sec  (  8.7%)
Orbital Transformation      ....       0.000 sec  (  0.0%)
Orbital Orthonormalization  ....       0.000 sec  (  0.0%)
DIIS solution               ....       0.017 sec  (  1.7%)

------------------------------------------------------------------------------
                                ORCA  MP2 
------------------------------------------------------------------------------

Freezing NCore=0 chemical core electrons
Warning: Single electron - no MP2 correction

---------------------------------------
MP2 TOTAL ENERGY:       -0.499983298 Eh
---------------------------------------

-------------------------   --------------------
FINAL SINGLE POINT ENERGY        -0.499983297830
-------------------------   --------------------


                            ***************************************
                            *     ORCA property calculations      *
                            ***************************************


  WARNING: The energy has been calculated at the MP2 level but the densities
           used in the property calculations are still SCF densities
           MP2 response densities have not been calculated 
           use %mp2 Density relaxed end
           or  %mp2 Density unrelaxed end

                                    ---------------------
                                    Active property flags
                                    ---------------------
   (+) Dipole Moment


------------------------------------------------------------------------------
                       ORCA ELECTRIC PROPERTIES CALCULATION
------------------------------------------------------------------------------

Dipole Moment Calculation                       ... on
Quadrupole Moment Calculation                   ... off
Polarizability Calculation                      ... off
GBWName                                         ... 01_H.gbw
Electron density file                           ... 01_H.scfp
The origin for moment calculation is the CENTER OF MASS  = ( 0.000000,  0.000000  0.000000)

-------------
DIPOLE MOMENT
-------------
                                X             Y             Z
Electronic contribution:      0.00000      -0.00000      -0.00000
Nuclear contribution   :      0.00000       0.00000       0.00000
                        -----------------------------------------
Total Dipole Moment    :      0.00000      -0.00000      -0.00000
                        -----------------------------------------
Magnitude (a.u.)       :      0.00000
Magnitude (Debye)      :      0.00000



--------------------
Rotational spectrum 
--------------------
 
Rotational constants in cm-1:     0.000000     0.000000     0.000000 
Rotational constants in MHz :     0.000000     0.000000     0.000000 

 Dipole components along the rotational axes: 
x,y,z [a.u.] :     0.000000    -0.000000    -0.000000 
x,y,z [Debye]:     0.000000    -0.000000    -0.000000 

 

Timings for individual modules:

Sum of individual times         ...        1.741 sec (=   0.029 min)
GTO integral calculation        ...        0.372 sec (=   0.006 min)  21.4 %
SCF iterations                  ...        1.194 sec (=   0.020 min)  68.6 %
MP2 module                      ...        0.174 sec (=   0.003 min)  10.0 %
                             ****ORCA TERMINATED NORMALLY****
TOTAL RUN TIME: 0 days 0 hours 0 minutes 2 seconds 84 msec
