
                                 *****************
                                 * O   R   C   A *
                                 *****************

           --- An Ab Initio, DFT and Semiempirical electronic structure package ---

                  #######################################################
                  #                        -***-                        #
                  #          Department of theory and spectroscopy      #
                  #               Directorship: Frank Neese             #
                  #        Max Planck Institute fuer Kohlenforschung    #
                  #                Kaiser Wilhelm Platz 1               #
                  #                 D-45470 Muelheim/Ruhr               #
                  #                      Germany                        #
                  #                                                     #
                  #                  All rights reserved                #
                  #                        -***-                        #
                  #######################################################


                         Program Version 4.2.0 -  RELEASE  -


 With contributions from (in alphabetic order):
   Daniel Aravena         : Magnetic Suceptibility
   Michael Atanasov       : Ab Initio Ligand Field Theory (pilot matlab implementation)
   Alexander A. Auer      : GIAO ZORA, VPT2
   Ute Becker             : Parallelization
   Giovanni Bistoni       : ED, misc. LED, open-shell LED, HFLED
   Martin Brehm           : Molecular dynamics
   Dmytro Bykov           : SCF Hessian
   Vijay G. Chilkuri      : MRCI spin determinant printing, contributions to CSF-ICE
   Dipayan Datta          : RHF DLPNO-CCSD density
   Achintya Kumar Dutta   : EOM-CC, STEOM-CC
   Dmitry Ganyushin       : Spin-Orbit,Spin-Spin,Magnetic field MRCI
   Miquel Garcia          : C-PCM Hessian, Gaussian charge scheme
   Yang Guo               : DLPNO-NEVPT2, CIM, IAO-localization
   Andreas Hansen         : Spin unrestricted coupled pair/coupled cluster methods
   Benjamin Helmich-Paris : CASSCF linear response (MC-RPA)
   Lee Huntington         : MR-EOM, pCC
   Robert Izsak           : Overlap fitted RIJCOSX, COSX-SCS-MP3, EOM
   Christian Kollmar      : KDIIS, OOCD, Brueckner-CCSD(T), CCSD density
   Simone Kossmann        : Meta GGA functionals, TD-DFT gradient, OOMP2, MP2 Hessian
   Martin Krupicka        : AUTO-CI
   Lucas Lang             : DCDCAS
   Dagmar Lenk            : GEPOL surface, SMD
   Dimitrios Liakos       : Extrapolation schemes; Compound Job, initial MDCI parallelization
   Dimitrios Manganas     : Further ROCIS development; embedding schemes
   Dimitrios Pantazis     : SARC Basis sets
   Taras Petrenko         : DFT Hessian,TD-DFT gradient, ASA, ECA, R-Raman, ABS, FL, XAS/XES, NRVS
   Peter Pinski           : DLPNO-MP2, DLPNO-MP2 Gradient
   Christoph Reimann      : Effective Core Potentials
   Marius Retegan         : Local ZFS, SOC
   Christoph Riplinger    : Optimizer, TS searches, QM/MM, DLPNO-CCSD(T), (RO)-DLPNO pert. Triples
   Tobias Risthaus        : Range-separated hybrids, TD-DFT gradient, RPA, STAB
   Michael Roemelt        : Original ROCIS implementation
   Masaaki Saitow         : Open-shell DLPNO-CCSD energy and density
   Barbara Sandhoefer     : DKH picture change effects
   Avijit Sen             : IP-ROCIS
   Kantharuban Sivalingam : CASSCF convergence, NEVPT2, FIC-MRCI
   Bernardo de Souza      : ESD, SOC TD-DFT
   Georgi Stoychev        : AutoAux, RI-MP2 NMR
   Willem Van den Heuvel  : Paramagnetic NMR
   Boris Wezisla          : Elementary symmetry handling
   Frank Wennmohs         : Technical directorship


 We gratefully acknowledge several colleagues who have allowed us to
 interface, adapt or use parts of their codes:
   Stefan Grimme, W. Hujo, H. Kruse,             : VdW corrections, initial TS optimization,
                  C. Bannwarth                     DFT functionals, gCP, sTDA/sTD-DF
   Ed Valeev, F. Pavosevic, A. Kumar             : LibInt (2-el integral package), F12 methods
   Garnet Chan, S. Sharma, J. Yang, R. Olivares  : DMRG
   Ulf Ekstrom                                   : XCFun DFT Library
   Mihaly Kallay                                 : mrcc  (arbitrary order and MRCC methods)
   Andreas Klamt, Michael Diedenhofen            : otool_cosmo (COSMO solvation model)
   Jiri Pittner, Ondrej Demel                    : Mk-CCSD
   Frank Weinhold                                : gennbo (NPA and NBO analysis)
   Christopher J. Cramer and Donald G. Truhlar   : smd solvation model
   Lars Goerigk                                  : TD-DFT with DH, B97 family of functionals
   V. Asgeirsson, H. Jonsson                     : NEB implementation
   FAccTs GmbH                                   : IRC, NEB, NEB-TS, Multilevel, MM, QM/MM, CI optimization
   S Lehtola, MJT Oliveira, MAL Marques          : LibXC Library


 Your calculation uses the libint2 library for the computation of 2-el integrals
 For citations please refer to: http://libint.valeyev.net

 Your ORCA version has been built with support for libXC version: 4.2.3
 For citations please refer to: https://tddft.org/programs/libxc/

 This ORCA versions uses:
   CBLAS   interface :  Fast vector & matrix operations
   LAPACKE interface :  Fast linear algebra routines
   SCALAPACK package :  Parallel linear algebra routines


----- Orbital basis set information -----
Your calculation utilizes the basis: def2-QZVP
   F. Weigend and R. Ahlrichs, Phys. Chem. Chem. Phys. 7, 3297 (2005).

================================================================================
                                        WARNINGS
                       Please study these warnings very carefully!
================================================================================


WARNING: your system is open-shell and RHF/RKS was chosen
  ===> : WILL SWITCH to UHF/UKS


WARNING: MDCI localization with Augmented Hessian Foster-Boys
  ===> : Switching off randomization!

WARNING: Post HF methods need fully converged wavefunctions
  ===> : Setting SCFConvForced true
         You can overwrite this default with %scf ConvForced false 


INFO   : the flag for use of LIBINT has been found!

================================================================================
                                       INPUT FILE
================================================================================
NAME = 05_B.in
|  1> #
|  2> # 05_B CCSD(T)/Def2-QZVP
|  3> #
|  4> ! CCSD(T) Def2-QZVP tightscf
|  5> 
|  6> *xyz 0 2
|  7>  B 0.0 0.0 0.0
|  8> *
|  9> 
| 10> %maxcore 5000 
| 11> 
| 12> %pal
| 13> nprocs 3 
| 14> end
| 15> 
| 16> 
| 17>                          ****END OF INPUT****
================================================================================

                       ****************************
                       * Single Point Calculation *
                       ****************************

---------------------------------
CARTESIAN COORDINATES (ANGSTROEM)
---------------------------------
  B      0.000000    0.000000    0.000000

----------------------------
CARTESIAN COORDINATES (A.U.)
----------------------------
  NO LB      ZA    FRAG     MASS         X           Y           Z
   0 B     5.0000    0    10.810    0.000000    0.000000    0.000000

--------------------------------
INTERNAL COORDINATES (ANGSTROEM)
--------------------------------
 B      0   0   0     0.000000000000     0.00000000     0.00000000

---------------------------
INTERNAL COORDINATES (A.U.)
---------------------------
 B      0   0   0     0.000000000000     0.00000000     0.00000000

---------------------
BASIS SET INFORMATION
---------------------
There are 1 groups of distinct atoms

 Group   1 Type B   : 15s8p3d2f1g contracted to 7s4p3d2f1g pattern {8211111/5111/111/11/1}

Atom   0B    basis set group =>   1


           ************************************************************
           *        Program running with 3 parallel MPI-processes     *
           *              working on a common directory               *
           ************************************************************
------------------------------------------------------------------------------
                           ORCA GTO INTEGRAL CALCULATION
------------------------------------------------------------------------------

                         BASIS SET STATISTICS AND STARTUP INFO

 # of primitive gaussian shells          ...   29
 # of primitive gaussian functions       ...   77
 # of contracted shells                  ...   17
 # of contracted basis functions         ...   57
 Highest angular momentum                ...    4
 Maximum contraction depth               ...    8
 Integral package used                   ... LIBINT
 Integral threshhold            Thresh   ...  2.500e-11
 Primitive cut-off              TCut     ...  2.500e-12


------------------------------ INTEGRAL EVALUATION ----------------------------


 * One electron integrals 
 Pre-screening matrix                    ... done
 Shell pair data                         ... done (   0.000 sec)



           ************************************************************
           *        Program running with 3 parallel MPI-processes     *
           *              working on a common directory               *
           ************************************************************
-------------------------------------------------------------------------------
                                 ORCA SCF
-------------------------------------------------------------------------------

------------
SCF SETTINGS
------------
Hamiltonian:
 Ab initio Hamiltonian  Method          .... Hartree-Fock(GTOs)


General Settings:
 Integral files         IntName         .... 05_B
 Hartree-Fock type      HFTyp           .... UHF
 Total Charge           Charge          ....    0
 Multiplicity           Mult            ....    2
 Number of Electrons    NEL             ....    5
 Basis Dimension        Dim             ....   57
 Nuclear Repulsion      ENuc            ....      0.0000000000 Eh

Convergence Acceleration:
 DIIS                   CNVDIIS         .... on
   Start iteration      DIISMaxIt       ....    12
   Startup error        DIISStart       ....  0.200000
   # of expansion vecs  DIISMaxEq       ....     5
   Bias factor          DIISBfac        ....   1.050
   Max. coefficient     DIISMaxC        ....  10.000
 Newton-Raphson         CNVNR           .... off
 SOSCF                  CNVSOSCF        .... off
 Level Shifting         CNVShift        .... on
   Level shift para.    LevelShift      ....    0.2500
   Turn off err/grad.   ShiftErr        ....    0.0010
 Zerner damping         CNVZerner       .... off
 Static damping         CNVDamp         .... on
   Fraction old density DampFac         ....    0.7000
   Max. Damping (<1)    DampMax         ....    0.9800
   Min. Damping (>=0)   DampMin         ....    0.0000
   Turn off err/grad.   DampErr         ....    0.1000
 Fernandez-Rico         CNVRico         .... off

SCF Procedure:
 Maximum # iterations   MaxIter         ....   125
 SCF integral mode      SCFMode         .... Direct
   Integral package                     .... LIBINT
 Reset frequency        DirectResetFreq ....    20
 Integral Threshold     Thresh          ....  2.500e-11 Eh
 Primitive CutOff       TCut            ....  2.500e-12 Eh

Convergence Tolerance:
 Convergence Check Mode ConvCheckMode   .... Total+1el-Energy
 Convergence forced     ConvForced      .... 1
 Energy Change          TolE            ....  1.000e-08 Eh
 1-El. energy change                    ....  1.000e-05 Eh
 DIIS Error             TolErr          ....  5.000e-07


Diagonalization of the overlap matrix:
Smallest eigenvalue                        ... 6.345e-03
Time for diagonalization                   ...    0.020 sec
Threshold for overlap eigenvalues          ... 1.000e-08
Number of eigenvalues below threshold      ... 0
Time for construction of square roots      ...    0.004 sec
Total time needed                          ...    0.024 sec

-------------------
DFT GRID GENERATION
-------------------

General Integration Accuracy     IntAcc      ...  4.340
Radial Grid Type                 RadialGrid  ... Gauss-Chebyshev
Angular Grid (max. acc.)         AngularGrid ... Lebedev-110
Angular grid pruning method      GridPruning ... 3 (G Style)
Weight generation scheme         WeightScheme... Becke
Basis function cutoff            BFCut       ...    1.0000e-11
Integration weight cutoff        WCut        ...    1.0000e-14
Grids for H and He will be reduced by one unit

# of grid points (after initial pruning)     ...   1678 (   0.0 sec)
# of grid points (after weights+screening)   ...   1678 (   0.0 sec)
Grid point division into batches done        ...    0.0 sec
Reduced shell lists constructed in    0.0 sec

Total number of grid points                  ...     1678
Total number of batches                      ...       27
Average number of points per batch           ...       62
Average number of grid points per atom       ...     1678
Average number of shells per batch           ...    11.00 (64.71%)
Average number of basis functions per batch  ...    43.00 (75.44%)
Average number of large shells per batch     ...     9.50 (86.36%)
Average number of large basis fcns per batch ...    36.70 (85.35%)
Maximum spatial batch extension              ...  20.06, 37.06, 37.06 au
Average spatial batch extension              ...   5.79,  7.44,  8.86 au

Time for grid setup =    0.019 sec

------------------------------
INITIAL GUESS: MODEL POTENTIAL
------------------------------
Loading Hartree-Fock densities                     ... done
Calculating cut-offs                               ... done
Setting up the integral package                    ... done
Initializing the effective Hamiltonian             ... done
Starting the Coulomb interaction                   ... done (   0.0 sec)
Reading the grid                                   ... done
Mapping shells                                     ... done
Starting the XC term evaluation                    ... done (   0.0 sec)
Transforming the Hamiltonian                       ... done (   0.0 sec)
Diagonalizing the Hamiltonian                      ... done (   0.0 sec)
Back transforming the eigenvectors                 ... done (   0.0 sec)
Now organizing SCF variables                       ... done
                      ------------------
                      INITIAL GUESS DONE (   0.1 sec)
                      ------------------
--------------
SCF ITERATIONS
--------------
ITER       Energy         Delta-E        Max-DP      RMS-DP      [F,P]     Damp
               ***  Starting incremental Fock matrix formation  ***
  0    -24.5234923395   0.000000000000 0.00563292  0.00016721  0.2350978 0.7000
  1    -24.5257372381  -0.002244898564 0.00502758  0.00015349  0.1700066 0.7000
                               ***Turning on DIIS***
  2    -24.5275243193  -0.001787081161 0.00407179  0.00012987  0.1219965 0.7000
  3    -24.5229381522   0.004586167074 0.01283805  0.00042210  0.0875314 0.0000
  4    -24.5325776340  -0.009639481769 0.00337859  0.00011654  0.0042052 0.0000
  5    -24.5319977425   0.000579891468 0.00324358  0.00010905  0.0027768 0.0000
  6    -24.5320526350  -0.000054892508 0.00253304  0.00007006  0.0014865 0.0000
  7    -24.5324794375  -0.000426802545 0.00229278  0.00005191  0.0006921 0.0000
  8    -24.5329504293  -0.000470991767 0.00040534  0.00000866  0.0000938 0.0000
  9    -24.5330792888  -0.000128859460 0.00003322  0.00000100  0.0000178 0.0000
 10    -24.5330887185  -0.000009429685 0.00000756  0.00000015  0.0000020 0.0000
                            ***DIIS convergence achieved***

               *****************************************************
               *                     SUCCESS                       *
               *           SCF CONVERGED AFTER  11 CYCLES          *
               *****************************************************


----------------
TOTAL SCF ENERGY
----------------

Total Energy       :          -24.53308875 Eh            -667.57928 eV

Components:
Nuclear Repulsion  :            0.00000000 Eh               0.00000 eV
Electronic Energy  :          -24.53308875 Eh            -667.57928 eV
One Electron Energy:          -32.36889338 Eh            -880.80237 eV
Two Electron Energy:            7.83580463 Eh             213.22308 eV

Virial components:
Potential Energy   :          -49.06636260 Eh           -1335.16360 eV
Kinetic Energy     :           24.53327386 Eh             667.58432 eV
Virial Ratio       :            1.99999245


---------------
SCF CONVERGENCE
---------------

  Last Energy change         ...   -2.8408e-08  Tolerance :   1.0000e-08
  Last MAX-Density change    ...    1.8776e-06  Tolerance :   1.0000e-07
  Last RMS-Density change    ...    3.4884e-08  Tolerance :   5.0000e-09
  Last DIIS Error            ...    3.5527e-07  Tolerance :   5.0000e-07

             **** THE GBW FILE WAS UPDATED (05_B.gbw) ****
             **** DENSITY FILE WAS UPDATED (05_B.scfp) ****
             **** ENERGY FILE WAS UPDATED (05_B.en.tmp) ****
----------------------
UHF SPIN CONTAMINATION
----------------------

Expectation value of <S**2>     :     0.761159
Ideal value S*(S+1) for S=0.5   :     0.750000
Deviation                       :     0.011159

             **** THE GBW FILE WAS UPDATED (05_B.gbw) ****
             **** DENSITY FILE WAS UPDATED (05_B.scfp) ****
----------------
ORBITAL ENERGIES
----------------
                 SPIN UP ORBITALS
  NO   OCC          E(Eh)            E(eV) 
   0   1.0000      -7.701126      -209.5583 
   1   1.0000      -0.545156       -14.8345 
   2   1.0000      -0.318755        -8.6738 
   3   0.0000       0.036248         0.9864 
   4   0.0000       0.036248         0.9864 
   5   0.0000       0.145583         3.9615 
   6   0.0000       0.184807         5.0289 
   7   0.0000       0.184807         5.0289 
   8   0.0000       0.201992         5.4965 
   9   0.0000       0.398689        10.8489 
  10   0.0000       0.400111        10.8876 
  11   0.0000       0.400111        10.8876 
  12   0.0000       0.408164        11.1067 
  13   0.0000       0.408164        11.1067 
  14   0.0000       0.618370        16.8267 
  15   0.0000       0.652781        17.7631 
  16   0.0000       0.652781        17.7631 
  17   0.0000       1.139487        31.0070 
  18   0.0000       1.218742        33.1637 
  19   0.0000       1.218742        33.1637 
  20   0.0000       1.225928        33.3592 
  21   0.0000       1.225928        33.3592 
  22   0.0000       1.230097        33.4726 
  23   0.0000       1.230097        33.4726 
  24   0.0000       1.231463        33.5098 
  25   0.0000       1.323086        36.0030 
  26   0.0000       1.325271        36.0625 
  27   0.0000       1.325271        36.0625 
  28   0.0000       1.334515        36.3140 
  29   0.0000       1.334515        36.3140 
  30   0.0000       2.070583        56.3434 
  31   0.0000       2.084735        56.7285 
  32   0.0000       2.084735        56.7285 
  33   0.0000       3.393736        92.3482 
  34   0.0000       3.393736        92.3482 
  35   0.0000       3.407894        92.7335 
  36   0.0000       3.407894        92.7335 
  37   0.0000       3.418050        93.0099 
  38   0.0000       3.418050        93.0099 
  39   0.0000       3.424157        93.1760 
  40   0.0000       3.424157        93.1760 
  41   0.0000       3.426194        93.2315 
  42   0.0000       3.897992       106.0698 
  43   0.0000       3.897992       106.0698 
  44   0.0000       3.905283       106.2682 
  45   0.0000       3.905283       106.2682 
  46   0.0000       3.907812       106.3370 
  47   0.0000       3.941627       107.2571 
  48   0.0000       3.941627       107.2571 
  49   0.0000       3.955025       107.6217 
  50   0.0000       3.955025       107.6217 
  51   0.0000       3.963048       107.8400 
  52   0.0000       3.963048       107.8400 
  53   0.0000       3.965718       107.9127 
  54   0.0000       4.923451       133.9739 
  55   0.0000      19.074617       519.0467 
  56   0.0000     102.969728      2801.9488 

                 SPIN DOWN ORBITALS
  NO   OCC          E(Eh)            E(eV) 
   0   1.0000      -7.686110      -209.1497 
   1   1.0000      -0.446137       -12.1400 
   2   0.0000       0.044273         1.2047 
   3   0.0000       0.044273         1.2047 
   4   0.0000       0.075444         2.0529 
   5   0.0000       0.192574         5.2402 
   6   0.0000       0.192574         5.2402 
   7   0.0000       0.217028         5.9056 
   8   0.0000       0.226264         6.1569 
   9   0.0000       0.409149        11.1335 
  10   0.0000       0.409149        11.1335 
  11   0.0000       0.430822        11.7233 
  12   0.0000       0.430822        11.7233 
  13   0.0000       0.438976        11.9452 
  14   0.0000       0.661788        18.0082 
  15   0.0000       0.661788        18.0082 
  16   0.0000       0.700602        19.0643 
  17   0.0000       1.165571        31.7168 
  18   0.0000       1.219162        33.1751 
  19   0.0000       1.219162        33.1751 
  20   0.0000       1.243173        33.8285 
  21   0.0000       1.243173        33.8285 
  22   0.0000       1.257963        34.2309 
  23   0.0000       1.257963        34.2309 
  24   0.0000       1.262988        34.3676 
  25   0.0000       1.339206        36.4417 
  26   0.0000       1.339206        36.4417 
  27   0.0000       1.377241        37.4766 
  28   0.0000       1.377241        37.4766 
  29   0.0000       1.391189        37.8562 
  30   0.0000       2.093350        56.9630 
  31   0.0000       2.093350        56.9630 
  32   0.0000       2.136628        58.1406 
  33   0.0000       3.394250        92.3622 
  34   0.0000       3.394250        92.3622 
  35   0.0000       3.420097        93.0656 
  36   0.0000       3.420097        93.0656 
  37   0.0000       3.438924        93.5779 
  38   0.0000       3.438924        93.5779 
  39   0.0000       3.450378        93.8896 
  40   0.0000       3.450378        93.8896 
  41   0.0000       3.454224        93.9942 
  42   0.0000       3.903503       106.2197 
  43   0.0000       3.903503       106.2197 
  44   0.0000       3.942698       107.2863 
  45   0.0000       3.942698       107.2863 
  46   0.0000       3.944378       107.3320 
  47   0.0000       3.944378       107.3320 
  48   0.0000       3.956222       107.6543 
  49   0.0000       3.977527       108.2340 
  50   0.0000       3.977527       108.2340 
  51   0.0000       3.997771       108.7849 
  52   0.0000       3.997771       108.7849 
  53   0.0000       4.004586       108.9703 
  54   0.0000       4.942234       134.4850 
  55   0.0000      19.081741       519.2406 
  56   0.0000     102.971412      2801.9946 

                    ********************************
                    * MULLIKEN POPULATION ANALYSIS *
                    ********************************

--------------------------------------------
MULLIKEN ATOMIC CHARGES AND SPIN POPULATIONS
--------------------------------------------
   0 B :    0.000000    1.000000
Sum of atomic charges         :    0.0000000
Sum of atomic spin populations:    1.0000000

-----------------------------------------------------
MULLIKEN REDUCED ORBITAL CHARGES AND SPIN POPULATIONS
-----------------------------------------------------
CHARGE
  0 B s       :     3.994997  s :     3.994997
      pz      :     0.000041  p :     0.999989
      px      :     0.999881
      py      :     0.000067
      dz2     :     0.001250  d :     0.005003
      dxz     :     0.000001
      dyz     :     0.000000
      dx2y2   :     0.003751
      dxy     :     0.000001
      f0      :     0.000000  f :     0.000011
      f+1     :     0.000004
      f-1     :     0.000000
      f+2     :     0.000000
      f-2     :     0.000000
      f+3     :     0.000007
      f-3     :     0.000000
      g0      :     0.000000  g :     0.000000
      g+1     :     0.000000
      g-1     :     0.000000
      g+2     :     0.000000
      g-2     :     0.000000
      g+3     :     0.000000
      g-3     :     0.000000
      g+4     :     0.000000
      g-4     :     0.000000

SPIN
  0 B s       :    -0.001020  s :    -0.001020
      pz      :     0.000041  p :     0.999989
      px      :     0.999881
      py      :     0.000067
      dz2     :     0.000255  d :     0.001020
      dxz     :     0.000000
      dyz     :     0.000000
      dx2y2   :     0.000765
      dxy     :     0.000000
      f0      :     0.000000  f :     0.000011
      f+1     :     0.000004
      f-1     :     0.000000
      f+2     :     0.000000
      f-2     :     0.000000
      f+3     :     0.000007
      f-3     :     0.000000
      g0      :    -0.000000  g :    -0.000000
      g+1     :    -0.000000
      g-1     :    -0.000000
      g+2     :    -0.000000
      g-2     :    -0.000000
      g+3     :    -0.000000
      g-3     :    -0.000000
      g+4     :    -0.000000
      g-4     :    -0.000000


                     *******************************
                     * LOEWDIN POPULATION ANALYSIS *
                     *******************************

-------------------------------------------
LOEWDIN ATOMIC CHARGES AND SPIN POPULATIONS
-------------------------------------------
   0 B :    0.000000    1.000000

----------------------------------------------------
LOEWDIN REDUCED ORBITAL CHARGES AND SPIN POPULATIONS
----------------------------------------------------
CHARGE
  0 B s       :     3.994997  s :     3.994997
      pz      :     0.000041  p :     0.999989
      px      :     0.999881
      py      :     0.000067
      dz2     :     0.001250  d :     0.005003
      dxz     :     0.000001
      dyz     :     0.000000
      dx2y2   :     0.003751
      dxy     :     0.000001
      f0      :     0.000000  f :     0.000011
      f+1     :     0.000004
      f-1     :     0.000000
      f+2     :     0.000000
      f-2     :     0.000000
      f+3     :     0.000007
      f-3     :     0.000000
      g0      :     0.000000  g :     0.000000
      g+1     :     0.000000
      g-1     :     0.000000
      g+2     :     0.000000
      g-2     :     0.000000
      g+3     :     0.000000
      g-3     :     0.000000
      g+4     :     0.000000
      g-4     :     0.000000

SPIN
  0 B s       :    -0.001020  s :    -0.001020
      pz      :     0.000041  p :     0.999989
      px      :     0.999881
      py      :     0.000067
      dz2     :     0.000255  d :     0.001020
      dxz     :     0.000000
      dyz     :     0.000000
      dx2y2   :     0.000765
      dxy     :     0.000000
      f0      :     0.000000  f :     0.000011
      f+1     :     0.000004
      f-1     :     0.000000
      f+2     :     0.000000
      f-2     :     0.000000
      f+3     :     0.000007
      f-3     :     0.000000
      g0      :    -0.000000  g :    -0.000000
      g+1     :    -0.000000
      g-1     :    -0.000000
      g+2     :    -0.000000
      g-2     :    -0.000000
      g+3     :    -0.000000
      g-3     :    -0.000000
      g+4     :    -0.000000
      g-4     :    -0.000000


                      *****************************
                      * MAYER POPULATION ANALYSIS *
                      *****************************

  NA   - Mulliken gross atomic population
  ZA   - Total nuclear charge
  QA   - Mulliken gross atomic charge
  VA   - Mayer's total valence
  BVA  - Mayer's bonded valence
  FA   - Mayer's free valence

  ATOM       NA         ZA         QA         VA         BVA        FA
  0 B      5.0000     5.0000     0.0000     1.0223     0.0000     1.0223

  Mayer bond orders larger than 0.100000


-------
TIMINGS
-------

Total SCF time: 0 days 0 hours 0 min 1 sec 

Total time                  ....       1.998 sec
Sum of individual times     ....       1.735 sec  ( 86.8%)

Fock matrix formation       ....       1.440 sec  ( 72.1%)
Diagonalization             ....       0.026 sec  (  1.3%)
Density matrix formation    ....       0.002 sec  (  0.1%)
Population analysis         ....       0.025 sec  (  1.3%)
Initial guess               ....       0.085 sec  (  4.3%)
Orbital Transformation      ....       0.000 sec  (  0.0%)
Orbital Orthonormalization  ....       0.000 sec  (  0.0%)
DIIS solution               ....       0.138 sec  (  6.9%)


           ************************************************************
           *        Program running with 3 parallel MPI-processes     *
           *              working on a common directory               *
           ************************************************************


------------------------------------------------------------------------------- 
                              ORCA-MATRIX DRIVEN CI                            
------------------------------------------------------------------------------- 

--------------------------------
AUTOMATIC CHOICE OF INCORE LEVEL
--------------------------------

Memory available                           ...   2500.00 MB
Memory needed for S+T                      ...      0.20 MB
Memory needed for J+K                      ...      0.40 MB
Memory needed for DIIS                     ...      2.80 MB
Memory needed for 3-ext                    ...      2.40 MB
Memory needed for 4-ext                    ...     33.04 MB
Memory needed for triples                  ...      6.01 MB
 -> Final InCoreLevel    ... 5
 -> check shows that triples correction can be computed


Wavefunction type
-----------------
Correlation treatment                      ...      CCSD     
Single excitations                         ... ON
Orbital optimization                       ... OFF
Calculation of Z vector                    ... OFF
Calculation of Brueckner orbitals          ... OFF
Perturbative triple excitations            ... ON
Calculation of F12 correction              ... OFF
Frozen core treatment                      ... chemical core (2 el)
Reference Wavefunction                     ... UHF
  Alpha-MOs occ    :     1 ...    2 (  2 MO's/  2 electrons)
  Beta-MOs occ     :     1 ...    1 (  1 MO's/  1 electrons)
  Alpha-MOs virt   :     3 ...   56 ( 54 MO's              )
  Beta-MOs virt    :     2 ...   56 ( 55 MO's              )
Number of AO's                             ...     57
Number of electrons                        ...      5
Number of correlated electrons             ...      3

Algorithmic settings
--------------------
Integral transformation                    ... AO direct full transformation
K(C) Formation                             ... FULL-MO TRAFO
Maximum number of iterations               ...        50
Convergence tolerance (max. residuum)      ... 1.000e-05
Level shift for amplitude update           ... 2.000e-01
Maximum number of DIIS vectors             ...         7
DIIS turned on at iteration                ...         0
Damping before turning on DIIS             ...     0.500
Damping after turning on DIIS              ...     0.000
Pair specific amplitude update             ... OFF
Natural orbital iterations                 ... OFF
Perturbative natural orbital generation    ... OFF
Printlevel                                 ... 2

Memory handling:
----------------
Maximum memory for working arrays          ...   2500 MB
Data storage in matrix containers          ... UNCOMPRESSED
Data type for integral storage             ... DOUBLE
In-Core Storage of quantities:
   Amplitudes+Sigma Vector      ... YES
   J+K operators                ... YES
   DIIS vectors                 ... YES
   3-external integrals         ... YES
   4-external integrals         ... YES


Initializing the integral package          ... done
Warning: reference  - re-canonicalizations have been set to INT 1 VIRT 1

--------------------------
UNRESTRICTED FOCK OPERATOR
--------------------------

<ss|ss>:          406 b            0 skpd (  0.0%)    0.000 s ( 0.001 ms/b)
<ss|sp>:          784 b            0 skpd (  0.0%)    0.001 s ( 0.001 ms/b)
<ss|sd>:          588 b            0 skpd (  0.0%)    0.000 s ( 0.000 ms/b)
<ss|sf>:          392 b            0 skpd (  0.0%)    0.000 s ( 0.001 ms/b)
<ss|sg>:          196 b            0 skpd (  0.0%)    0.000 s ( 0.001 ms/b)
<ss|pp>:          280 b            0 skpd (  0.0%)    0.000 s ( 0.001 ms/b)
<ss|pd>:          336 b            0 skpd (  0.0%)    0.000 s ( 0.001 ms/b)
<ss|pf>:          224 b            0 skpd (  0.0%)    0.000 s ( 0.001 ms/b)
<ss|pg>:          112 b            0 skpd (  0.0%)    0.000 s ( 0.002 ms/b)
<ss|dd>:          168 b            0 skpd (  0.0%)    0.000 s ( 0.001 ms/b)
<ss|df>:          168 b            0 skpd (  0.0%)    0.000 s ( 0.001 ms/b)
<ss|dg>:           84 b            0 skpd (  0.0%)    0.000 s ( 0.001 ms/b)
<ss|ff>:           84 b            0 skpd (  0.0%)    0.000 s ( 0.001 ms/b)
<ss|fg>:           56 b            0 skpd (  0.0%)    0.000 s ( 0.003 ms/b)
<ss|gg>:           28 b            0 skpd (  0.0%)    0.000 s ( 0.009 ms/b)
<sp|sp>:          406 b            0 skpd (  0.0%)    0.000 s ( 0.001 ms/b)
<sp|sd>:          588 b            0 skpd (  0.0%)    0.000 s ( 0.001 ms/b)
<sp|sf>:          392 b            0 skpd (  0.0%)    0.001 s ( 0.001 ms/b)
<sp|sg>:          196 b            0 skpd (  0.0%)    0.000 s ( 0.002 ms/b)
<sp|pp>:          280 b            0 skpd (  0.0%)    0.001 s ( 0.002 ms/b)
<sp|pd>:          336 b            0 skpd (  0.0%)    0.000 s ( 0.001 ms/b)
<sp|pf>:          224 b            0 skpd (  0.0%)    0.001 s ( 0.002 ms/b)
<sp|pg>:          112 b            0 skpd (  0.0%)    0.000 s ( 0.004 ms/b)
<sp|dd>:          168 b            0 skpd (  0.0%)    0.000 s ( 0.002 ms/b)
<sp|df>:          168 b            0 skpd (  0.0%)    0.000 s ( 0.002 ms/b)
<sp|dg>:           84 b            0 skpd (  0.0%)    0.000 s ( 0.003 ms/b)
<sp|ff>:           84 b            0 skpd (  0.0%)    0.000 s ( 0.003 ms/b)
<sp|fg>:           56 b            0 skpd (  0.0%)    0.000 s ( 0.008 ms/b)
<sp|gg>:           28 b            0 skpd (  0.0%)    0.001 s ( 0.019 ms/b)
<sd|sd>:          231 b            0 skpd (  0.0%)    0.000 s ( 0.001 ms/b)
<sd|sf>:          294 b            0 skpd (  0.0%)    0.000 s ( 0.002 ms/b)
<sd|sg>:          147 b            0 skpd (  0.0%)    0.000 s ( 0.002 ms/b)
<sd|pp>:          210 b            0 skpd (  0.0%)    0.001 s ( 0.003 ms/b)
<sd|pd>:          252 b            0 skpd (  0.0%)    0.000 s ( 0.002 ms/b)
<sd|pf>:          168 b            0 skpd (  0.0%)    0.001 s ( 0.003 ms/b)
<sd|pg>:           84 b            0 skpd (  0.0%)    0.000 s ( 0.005 ms/b)
<sd|dd>:          126 b            0 skpd (  0.0%)    0.000 s ( 0.003 ms/b)
<sd|df>:          126 b            0 skpd (  0.0%)    0.001 s ( 0.004 ms/b)
<sd|dg>:           63 b            0 skpd (  0.0%)    0.000 s ( 0.006 ms/b)
<sd|ff>:           63 b            0 skpd (  0.0%)    0.000 s ( 0.006 ms/b)
<sd|fg>:           42 b            0 skpd (  0.0%)    0.001 s ( 0.012 ms/b)
<sd|gg>:           21 b            0 skpd (  0.0%)    0.001 s ( 0.034 ms/b)
<sf|sf>:          105 b            0 skpd (  0.0%)    0.000 s ( 0.004 ms/b)
<sf|sg>:           98 b            0 skpd (  0.0%)    0.000 s ( 0.004 ms/b)
<sf|pp>:          140 b            0 skpd (  0.0%)    0.001 s ( 0.005 ms/b)
<sf|pd>:          168 b            0 skpd (  0.0%)    0.000 s ( 0.003 ms/b)
<sf|pf>:          112 b            0 skpd (  0.0%)    0.001 s ( 0.006 ms/b)
<sf|pg>:           56 b            0 skpd (  0.0%)    0.001 s ( 0.011 ms/b)
<sf|dd>:           84 b            0 skpd (  0.0%)    0.000 s ( 0.004 ms/b)
<sf|df>:           84 b            0 skpd (  0.0%)    0.001 s ( 0.007 ms/b)
<sf|dg>:           42 b            0 skpd (  0.0%)    0.000 s ( 0.009 ms/b)
<sf|ff>:           42 b            0 skpd (  0.0%)    0.001 s ( 0.013 ms/b)
<sf|fg>:           28 b            0 skpd (  0.0%)    0.001 s ( 0.024 ms/b)
<sf|gg>:           14 b            0 skpd (  0.0%)    0.001 s ( 0.064 ms/b)
<sg|sg>:           28 b            0 skpd (  0.0%)    0.000 s ( 0.010 ms/b)
<sg|pp>:           70 b            0 skpd (  0.0%)    0.001 s ( 0.009 ms/b)
<sg|pd>:           84 b            0 skpd (  0.0%)    0.000 s ( 0.005 ms/b)
<sg|pf>:           56 b            0 skpd (  0.0%)    0.001 s ( 0.010 ms/b)
<sg|pg>:           28 b            0 skpd (  0.0%)    0.001 s ( 0.023 ms/b)
<sg|dd>:           42 b            0 skpd (  0.0%)    0.000 s ( 0.006 ms/b)
<sg|df>:           42 b            0 skpd (  0.0%)    0.000 s ( 0.010 ms/b)
<sg|dg>:           21 b            0 skpd (  0.0%)    0.000 s ( 0.018 ms/b)
<sg|ff>:           21 b            0 skpd (  0.0%)    0.000 s ( 0.017 ms/b)
<sg|fg>:           14 b            0 skpd (  0.0%)    0.001 s ( 0.044 ms/b)
<sg|gg>:            7 b            0 skpd (  0.0%)    0.001 s ( 0.117 ms/b)
<pp|pp>:           55 b            0 skpd (  0.0%)    0.000 s ( 0.008 ms/b)
<pp|pd>:          120 b            0 skpd (  0.0%)    0.000 s ( 0.004 ms/b)
<pp|pf>:           80 b            0 skpd (  0.0%)    0.001 s ( 0.006 ms/b)
<pp|pg>:           40 b            0 skpd (  0.0%)    0.000 s ( 0.010 ms/b)
<pp|dd>:           60 b            0 skpd (  0.0%)    0.000 s ( 0.004 ms/b)
<pp|df>:           60 b            0 skpd (  0.0%)    0.000 s ( 0.007 ms/b)
<pp|dg>:           30 b            0 skpd (  0.0%)    0.000 s ( 0.010 ms/b)
<pp|ff>:           30 b            0 skpd (  0.0%)    0.000 s ( 0.011 ms/b)
<pp|fg>:           20 b            0 skpd (  0.0%)    0.000 s ( 0.023 ms/b)
<pp|gg>:           10 b            0 skpd (  0.0%)    0.001 s ( 0.060 ms/b)
<pd|pd>:           78 b            0 skpd (  0.0%)    0.001 s ( 0.006 ms/b)
<pd|pf>:           96 b            0 skpd (  0.0%)    0.001 s ( 0.008 ms/b)
<pd|pg>:           48 b            0 skpd (  0.0%)    0.001 s ( 0.013 ms/b)
<pd|dd>:           72 b            0 skpd (  0.0%)    0.001 s ( 0.008 ms/b)
<pd|df>:           72 b            0 skpd (  0.0%)    0.001 s ( 0.012 ms/b)
<pd|dg>:           36 b            0 skpd (  0.0%)    0.001 s ( 0.016 ms/b)
<pd|ff>:           36 b            0 skpd (  0.0%)    0.001 s ( 0.016 ms/b)
<pd|fg>:           24 b            0 skpd (  0.0%)    0.001 s ( 0.035 ms/b)
<pd|gg>:           12 b            0 skpd (  0.0%)    0.001 s ( 0.094 ms/b)
<pf|pf>:           36 b            0 skpd (  0.0%)    0.001 s ( 0.015 ms/b)
<pf|pg>:           32 b            0 skpd (  0.0%)    0.001 s ( 0.024 ms/b)
<pf|dd>:           48 b            0 skpd (  0.0%)    0.000 s ( 0.009 ms/b)
<pf|df>:           48 b            0 skpd (  0.0%)    0.001 s ( 0.018 ms/b)
<pf|dg>:           24 b            0 skpd (  0.0%)    0.001 s ( 0.023 ms/b)
<pf|ff>:           24 b            0 skpd (  0.0%)    0.001 s ( 0.034 ms/b)
<pf|fg>:           16 b            0 skpd (  0.0%)    0.001 s ( 0.063 ms/b)
<pf|gg>:            8 b            0 skpd (  0.0%)    0.001 s ( 0.160 ms/b)
<pg|pg>:           10 b            0 skpd (  0.0%)    0.001 s ( 0.051 ms/b)
<pg|dd>:           24 b            0 skpd (  0.0%)    0.000 s ( 0.015 ms/b)
<pg|df>:           24 b            0 skpd (  0.0%)    0.001 s ( 0.025 ms/b)
<pg|dg>:           12 b            0 skpd (  0.0%)    0.001 s ( 0.044 ms/b)
<pg|ff>:           12 b            0 skpd (  0.0%)    0.000 s ( 0.040 ms/b)
<pg|fg>:            8 b            0 skpd (  0.0%)    0.001 s ( 0.105 ms/b)
<pg|gg>:            4 b            0 skpd (  0.0%)    0.001 s ( 0.266 ms/b)
<dd|dd>:           21 b            0 skpd (  0.0%)    0.000 s ( 0.013 ms/b)
<dd|df>:           36 b            0 skpd (  0.0%)    0.001 s ( 0.017 ms/b)
<dd|dg>:           18 b            0 skpd (  0.0%)    0.000 s ( 0.024 ms/b)
<dd|ff>:           18 b            0 skpd (  0.0%)    0.000 s ( 0.025 ms/b)
<dd|fg>:           12 b            0 skpd (  0.0%)    0.001 s ( 0.054 ms/b)
<dd|gg>:            6 b            0 skpd (  0.0%)    0.001 s ( 0.140 ms/b)
<df|df>:           21 b            0 skpd (  0.0%)    0.001 s ( 0.037 ms/b)
<df|dg>:           18 b            0 skpd (  0.0%)    0.001 s ( 0.040 ms/b)
<df|ff>:           18 b            0 skpd (  0.0%)    0.001 s ( 0.054 ms/b)
<df|fg>:           12 b            0 skpd (  0.0%)    0.001 s ( 0.099 ms/b)
<df|gg>:            6 b            0 skpd (  0.0%)    0.002 s ( 0.256 ms/b)
<dg|dg>:            6 b            0 skpd (  0.0%)    0.001 s ( 0.089 ms/b)
<dg|ff>:            9 b            0 skpd (  0.0%)    0.001 s ( 0.060 ms/b)
<dg|fg>:            6 b            0 skpd (  0.0%)    0.001 s ( 0.153 ms/b)
<dg|gg>:            3 b            0 skpd (  0.0%)    0.001 s ( 0.386 ms/b)
<ff|ff>:            6 b            0 skpd (  0.0%)    0.001 s ( 0.090 ms/b)
<ff|fg>:            6 b            0 skpd (  0.0%)    0.001 s ( 0.160 ms/b)
<ff|gg>:            3 b            0 skpd (  0.0%)    0.002 s ( 0.595 ms/b)
<fg|fg>:            3 b            0 skpd (  0.0%)    0.001 s ( 0.318 ms/b)
<fg|gg>:            2 b            0 skpd (  0.0%)    0.001 s ( 0.698 ms/b)
<gg|gg>:            1 b            0 skpd (  0.0%)    0.001 s ( 1.152 ms/b)
Recanonicalizing the internal orbitals
Recanonicalizing the virtual orbitals
Time needed for Fock operator              ...            0.102 sec
Reference energy                           ...    -24.533088925
Warning: for UHF the TrafoType has to be JK
Warning: for UHF the K(C)-option cannot be MO but must be AOX

-------------------------------
PARTIAL EXCHANGE TRANSFORMATION
-------------------------------

Transformation type                        ... two-operators
Generation of integrals (i,mue|j,nue)      ... ON
Generation of integrals (mue,kappa|nue,tau)... ON
Generation of integrals (i,mue|a,nue)      ... ON
Dimension of the basis                     ...   57
Number of internal alpha-MOs               ...    2 (   1-   2)
Number of internal beta-MOs                ...    1 (   1-   1)
Number of external alpha-MOs               ...   54 (   3-  56)
Number of external beta-MOs                ...   55 (   2-  56)
Pair cutoff                                ... 0.000e+00 Eh
Number of AO pairs in the trafo            ... 1653
Total Number of distinct AO pairs          ... 1653
Memory devoted for trafo                   ... 2500.0 MB 
Max. Number of MO pairs treated together   ... 100855      
Number Format for Storage                  ... Double (8 Byte)
Integral package used                      ... LIBINT

Starting integral evaluation:
    ... done with AO integral generation
Closing buffer AOK[aa] ( 0.00 GB; CompressionRatio= 0.73)
Closing buffer AOK[bb] ( 0.00 GB; CompressionRatio= 0.40)
Closing buffer AOK[ab] ( 0.00 GB; CompressionRatio= 0.57)
Closing buffer AOK[ba] ( 0.00 GB; CompressionRatio= 0.57)
Collecting buffer AOK 
Closing buffer IAAO1[aa] ( 0.00 GB; CompressionRatio= 0.99)
Closing buffer IAAO1[bb] ( 0.00 GB; CompressionRatio= 0.97)
Closing buffer IAAO1[ab] ( 0.00 GB; CompressionRatio= 0.99)
Closing buffer IAAO1[ba] ( 0.00 GB; CompressionRatio= 0.97)
Closing buffer IAAO2[aa] ( 0.00 GB; CompressionRatio= 0.99)
Closing buffer IAAO2[bb] ( 0.00 GB; CompressionRatio= 0.97)
Closing buffer IAAO2[ab] ( 0.00 GB; CompressionRatio= 0.99)
Closing buffer IAAO2[ba] ( 0.00 GB; CompressionRatio= 0.97)
Collecting buffer IAAO 
Closing buffer PRQS    ( 0.01 GB; CompressionRatio= 1.00)
Collecting buffer PRQS 
Number of alpha/alpha MO pairs in trafo    ...    3
Number of beta /beta  MO pairs in trafo    ...    1
Number of alpha/ beta MO pairs in trafo    ...    2
------------------------
SORTING OF (i,mue|j,nue)
------------------------

SORTING OF ALPHA/ALPHA PAIRS
IBATCH = 1 of  1
Closing buffer KAO[aa] ( 0.00 GB; CompressionRatio= 1.00)
Collecting buffer KAO 
SORTING OF BETA /BETA  PAIRS
IBATCH = 1 of  1
Closing buffer KAO[bb] ( 0.00 GB; CompressionRatio= 1.00)
Collecting buffer KAO 
SORTING OF ALPHA/BETA  PAIRS
IBATCH = 1 of  1
Closing buffer KAO[ab] ( 0.00 GB; CompressionRatio= 0.999538532533)
Collecting buffer KAO[ab] 
------------------------
SORTING OF (i,mue|a,nue)
------------------------

Number of alpha/alpha (i,a) pairs in trafo  ...  108
Number of beta /beta  (i,a) pairs in trafo  ...   55
Number of alpha/ beta (i,a) pairs in trafo  ...  110
Number of beta /alpha (i,a) pairs in trafo  ...   54
Setting up the alpha/alpha list             ... done
Setting up the beta /beta  list             ... done
Setting up the alpha/beta  list             ... done
Setting up the beta /alpha list             ... done
    ... Now sorting (i,mue|a,nue)integrals
    ... Integrals (i,b|a,c) will be made on the fly
SORTING OF ALPHA/ALPHA PAIRS
IBATCH = 1 of  1
Closing buffer IPAQ[aa]  0.00 GB; CompressionRatio= 1.00)
SORTING OF BETA /BETA  PAIRS
IBATCH = 1 of  1
Closing buffer IPAQ[bb]( 0.00 GB; CompressionRatio= 1.00)
SORTING OF ALPHA/BETA  PAIRS (NMatSort_ab=37)
IBATCH = 1 of  1
Closing buffer IPAQ[ab]( 0.00 GB; CompressionRatio= 1.00)
SORTING OF BETA/ALPHA  PAIRS
IBATCH = 1 of  1
Closing buffer IPAQ[ba]( 0.00 GB; CompressionRatio= 1.00)
N(AO-Batches) Done                         ...     13005 
N(AO-Batches) Skipped                      ...         0 
N(IJ)-pairs Skipped                        ...         0 
TOTAL TIME for half transformation         ...     3.615 sec
AO-integral generation                     ...     0.204 sec
Half transformation                        ...     2.447 sec
K-integral sorting                         ...     0.130 sec
<ss|**>: 
------------------------------
PARTIAL COULOMB TRANSFORMATION
------------------------------

Transformation type                        ... two-operators
Dimension of the basis                     ...   57
Number of internal alpha-MOs               ...    2 (1-2)
Number of internal beta-MOs                ...    1 (1-1)
Pair cutoff                                ... 0.000e+00 Eh
Number of AO pairs included in the trafo   ... 1653
Total Number of distinct AO pairs          ... 1653
Memory devoted for trafo                   ... 2500.0 MB 
Max. Number of MO pairs treated together   ... 198233      
Max. Number of MOs treated per batch       ... 3477      
Number Format for Storage                  ... Double (8 Byte)
AO-integral source                         ... DIRECT
Integral package used                      ... LIBINT

Starting integral evaluation:
<sp|**>:         4284 b        0 skpd     0.011 s (  0.003 ms/b)
        4284 b        0 skpd     0.038 s (  0.009 ms/b)
<sd|**>: <sf|**>:         3213 b        0 skpd     0.038 s (  0.012 ms/b)
<sg|**>:         2142 b        0 skpd     0.049 s (  0.023 ms/b)
        1071 b        0 skpd     0.028 s (  0.026 ms/b)
<pp|**>: <pd|**>:         1530 b        0 skpd     0.034 s (  0.022 ms/b)
        1836 b        0 skpd     0.061 s (  0.033 ms/b)
<pf|**>:         1224 b        0 skpd     0.069 s (  0.056 ms/b)
<pg|**>:          612 b        0 skpd     0.044 s (  0.072 ms/b)
<dd|**>:          918 b        0 skpd     0.040 s (  0.044 ms/b)
<df|**>:          918 b        0 skpd     0.075 s (  0.081 ms/b)
<dg|**>:          459 b        0 skpd     0.050 s (  0.109 ms/b)
<ff|**>:          459 b        0 skpd     0.053 s (  0.116 ms/b)
<fg|**>:          306 b        0 skpd     0.064 s (  0.208 ms/b)
<gg|**>:          153 b        0 skpd     0.038 s (  0.246 ms/b)
Closing buffer AOJ[aa] ( 0.00 GB; CompressionRatio= 0.67)
Closing buffer AOJ[bb] ( 0.00 GB; CompressionRatio= 0.00)
Collecting buffer AOJ 
    ... done with AO integral generation
Number of Alpha-MO pairs included          ...    3
Number of Beta-MO pairs included           ...    1
    ... Now sorting integrals
SORTING ALPHA/ALPHA PAIRS
IBATCH = 1 of  1
Closing buffer JAO[aa] ( 0.00 GB; CompressionRatio= 1.00)
SORTING BETA/BETA PAIRS
IBATCH = 1 of  1
Closing buffer JAO[bb] ( 0.00 GB; CompressionRatio= 1.00)
Collecting buffer JAO 
TOTAL TIME for half transformation         ...     0.719 sec
AO-integral generation                     ...     0.269 sec
Half transformation                        ...     0.424 sec
J-integral sorting                         ...     0.018 sec

-------------------------- SECOND HALF TRANSFORMATION -------------------------
Formation of (ij|kl),(ij|ka), (ij|ab)      ... ok (     0.015 sec)
Formation of (ik|jl),(ik|ja), (ia|jb)      ... ok (     0.023 sec)


-----------------------
SPIN UNRESTRICTED GUESS
-----------------------

Entering MDCI_UHF_Guess, Tailored=0
Spin-components of the MP2 energy:
EMP2(aa)=     -0.003380803
EMP2(bb)=      0.000000000
EMP2(ab)=     -0.043318827

Initial guess performed in     0.001 sec
E(0)                                       ...    -24.533088925
E(MP2)                                     ...     -0.046699630
Initial E(tot)                             ...    -24.579788555
<T|T>                                      ...      0.026607450
Number of pairs included                   ... 3

------------------------------------------------
                  UHF COUPLED CLUSTER ITERATIONS
------------------------------------------------

Number of amplitudes to be optimized       ...         7479

Iter       E(tot)           E(Corr)          Delta-E          Residual     Time      <S|S>**1/2
  0    -24.579788555     -0.046699630     -0.000000000      0.021387146    0.11      0.000000142
                           *** Turning on DIIS ***
  1    -24.589075953     -0.055987029     -0.009287399      0.013221916    0.09      0.010250657
  2    -24.597084230     -0.063995305     -0.008008276      0.004376029    0.09      0.021005625
  3    -24.599017972     -0.065929048     -0.001933743      0.001019441    0.09      0.025314379
  4    -24.599243025     -0.066154100     -0.000225052      0.000240792    0.09      0.026166708
  5    -24.599294470     -0.066205545     -0.000051445      0.000052277    0.09      0.026272028
  6    -24.599291449     -0.066202524      0.000003021      0.000020774    0.09      0.026247657
  7    -24.599291475     -0.066202550     -0.000000026      0.000007815    0.09      0.026236711
               --- The Coupled-Cluster iterations have converged ---

----------------------
COUPLED CLUSTER ENERGY
----------------------

E(0)                                       ...    -24.533088925
E(CORR)                                    ...     -0.066202550
E(TOT)                                     ...    -24.599291475
Singles norm <S|S>**1/2                    ...      0.026236711 ( 0.018627753, 0.007608958)  
T1 diagnostic                              ...      0.015147772                              

------------------
LARGEST AMPLITUDES
------------------
   1a->  4a   1b->  2b       0.092327
   1a->  3a   1b->  3b       0.092327
   1a->  3a   1b->  5b       0.069608
   1a->  4a   1b->  6b       0.069608
   1a->  6a   1b->  2b       0.064609
   1a->  7a   1b->  3b       0.064609
   1a->  7a   1b->  5b       0.048908
   1a->  6a   1b->  6b       0.048908
   2a->  9a   1b->  8b       0.039680
   2a-> 10a   1b->  2b       0.038930
   2a-> 11a   1b->  3b       0.038930
   2a->  9a   1b->  4b       0.038607
   2a-> 14a   1b->  7b       0.030004
   2a-> 11a   1b->  5b       0.028693
   2a-> 10a   1b->  6b       0.028693
   2a-> 25a   1b->  8b       0.027508

----------------------
UHF TRIPLES CORRECTION (Algorithm 1)
----------------------

Multiplier for the singles contribution    ...      1.000000000

SPIN-CASE Alpha-Alpha-Alpha:

SPIN-CASE Beta-Beta-Beta:

SPIN-CASE Alpha-Alpha-Beta:
10% done
20% done
30% done
40% done
50% done
60% done
70% done
80% done
90% done


SPIN-CASE Beta-Beta-Alpha:

Triples Correction (T)                     ...     -0.001446231
    alpha-alpha-alpha ...  0.000000000 ( -0.0%)
    alpha-alpha-beta  ... -0.001446231 (100.0%)
    alpha-beta -beta  ...  0.000000000 ( -0.0%)
    beta -beta -beta  ...  0.000000000 ( -0.0%)
Scaling of triples based on CCSD energies (Peterson et al. Molecular Physics 113, 1551 (2015))
E(T*) = f*E(T) where f = E(F12-CCSD)/E(CCSD) 
f = CCSD (with F12)/ CCSD (without F12)    ...      1.000000000
Scaled triples correction (T)              ...     -0.001446231

Final correlation energy                   ...     -0.067648781
E(CCSD)                                    ...    -24.599291475
E(CCSD(T))                                 ...    -24.600737706



        !!!!!!!!!!!!!!!!!!!!!!!!!!!!!!!!!!!!!!!!!!!!!!!!!!!!!!!!!!!!!!!!!!!!!!!!!! 
        !  Warning: Densities are linearized densities                           !
        !!!!!!!!!!!!!!!!!!!!!!!!!!!!!!!!!!!!!!!!!!!!!!!!!!!!!!!!!!!!!!!!!!!!!!!!!! 

NORM  =      1.072907379 sqrt=     1.035812425
W(HF) =      0.932046903
------------------------------------------------------------------------------
                           ORCA POPULATION ANALYSIS
------------------------------------------------------------------------------
Input electron density              ... 05_B.mdcip
Input spin density                  ... 05_B.mdcir
BaseName (.gbw .S,...)              ... 05_B

                    ********************************
                    * MULLIKEN POPULATION ANALYSIS *
                    ********************************

------------------------------------------
MULLIKEN ATOMIC CHARGES AND SPIN DENSITIES
------------------------------------------
   0 B :    0.000000    1.000000
Sum of atomic charges       :    0.0000000
Sum of atomic spin densities:    1.0000000

---------------------------------------------------
MULLIKEN REDUCED ORBITAL CHARGES AND SPIN DENSITIES
---------------------------------------------------
CHARGE
  0 B s       :     3.882833  s :     3.882833
      pz      :     0.052233  p :     1.095195
      px      :     0.990706
      py      :     0.052256
      dz2     :     0.002188  d :     0.021142
      dxz     :     0.006310
      dyz     :     0.000229
      dx2y2   :     0.006106
      dxy     :     0.006310
      f0      :     0.000075  f :     0.000757
      f+1     :     0.000132
      f-1     :     0.000028
      f+2     :     0.000112
      f-2     :     0.000096
      f+3     :     0.000157
      f-3     :     0.000158
      g0      :     0.000006  g :     0.000073
      g+1     :     0.000010
      g-1     :     0.000003
      g+2     :     0.000007
      g-2     :     0.000007
      g+3     :     0.000009
      g-3     :     0.000009
      g+4     :     0.000011
      g-4     :     0.000011

SPIN
  0 B s       :     0.017057  s :     0.017057
      pz      :    -0.001788  p :     0.973036
      px      :     0.976587
      py      :    -0.001763
      dz2     :     0.000963  d :     0.009510
      dxz     :     0.002818
      dyz     :    -0.000021
      dx2y2   :     0.002932
      dxy     :     0.002818
      f0      :     0.000033  f :     0.000372
      f+1     :     0.000067
      f-1     :     0.000005
      f+2     :     0.000056
      f-2     :     0.000043
      f+3     :     0.000084
      f-3     :     0.000084
      g0      :     0.000002  g :     0.000026
      g+1     :     0.000003
      g-1     :     0.000000
      g+2     :     0.000002
      g-2     :     0.000002
      g+3     :     0.000003
      g-3     :     0.000003
      g+4     :     0.000004
      g-4     :     0.000004


                     *******************************
                     * LOEWDIN POPULATION ANALYSIS *
                     *******************************

-----------------------------------------
LOEWDIN ATOMIC CHARGES AND SPIN DENSITIES
-----------------------------------------
   0 B :    0.000000    1.000000

--------------------------------------------------
LOEWDIN REDUCED ORBITAL CHARGES AND SPIN DENSITIES
--------------------------------------------------
CHARGE
  0 B s       :     3.882833  s :     3.882833
      pz      :     0.052233  p :     1.095195
      px      :     0.990706
      py      :     0.052256
      dz2     :     0.002188  d :     0.021142
      dxz     :     0.006310
      dyz     :     0.000229
      dx2y2   :     0.006106
      dxy     :     0.006310
      f0      :     0.000075  f :     0.000757
      f+1     :     0.000132
      f-1     :     0.000028
      f+2     :     0.000112
      f-2     :     0.000096
      f+3     :     0.000157
      f-3     :     0.000158
      g0      :     0.000006  g :     0.000073
      g+1     :     0.000010
      g-1     :     0.000003
      g+2     :     0.000007
      g-2     :     0.000007
      g+3     :     0.000009
      g-3     :     0.000009
      g+4     :     0.000011
      g-4     :     0.000011

SPIN
  0 B s       :     0.017057  s :     0.017057
      pz      :    -0.001788  p :     0.973036
      px      :     0.976587
      py      :    -0.001763
      dz2     :     0.000963  d :     0.009510
      dxz     :     0.002818
      dyz     :    -0.000021
      dx2y2   :     0.002932
      dxy     :     0.002818
      f0      :     0.000033  f :     0.000372
      f+1     :     0.000067
      f-1     :     0.000005
      f+2     :     0.000056
      f-2     :     0.000043
      f+3     :     0.000084
      f-3     :     0.000084
      g0      :     0.000002  g :     0.000026
      g+1     :     0.000003
      g-1     :     0.000000
      g+2     :     0.000002
      g-2     :     0.000002
      g+3     :     0.000003
      g-3     :     0.000003
      g+4     :     0.000004
      g-4     :     0.000004


                      *****************************
                      * MAYER POPULATION ANALYSIS *
                      *****************************

  NA   - Mulliken gross atomic population
  ZA   - Total nuclear charge
  QA   - Mulliken gross atomic charge
  VA   - Mayer's total valence
  BVA  - Mayer's bonded valence
  FA   - Mayer's free valence

  ATOM       NA         ZA         QA         VA         BVA        FA
  0 B      5.0000     5.0000     0.0000     1.5060     0.0000     1.5060





------------------------------------------------------------------------------- 
                                     TIMINGS                                   
------------------------------------------------------------------------------- 


Total execution time                   ...        5.467 sec

Fock Matrix Formation                  ...        0.102 sec (  1.9%)
Initial Guess                          ...        0.001 sec (  0.0%)
DIIS Solver                            ...        0.004 sec (  0.1%)
State Vector Update                    ...        0.000 sec (  0.0%)
Sigma-vector construction              ...        0.751 sec ( 13.7%)
  <D|H|D>(2-ext)                       ...        0.001 sec (  0.1% of sigma)
  <D|H|D>(4-ext)                       ...        0.309 sec ( 41.1% of sigma)
  <S|H|0>                              ...        0.001 sec (  0.1% of sigma)
  <D|H|S>(1-ext)                       ...        0.001 sec (  0.1% of sigma)
  Fock-dressing                        ...        0.382 sec ( 50.8% of sigma)
  (ij|ab),(ia|jb)-dressing             ...        0.034 sec (  4.5% of sigma)
Total Time for computing (T)           ...        0.013 sec (  0.2% of ALL)
  I/O of integral and amplitudes       ...        0.003 sec ( 24.4% of (T))
  External N**7 contributions          ...        0.002 sec ( 15.9% of (T))
  N**6 triples energy contributions    ...        0.003 sec ( 23.4% of (T))


-------------------------   --------------------
FINAL SINGLE POINT ENERGY       -24.600737705834
-------------------------   --------------------


                            ***************************************
                            *     ORCA property calculations      *
                            ***************************************

                                    ---------------------
                                    Active property flags
                                    ---------------------
   (+) Dipole Moment


------------------------------------------------------------------------------
                       ORCA ELECTRIC PROPERTIES CALCULATION
------------------------------------------------------------------------------

Dipole Moment Calculation                       ... on
Quadrupole Moment Calculation                   ... off
Polarizability Calculation                      ... off
GBWName                                         ... 05_B.gbw
Electron density file                           ... 05_B.scfp
The origin for moment calculation is the CENTER OF MASS  = ( 0.000000,  0.000000  0.000000)

-------------
DIPOLE MOMENT
-------------
                                X             Y             Z
Electronic contribution:     -0.00000       0.00000       0.00000
Nuclear contribution   :      0.00000       0.00000       0.00000
                        -----------------------------------------
Total Dipole Moment    :     -0.00000       0.00000       0.00000
                        -----------------------------------------
Magnitude (a.u.)       :      0.00000
Magnitude (Debye)      :      0.00000



--------------------
Rotational spectrum 
--------------------
 
Rotational constants in cm-1:     0.000000     0.000000     0.000000 
Rotational constants in MHz :     0.000000     0.000000     0.000000 

 Dipole components along the rotational axes: 
x,y,z [a.u.] :    -0.000000     0.000000     0.000000 
x,y,z [Debye]:    -0.000000     0.000000     0.000000 

 

                           *** MDCI DENSITY ***

------------------------------------------------------------------------------
                       ORCA ELECTRIC PROPERTIES CALCULATION
------------------------------------------------------------------------------

Dipole Moment Calculation                       ... on
Quadrupole Moment Calculation                   ... off
Polarizability Calculation                      ... off
GBWName                                         ... 05_B.gbw
Electron density file                           ... 05_B.mdcip
The origin for moment calculation is the CENTER OF MASS  = ( 0.000000,  0.000000  0.000000)

-------------
DIPOLE MOMENT
-------------
                                X             Y             Z
Electronic contribution:     -0.00000       0.00000       0.00000
Nuclear contribution   :      0.00000       0.00000       0.00000
                        -----------------------------------------
Total Dipole Moment    :     -0.00000       0.00000       0.00000
                        -----------------------------------------
Magnitude (a.u.)       :      0.00000
Magnitude (Debye)      :      0.00000



--------------------
Rotational spectrum 
--------------------
 
Rotational constants in cm-1:     0.000000     0.000000     0.000000 
Rotational constants in MHz :     0.000000     0.000000     0.000000 

 Dipole components along the rotational axes: 
x,y,z [a.u.] :    -0.000000     0.000000     0.000000 
x,y,z [Debye]:    -0.000000     0.000000     0.000000 

 

Timings for individual modules:

Sum of individual times         ...       14.293 sec (=   0.238 min)
GTO integral calculation        ...        5.887 sec (=   0.098 min)  41.2 %
SCF iterations                  ...        2.446 sec (=   0.041 min)  17.1 %
MDCI module                     ...        5.960 sec (=   0.099 min)  41.7 %
                             ****ORCA TERMINATED NORMALLY****
TOTAL RUN TIME: 0 days 0 hours 0 minutes 14 seconds 965 msec
