
                                 *****************
                                 * O   R   C   A *
                                 *****************

           --- An Ab Initio, DFT and Semiempirical electronic structure package ---

                  #######################################################
                  #                        -***-                        #
                  #          Department of theory and spectroscopy      #
                  #               Directorship: Frank Neese             #
                  #        Max Planck Institute fuer Kohlenforschung    #
                  #                Kaiser Wilhelm Platz 1               #
                  #                 D-45470 Muelheim/Ruhr               #
                  #                      Germany                        #
                  #                                                     #
                  #                  All rights reserved                #
                  #                        -***-                        #
                  #######################################################


                         Program Version 4.2.0 -  RELEASE  -


 With contributions from (in alphabetic order):
   Daniel Aravena         : Magnetic Suceptibility
   Michael Atanasov       : Ab Initio Ligand Field Theory (pilot matlab implementation)
   Alexander A. Auer      : GIAO ZORA, VPT2
   Ute Becker             : Parallelization
   Giovanni Bistoni       : ED, misc. LED, open-shell LED, HFLED
   Martin Brehm           : Molecular dynamics
   Dmytro Bykov           : SCF Hessian
   Vijay G. Chilkuri      : MRCI spin determinant printing, contributions to CSF-ICE
   Dipayan Datta          : RHF DLPNO-CCSD density
   Achintya Kumar Dutta   : EOM-CC, STEOM-CC
   Dmitry Ganyushin       : Spin-Orbit,Spin-Spin,Magnetic field MRCI
   Miquel Garcia          : C-PCM Hessian, Gaussian charge scheme
   Yang Guo               : DLPNO-NEVPT2, CIM, IAO-localization
   Andreas Hansen         : Spin unrestricted coupled pair/coupled cluster methods
   Benjamin Helmich-Paris : CASSCF linear response (MC-RPA)
   Lee Huntington         : MR-EOM, pCC
   Robert Izsak           : Overlap fitted RIJCOSX, COSX-SCS-MP3, EOM
   Christian Kollmar      : KDIIS, OOCD, Brueckner-CCSD(T), CCSD density
   Simone Kossmann        : Meta GGA functionals, TD-DFT gradient, OOMP2, MP2 Hessian
   Martin Krupicka        : AUTO-CI
   Lucas Lang             : DCDCAS
   Dagmar Lenk            : GEPOL surface, SMD
   Dimitrios Liakos       : Extrapolation schemes; Compound Job, initial MDCI parallelization
   Dimitrios Manganas     : Further ROCIS development; embedding schemes
   Dimitrios Pantazis     : SARC Basis sets
   Taras Petrenko         : DFT Hessian,TD-DFT gradient, ASA, ECA, R-Raman, ABS, FL, XAS/XES, NRVS
   Peter Pinski           : DLPNO-MP2, DLPNO-MP2 Gradient
   Christoph Reimann      : Effective Core Potentials
   Marius Retegan         : Local ZFS, SOC
   Christoph Riplinger    : Optimizer, TS searches, QM/MM, DLPNO-CCSD(T), (RO)-DLPNO pert. Triples
   Tobias Risthaus        : Range-separated hybrids, TD-DFT gradient, RPA, STAB
   Michael Roemelt        : Original ROCIS implementation
   Masaaki Saitow         : Open-shell DLPNO-CCSD energy and density
   Barbara Sandhoefer     : DKH picture change effects
   Avijit Sen             : IP-ROCIS
   Kantharuban Sivalingam : CASSCF convergence, NEVPT2, FIC-MRCI
   Bernardo de Souza      : ESD, SOC TD-DFT
   Georgi Stoychev        : AutoAux, RI-MP2 NMR
   Willem Van den Heuvel  : Paramagnetic NMR
   Boris Wezisla          : Elementary symmetry handling
   Frank Wennmohs         : Technical directorship


 We gratefully acknowledge several colleagues who have allowed us to
 interface, adapt or use parts of their codes:
   Stefan Grimme, W. Hujo, H. Kruse,             : VdW corrections, initial TS optimization,
                  C. Bannwarth                     DFT functionals, gCP, sTDA/sTD-DF
   Ed Valeev, F. Pavosevic, A. Kumar             : LibInt (2-el integral package), F12 methods
   Garnet Chan, S. Sharma, J. Yang, R. Olivares  : DMRG
   Ulf Ekstrom                                   : XCFun DFT Library
   Mihaly Kallay                                 : mrcc  (arbitrary order and MRCC methods)
   Andreas Klamt, Michael Diedenhofen            : otool_cosmo (COSMO solvation model)
   Jiri Pittner, Ondrej Demel                    : Mk-CCSD
   Frank Weinhold                                : gennbo (NPA and NBO analysis)
   Christopher J. Cramer and Donald G. Truhlar   : smd solvation model
   Lars Goerigk                                  : TD-DFT with DH, B97 family of functionals
   V. Asgeirsson, H. Jonsson                     : NEB implementation
   FAccTs GmbH                                   : IRC, NEB, NEB-TS, Multilevel, MM, QM/MM, CI optimization
   S Lehtola, MJT Oliveira, MAL Marques          : LibXC Library


 Your calculation uses the libint2 library for the computation of 2-el integrals
 For citations please refer to: http://libint.valeyev.net

 Your ORCA version has been built with support for libXC version: 4.2.3
 For citations please refer to: https://tddft.org/programs/libxc/

 This ORCA versions uses:
   CBLAS   interface :  Fast vector & matrix operations
   LAPACKE interface :  Fast linear algebra routines
   SCALAPACK package :  Parallel linear algebra routines


----- Orbital basis set information -----
Your calculation utilizes the basis: def2-QZVP
   F. Weigend and R. Ahlrichs, Phys. Chem. Chem. Phys. 7, 3297 (2005).

================================================================================
                                        WARNINGS
                       Please study these warnings very carefully!
================================================================================


WARNING: your system is open-shell and RHF/RKS was chosen
  ===> : WILL SWITCH to UHF/UKS


WARNING: MDCI localization with Augmented Hessian Foster-Boys
  ===> : Switching off randomization!

WARNING: Post HF methods need fully converged wavefunctions
  ===> : Setting SCFConvForced true
         You can overwrite this default with %scf ConvForced false 


INFO   : the flag for use of LIBINT has been found!

================================================================================
                                       INPUT FILE
================================================================================
NAME = 06_C.in
|  1> #
|  2> # 06_C CCSD(T)/Def2-QZVP
|  3> #
|  4> ! CCSD(T) Def2-QZVP tightscf
|  5> 
|  6> *xyz 0 3
|  7>  C 0.0 0.0 0.0
|  8> *
|  9> 
| 10> %maxcore 5000 
| 11> 
| 12> %pal
| 13> nprocs 6 
| 14> end
| 15> 
| 16> 
| 17>                          ****END OF INPUT****
================================================================================

                       ****************************
                       * Single Point Calculation *
                       ****************************

---------------------------------
CARTESIAN COORDINATES (ANGSTROEM)
---------------------------------
  C      0.000000    0.000000    0.000000

----------------------------
CARTESIAN COORDINATES (A.U.)
----------------------------
  NO LB      ZA    FRAG     MASS         X           Y           Z
   0 C     6.0000    0    12.011    0.000000    0.000000    0.000000

--------------------------------
INTERNAL COORDINATES (ANGSTROEM)
--------------------------------
 C      0   0   0     0.000000000000     0.00000000     0.00000000

---------------------------
INTERNAL COORDINATES (A.U.)
---------------------------
 C      0   0   0     0.000000000000     0.00000000     0.00000000

---------------------
BASIS SET INFORMATION
---------------------
There are 1 groups of distinct atoms

 Group   1 Type C   : 15s8p3d2f1g contracted to 7s4p3d2f1g pattern {8211111/5111/111/11/1}

Atom   0C    basis set group =>   1


           ************************************************************
           *        Program running with 6 parallel MPI-processes     *
           *              working on a common directory               *
           ************************************************************
------------------------------------------------------------------------------
                           ORCA GTO INTEGRAL CALCULATION
------------------------------------------------------------------------------

                         BASIS SET STATISTICS AND STARTUP INFO

 # of primitive gaussian shells          ...   29
 # of primitive gaussian functions       ...   77
 # of contracted shells                  ...   17
 # of contracted basis functions         ...   57
 Highest angular momentum                ...    4
 Maximum contraction depth               ...    8
 Integral package used                   ... LIBINT
 Integral threshhold            Thresh   ...  2.500e-11
 Primitive cut-off              TCut     ...  2.500e-12


------------------------------ INTEGRAL EVALUATION ----------------------------


 * One electron integrals 
 Pre-screening matrix                    ... done
 Shell pair data                         ... done (   0.000 sec)



           ************************************************************
           *        Program running with 6 parallel MPI-processes     *
           *              working on a common directory               *
           ************************************************************
-------------------------------------------------------------------------------
                                 ORCA SCF
-------------------------------------------------------------------------------

------------
SCF SETTINGS
------------
Hamiltonian:
 Ab initio Hamiltonian  Method          .... Hartree-Fock(GTOs)


General Settings:
 Integral files         IntName         .... 06_C
 Hartree-Fock type      HFTyp           .... UHF
 Total Charge           Charge          ....    0
 Multiplicity           Mult            ....    3
 Number of Electrons    NEL             ....    6
 Basis Dimension        Dim             ....   57
 Nuclear Repulsion      ENuc            ....      0.0000000000 Eh

Convergence Acceleration:
 DIIS                   CNVDIIS         .... on
   Start iteration      DIISMaxIt       ....    12
   Startup error        DIISStart       ....  0.200000
   # of expansion vecs  DIISMaxEq       ....     5
   Bias factor          DIISBfac        ....   1.050
   Max. coefficient     DIISMaxC        ....  10.000
 Newton-Raphson         CNVNR           .... off
 SOSCF                  CNVSOSCF        .... off
 Level Shifting         CNVShift        .... on
   Level shift para.    LevelShift      ....    0.2500
   Turn off err/grad.   ShiftErr        ....    0.0010
 Zerner damping         CNVZerner       .... off
 Static damping         CNVDamp         .... on
   Fraction old density DampFac         ....    0.7000
   Max. Damping (<1)    DampMax         ....    0.9800
   Min. Damping (>=0)   DampMin         ....    0.0000
   Turn off err/grad.   DampErr         ....    0.1000
 Fernandez-Rico         CNVRico         .... off

SCF Procedure:
 Maximum # iterations   MaxIter         ....   125
 SCF integral mode      SCFMode         .... Direct
   Integral package                     .... LIBINT
 Reset frequency        DirectResetFreq ....    20
 Integral Threshold     Thresh          ....  2.500e-11 Eh
 Primitive CutOff       TCut            ....  2.500e-12 Eh

Convergence Tolerance:
 Convergence Check Mode ConvCheckMode   .... Total+1el-Energy
 Convergence forced     ConvForced      .... 1
 Energy Change          TolE            ....  1.000e-08 Eh
 1-El. energy change                    ....  1.000e-05 Eh
 DIIS Error             TolErr          ....  5.000e-07


Diagonalization of the overlap matrix:
Smallest eigenvalue                        ... 6.128e-03
Time for diagonalization                   ...    0.002 sec
Threshold for overlap eigenvalues          ... 1.000e-08
Number of eigenvalues below threshold      ... 0
Time for construction of square roots      ...    0.005 sec
Total time needed                          ...    0.007 sec

-------------------
DFT GRID GENERATION
-------------------

General Integration Accuracy     IntAcc      ...  4.340
Radial Grid Type                 RadialGrid  ... Gauss-Chebyshev
Angular Grid (max. acc.)         AngularGrid ... Lebedev-110
Angular grid pruning method      GridPruning ... 3 (G Style)
Weight generation scheme         WeightScheme... Becke
Basis function cutoff            BFCut       ...    1.0000e-11
Integration weight cutoff        WCut        ...    1.0000e-14
Grids for H and He will be reduced by one unit

# of grid points (after initial pruning)     ...   1656 (   0.0 sec)
# of grid points (after weights+screening)   ...   1656 (   0.0 sec)
Grid point division into batches done        ...    0.0 sec
Reduced shell lists constructed in    0.0 sec

Total number of grid points                  ...     1656
Total number of batches                      ...       26
Average number of points per batch           ...       63
Average number of grid points per atom       ...     1656
Average number of shells per batch           ...     9.50 (55.88%)
Average number of basis functions per batch  ...    37.50 (65.79%)
Average number of large shells per batch     ...     7.00 (73.68%)
Average number of large basis fcns per batch ...    26.33 (70.22%)
Maximum spatial batch extension              ...  16.97, 31.36, 31.36 au
Average spatial batch extension              ...   2.98,  4.37,  5.53 au

Time for grid setup =    0.021 sec

------------------------------
INITIAL GUESS: MODEL POTENTIAL
------------------------------
Loading Hartree-Fock densities                     ... done
Calculating cut-offs                               ... done
Setting up the integral package                    ... done
Initializing the effective Hamiltonian             ... done
Starting the Coulomb interaction                   ... done (   0.0 sec)
Reading the grid                                   ... done
Mapping shells                                     ... done
Starting the XC term evaluation                    ... done (   0.0 sec)
Transforming the Hamiltonian                       ... done (   0.0 sec)
Diagonalizing the Hamiltonian                      ... done (   0.0 sec)
Back transforming the eigenvectors                 ... done (   0.0 sec)
Now organizing SCF variables                       ... done
                      ------------------
                      INITIAL GUESS DONE (   0.1 sec)
                      ------------------
--------------
SCF ITERATIONS
--------------
ITER       Energy         Delta-E        Max-DP      RMS-DP      [F,P]     Damp
               ***  Starting incremental Fock matrix formation  ***
  0    -37.6761241217   0.000000000000 0.00730673  0.00028273  0.2984472 0.7000
  1    -37.6802671425  -0.004143020800 0.00721952  0.00026997  0.2133478 0.7000
                               ***Turning on DIIS***
  2    -37.6835707483  -0.003303605796 0.00663675  0.00022460  0.1514966 0.7000
  3    -37.6508564190   0.032714329324 0.00698318  0.00021089  0.1075538 0.7000
  4    -37.6529136395  -0.002057220535 0.02089596  0.00062079  0.0757489 0.0000
  5    -37.6927329062  -0.039819266663 0.00487518  0.00013017  0.0034045 0.0000
  6    -37.6912035637   0.001529342539 0.00530338  0.00012568  0.0019442 0.0000
  7    -37.6925462989  -0.001342735273 0.00361330  0.00007101  0.0007254 0.0000
  8    -37.6935425363  -0.000996237398 0.00037464  0.00000636  0.0000716 0.0000
  9    -37.6936332048  -0.000090668411 0.00004227  0.00000089  0.0000145 0.0000
 10    -37.6936282141   0.000004990614 0.00000493  0.00000011  0.0000018 0.0000
                            ***DIIS convergence achieved***

               *****************************************************
               *                     SUCCESS                       *
               *           SCF CONVERGED AFTER  11 CYCLES          *
               *****************************************************


----------------
TOTAL SCF ENERGY
----------------

Total Energy       :          -37.69362701 Eh           -1025.69574 eV

Components:
Nuclear Repulsion  :            0.00000000 Eh               0.00000 eV
Electronic Energy  :          -37.69362701 Eh           -1025.69574 eV
One Electron Energy:          -50.45130863 Eh           -1372.84990 eV
Two Electron Energy:           12.75768162 Eh             347.15417 eV

Virial components:
Potential Energy   :          -75.38788171 Eh           -2051.40855 eV
Kinetic Energy     :           37.69425470 Eh            1025.71282 eV
Virial Ratio       :            1.99998335


---------------
SCF CONVERGENCE
---------------

  Last Energy change         ...    1.2018e-06  Tolerance :   1.0000e-08
  Last MAX-Density change    ...    1.2330e-06  Tolerance :   1.0000e-07
  Last RMS-Density change    ...    2.1962e-08  Tolerance :   5.0000e-09
  Last DIIS Error            ...    3.0500e-07  Tolerance :   5.0000e-07

             **** THE GBW FILE WAS UPDATED (06_C.gbw) ****
             **** DENSITY FILE WAS UPDATED (06_C.scfp) ****
             **** ENERGY FILE WAS UPDATED (06_C.en.tmp) ****
----------------------
UHF SPIN CONTAMINATION
----------------------

Expectation value of <S**2>     :     2.010168
Ideal value S*(S+1) for S=1.0   :     2.000000
Deviation                       :     0.010168

             **** THE GBW FILE WAS UPDATED (06_C.gbw) ****
             **** DENSITY FILE WAS UPDATED (06_C.scfp) ****
----------------
ORBITAL ENERGIES
----------------
                 SPIN UP ORBITALS
  NO   OCC          E(Eh)            E(eV) 
   0   1.0000     -11.345296      -308.7212 
   1   1.0000      -0.829049       -22.5596 
   2   1.0000      -0.438929       -11.9439 
   3   1.0000      -0.438929       -11.9439 
   4   0.0000       0.024972         0.6795 
   5   0.0000       0.212300         5.7770 
   6   0.0000       0.212300         5.7770 
   7   0.0000       0.255191         6.9441 
   8   0.0000       0.290012         7.8916 
   9   0.0000       0.606330        16.4991 
  10   0.0000       0.606330        16.4991 
  11   0.0000       0.616990        16.7891 
  12   0.0000       0.616990        16.7891 
  13   0.0000       0.621646        16.9159 
  14   0.0000       0.911650        24.8073 
  15   0.0000       0.911650        24.8073 
  16   0.0000       0.953880        25.9564 
  17   0.0000       1.686905        45.9030 
  18   0.0000       1.884951        51.2921 
  19   0.0000       1.886758        51.3413 
  20   0.0000       1.886758        51.3413 
  21   0.0000       1.892131        51.4875 
  22   0.0000       1.892131        51.4875 
  23   0.0000       1.900926        51.7268 
  24   0.0000       1.900926        51.7268 
  25   0.0000       2.054908        55.9169 
  26   0.0000       2.054908        55.9169 
  27   0.0000       2.066793        56.2403 
  28   0.0000       2.066793        56.2403 
  29   0.0000       2.071621        56.3717 
  30   0.0000       3.095661        84.2372 
  31   0.0000       3.095661        84.2372 
  32   0.0000       3.115802        84.7853 
  33   0.0000       5.075641       138.1152 
  34   0.0000       5.078104       138.1822 
  35   0.0000       5.078104       138.1822 
  36   0.0000       5.085502       138.3836 
  37   0.0000       5.085502       138.3836 
  38   0.0000       5.097868       138.7200 
  39   0.0000       5.097868       138.7200 
  40   0.0000       5.115240       139.1928 
  41   0.0000       5.115240       139.1928 
  42   0.0000       6.208279       168.9359 
  43   0.0000       6.211618       169.0267 
  44   0.0000       6.211618       169.0267 
  45   0.0000       6.221634       169.2993 
  46   0.0000       6.221634       169.2993 
  47   0.0000       6.238310       169.7531 
  48   0.0000       6.238310       169.7531 
  49   0.0000       6.257419       170.2730 
  50   0.0000       6.260170       170.3479 
  51   0.0000       6.260170       170.3479 
  52   0.0000       6.268759       170.5816 
  53   0.0000       6.268759       170.5816 
  54   0.0000       7.202077       195.9785 
  55   0.0000      27.511057       748.6139 
  56   0.0000     147.858977      4023.4473 

                 SPIN DOWN ORBITALS
  NO   OCC          E(Eh)            E(eV) 
   0   1.0000     -11.300297      -307.4967 
   1   1.0000      -0.583447       -15.8764 
   2   0.0000       0.052294         1.4230 
   3   0.0000       0.094210         2.5636 
   4   0.0000       0.094210         2.5636 
   5   0.0000       0.274295         7.4640 
   6   0.0000       0.311945         8.4885 
   7   0.0000       0.311945         8.4885 
   8   0.0000       0.327088         8.9005 
   9   0.0000       0.648871        17.6567 
  10   0.0000       0.656683        17.8693 
  11   0.0000       0.656683        17.8693 
  12   0.0000       0.682737        18.5782 
  13   0.0000       0.682737        18.5782 
  14   0.0000       0.976519        26.5724 
  15   0.0000       1.022746        27.8303 
  16   0.0000       1.022746        27.8303 
  17   0.0000       1.752256        47.6813 
  18   0.0000       1.911770        52.0219 
  19   0.0000       1.917412        52.1754 
  20   0.0000       1.917412        52.1754 
  21   0.0000       1.934434        52.6386 
  22   0.0000       1.934434        52.6386 
  23   0.0000       1.963348        53.4254 
  24   0.0000       1.963348        53.4254 
  25   0.0000       2.125830        57.8468 
  26   0.0000       2.140385        58.2428 
  27   0.0000       2.140385        58.2428 
  28   0.0000       2.187943        59.5370 
  29   0.0000       2.187943        59.5370 
  30   0.0000       3.138777        85.4105 
  31   0.0000       3.193040        86.8870 
  32   0.0000       3.193040        86.8870 
  33   0.0000       5.102616       138.8492 
  34   0.0000       5.106969       138.9677 
  35   0.0000       5.106969       138.9677 
  36   0.0000       5.120091       139.3248 
  37   0.0000       5.120091       139.3248 
  38   0.0000       5.142180       139.9258 
  39   0.0000       5.142180       139.9258 
  40   0.0000       5.173593       140.7806 
  41   0.0000       5.173593       140.7806 
  42   0.0000       6.247177       169.9943 
  43   0.0000       6.255364       170.2171 
  44   0.0000       6.255364       170.2171 
  45   0.0000       6.280072       170.8895 
  46   0.0000       6.280072       170.8895 
  47   0.0000       6.300246       171.4384 
  48   0.0000       6.316696       171.8860 
  49   0.0000       6.316696       171.8860 
  50   0.0000       6.321797       172.0249 
  51   0.0000       6.321797       172.0249 
  52   0.0000       6.366344       173.2370 
  53   0.0000       6.366344       173.2370 
  54   0.0000       7.252433       197.3487 
  55   0.0000      27.531577       749.1723 
  56   0.0000     147.863998      4023.5840 

                    ********************************
                    * MULLIKEN POPULATION ANALYSIS *
                    ********************************

--------------------------------------------
MULLIKEN ATOMIC CHARGES AND SPIN POPULATIONS
--------------------------------------------
   0 C :    0.000000    2.000000
Sum of atomic charges         :    0.0000000
Sum of atomic spin populations:    2.0000000

-----------------------------------------------------
MULLIKEN REDUCED ORBITAL CHARGES AND SPIN POPULATIONS
-----------------------------------------------------
CHARGE
  0 C s       :     3.997003  s :     3.997003
      pz      :     0.999949  p :     1.999994
      px      :     0.912212
      py      :     0.087833
      dz2     :     0.000749  d :     0.002997
      dxz     :     0.000000
      dyz     :     0.000000
      dx2y2   :     0.001528
      dxy     :     0.000720
      f0      :     0.000001  f :     0.000006
      f+1     :     0.000000
      f-1     :     0.000000
      f+2     :     0.000001
      f-2     :     0.000001
      f+3     :     0.000001
      f-3     :     0.000002
      g0      :     0.000000  g :     0.000000
      g+1     :     0.000000
      g-1     :     0.000000
      g+2     :     0.000000
      g-2     :     0.000000
      g+3     :     0.000000
      g-3     :     0.000000
      g+4     :     0.000000
      g-4     :     0.000000

SPIN
  0 C s       :    -0.000252  s :    -0.000252
      pz      :     0.999949  p :     1.999994
      px      :     0.912212
      py      :     0.087833
      dz2     :     0.000063  d :     0.000252
      dxz     :     0.000000
      dyz     :     0.000000
      dx2y2   :     0.000128
      dxy     :     0.000061
      f0      :     0.000001  f :     0.000006
      f+1     :     0.000000
      f-1     :     0.000000
      f+2     :     0.000001
      f-2     :     0.000001
      f+3     :     0.000001
      f-3     :     0.000002
      g0      :    -0.000000  g :    -0.000000
      g+1     :    -0.000000
      g-1     :    -0.000000
      g+2     :    -0.000000
      g-2     :    -0.000000
      g+3     :    -0.000000
      g-3     :    -0.000000
      g+4     :    -0.000000
      g-4     :    -0.000000


                     *******************************
                     * LOEWDIN POPULATION ANALYSIS *
                     *******************************

-------------------------------------------
LOEWDIN ATOMIC CHARGES AND SPIN POPULATIONS
-------------------------------------------
   0 C :   -0.000000    2.000000

----------------------------------------------------
LOEWDIN REDUCED ORBITAL CHARGES AND SPIN POPULATIONS
----------------------------------------------------
CHARGE
  0 C s       :     3.997003  s :     3.997003
      pz      :     0.999949  p :     1.999994
      px      :     0.912212
      py      :     0.087833
      dz2     :     0.000749  d :     0.002997
      dxz     :     0.000000
      dyz     :     0.000000
      dx2y2   :     0.001528
      dxy     :     0.000720
      f0      :     0.000001  f :     0.000006
      f+1     :     0.000000
      f-1     :     0.000000
      f+2     :     0.000001
      f-2     :     0.000001
      f+3     :     0.000001
      f-3     :     0.000002
      g0      :     0.000000  g :     0.000000
      g+1     :     0.000000
      g-1     :     0.000000
      g+2     :     0.000000
      g-2     :     0.000000
      g+3     :     0.000000
      g-3     :     0.000000
      g+4     :     0.000000
      g-4     :     0.000000

SPIN
  0 C s       :    -0.000252  s :    -0.000252
      pz      :     0.999949  p :     1.999994
      px      :     0.912212
      py      :     0.087833
      dz2     :     0.000063  d :     0.000252
      dxz     :     0.000000
      dyz     :     0.000000
      dx2y2   :     0.000128
      dxy     :     0.000061
      f0      :     0.000001  f :     0.000006
      f+1     :     0.000000
      f-1     :     0.000000
      f+2     :     0.000001
      f-2     :     0.000001
      f+3     :     0.000001
      f-3     :     0.000002
      g0      :    -0.000000  g :    -0.000000
      g+1     :    -0.000000
      g-1     :    -0.000000
      g+2     :    -0.000000
      g-2     :    -0.000000
      g+3     :    -0.000000
      g-3     :    -0.000000
      g+4     :    -0.000000
      g-4     :    -0.000000


                      *****************************
                      * MAYER POPULATION ANALYSIS *
                      *****************************

  NA   - Mulliken gross atomic population
  ZA   - Total nuclear charge
  QA   - Mulliken gross atomic charge
  VA   - Mayer's total valence
  BVA  - Mayer's bonded valence
  FA   - Mayer's free valence

  ATOM       NA         ZA         QA         VA         BVA        FA
  0 C      6.0000     6.0000     0.0000     2.0203     0.0000     2.0203

  Mayer bond orders larger than 0.100000


-------
TIMINGS
-------

Total SCF time: 0 days 0 hours 0 min 2 sec 

Total time                  ....       2.117 sec
Sum of individual times     ....       1.671 sec  ( 78.9%)

Fock matrix formation       ....       1.347 sec  ( 63.6%)
Diagonalization             ....       0.028 sec  (  1.3%)
Density matrix formation    ....       0.002 sec  (  0.1%)
Population analysis         ....       0.027 sec  (  1.3%)
Initial guess               ....       0.098 sec  (  4.7%)
Orbital Transformation      ....       0.000 sec  (  0.0%)
Orbital Orthonormalization  ....       0.000 sec  (  0.0%)
DIIS solution               ....       0.148 sec  (  7.0%)


           ************************************************************
           *        Program running with 6 parallel MPI-processes     *
           *              working on a common directory               *
           ************************************************************


------------------------------------------------------------------------------- 
                              ORCA-MATRIX DRIVEN CI                            
------------------------------------------------------------------------------- 

--------------------------------
AUTOMATIC CHOICE OF INCORE LEVEL
--------------------------------

Memory available                           ...   2500.00 MB
Memory needed for S+T                      ...      0.39 MB
Memory needed for J+K                      ...      0.78 MB
Memory needed for DIIS                     ...      5.40 MB
Memory needed for 3-ext                    ...      3.41 MB
Memory needed for 4-ext                    ...     30.67 MB
Memory needed for triples                  ...      5.68 MB
 -> Final InCoreLevel    ... 5
 -> check shows that triples correction can be computed


Wavefunction type
-----------------
Correlation treatment                      ...      CCSD     
Single excitations                         ... ON
Orbital optimization                       ... OFF
Calculation of Z vector                    ... OFF
Calculation of Brueckner orbitals          ... OFF
Perturbative triple excitations            ... ON
Calculation of F12 correction              ... OFF
Frozen core treatment                      ... chemical core (2 el)
Reference Wavefunction                     ... UHF
  Alpha-MOs occ    :     1 ...    3 (  3 MO's/  3 electrons)
  Beta-MOs occ     :     1 ...    1 (  1 MO's/  1 electrons)
  Alpha-MOs virt   :     4 ...   56 ( 53 MO's              )
  Beta-MOs virt    :     2 ...   56 ( 55 MO's              )
Number of AO's                             ...     57
Number of electrons                        ...      6
Number of correlated electrons             ...      4

Algorithmic settings
--------------------
Integral transformation                    ... AO direct full transformation
K(C) Formation                             ... FULL-MO TRAFO
Maximum number of iterations               ...        50
Convergence tolerance (max. residuum)      ... 1.000e-05
Level shift for amplitude update           ... 2.000e-01
Maximum number of DIIS vectors             ...         7
DIIS turned on at iteration                ...         0
Damping before turning on DIIS             ...     0.500
Damping after turning on DIIS              ...     0.000
Pair specific amplitude update             ... OFF
Natural orbital iterations                 ... OFF
Perturbative natural orbital generation    ... OFF
Printlevel                                 ... 2

Memory handling:
----------------
Maximum memory for working arrays          ...   2500 MB
Data storage in matrix containers          ... UNCOMPRESSED
Data type for integral storage             ... DOUBLE
In-Core Storage of quantities:
   Amplitudes+Sigma Vector      ... YES
   J+K operators                ... YES
   DIIS vectors                 ... YES
   3-external integrals         ... YES
   4-external integrals         ... YES


Initializing the integral package          ... done
Warning: reference  - re-canonicalizations have been set to INT 1 VIRT 1

--------------------------
UNRESTRICTED FOCK OPERATOR
--------------------------

<ss|ss>:          406 b            0 skpd (  0.0%)    0.000 s ( 0.001 ms/b)
<ss|sp>:          784 b            0 skpd (  0.0%)    0.001 s ( 0.001 ms/b)
<ss|sd>:          588 b            0 skpd (  0.0%)    0.000 s ( 0.000 ms/b)
<ss|sf>:          392 b            0 skpd (  0.0%)    0.000 s ( 0.000 ms/b)
<ss|sg>:          196 b            0 skpd (  0.0%)    0.000 s ( 0.001 ms/b)
<ss|pp>:          280 b            0 skpd (  0.0%)    0.000 s ( 0.001 ms/b)
<ss|pd>:          336 b            0 skpd (  0.0%)    0.000 s ( 0.000 ms/b)
<ss|pf>:          224 b            0 skpd (  0.0%)    0.000 s ( 0.001 ms/b)
<ss|pg>:          112 b            0 skpd (  0.0%)    0.000 s ( 0.002 ms/b)
<ss|dd>:          168 b            0 skpd (  0.0%)    0.000 s ( 0.000 ms/b)
<ss|df>:          168 b            0 skpd (  0.0%)    0.000 s ( 0.001 ms/b)
<ss|dg>:           84 b            0 skpd (  0.0%)    0.000 s ( 0.001 ms/b)
<ss|ff>:           84 b            0 skpd (  0.0%)    0.000 s ( 0.001 ms/b)
<ss|fg>:           56 b            0 skpd (  0.0%)    0.000 s ( 0.003 ms/b)
<ss|gg>:           28 b            0 skpd (  0.0%)    0.000 s ( 0.009 ms/b)
<sp|sp>:          406 b            0 skpd (  0.0%)    0.000 s ( 0.001 ms/b)
<sp|sd>:          588 b            0 skpd (  0.0%)    0.000 s ( 0.000 ms/b)
<sp|sf>:          392 b            0 skpd (  0.0%)    0.000 s ( 0.001 ms/b)
<sp|sg>:          196 b            0 skpd (  0.0%)    0.000 s ( 0.002 ms/b)
<sp|pp>:          280 b            0 skpd (  0.0%)    0.000 s ( 0.002 ms/b)
<sp|pd>:          336 b            0 skpd (  0.0%)    0.000 s ( 0.001 ms/b)
<sp|pf>:          224 b            0 skpd (  0.0%)    0.000 s ( 0.002 ms/b)
<sp|pg>:          112 b            0 skpd (  0.0%)    0.000 s ( 0.004 ms/b)
<sp|dd>:          168 b            0 skpd (  0.0%)    0.000 s ( 0.001 ms/b)
<sp|df>:          168 b            0 skpd (  0.0%)    0.000 s ( 0.001 ms/b)
<sp|dg>:           84 b            0 skpd (  0.0%)    0.000 s ( 0.003 ms/b)
<sp|ff>:           84 b            0 skpd (  0.0%)    0.000 s ( 0.003 ms/b)
<sp|fg>:           56 b            0 skpd (  0.0%)    0.000 s ( 0.007 ms/b)
<sp|gg>:           28 b            0 skpd (  0.0%)    0.001 s ( 0.020 ms/b)
<sd|sd>:          231 b            0 skpd (  0.0%)    0.000 s ( 0.001 ms/b)
<sd|sf>:          294 b            0 skpd (  0.0%)    0.000 s ( 0.001 ms/b)
<sd|sg>:          147 b            0 skpd (  0.0%)    0.000 s ( 0.002 ms/b)
<sd|pp>:          210 b            0 skpd (  0.0%)    0.000 s ( 0.002 ms/b)
<sd|pd>:          252 b            0 skpd (  0.0%)    0.000 s ( 0.001 ms/b)
<sd|pf>:          168 b            0 skpd (  0.0%)    0.000 s ( 0.002 ms/b)
<sd|pg>:           84 b            0 skpd (  0.0%)    0.000 s ( 0.005 ms/b)
<sd|dd>:          126 b            0 skpd (  0.0%)    0.000 s ( 0.001 ms/b)
<sd|df>:          126 b            0 skpd (  0.0%)    0.000 s ( 0.002 ms/b)
<sd|dg>:           63 b            0 skpd (  0.0%)    0.000 s ( 0.006 ms/b)
<sd|ff>:           63 b            0 skpd (  0.0%)    0.000 s ( 0.006 ms/b)
<sd|fg>:           42 b            0 skpd (  0.0%)    0.001 s ( 0.012 ms/b)
<sd|gg>:           21 b            0 skpd (  0.0%)    0.001 s ( 0.034 ms/b)
<sf|sf>:          105 b            0 skpd (  0.0%)    0.000 s ( 0.002 ms/b)
<sf|sg>:           98 b            0 skpd (  0.0%)    0.000 s ( 0.004 ms/b)
<sf|pp>:          140 b            0 skpd (  0.0%)    0.001 s ( 0.004 ms/b)
<sf|pd>:          168 b            0 skpd (  0.0%)    0.000 s ( 0.002 ms/b)
<sf|pf>:          112 b            0 skpd (  0.0%)    0.001 s ( 0.005 ms/b)
<sf|pg>:           56 b            0 skpd (  0.0%)    0.001 s ( 0.011 ms/b)
<sf|dd>:           84 b            0 skpd (  0.0%)    0.000 s ( 0.002 ms/b)
<sf|df>:           84 b            0 skpd (  0.0%)    0.000 s ( 0.003 ms/b)
<sf|dg>:           42 b            0 skpd (  0.0%)    0.000 s ( 0.009 ms/b)
<sf|ff>:           42 b            0 skpd (  0.0%)    0.001 s ( 0.013 ms/b)
<sf|fg>:           28 b            0 skpd (  0.0%)    0.001 s ( 0.025 ms/b)
<sf|gg>:           14 b            0 skpd (  0.0%)    0.001 s ( 0.065 ms/b)
<sg|sg>:           28 b            0 skpd (  0.0%)    0.000 s ( 0.009 ms/b)
<sg|pp>:           70 b            0 skpd (  0.0%)    0.001 s ( 0.007 ms/b)
<sg|pd>:           84 b            0 skpd (  0.0%)    0.000 s ( 0.003 ms/b)
<sg|pf>:           56 b            0 skpd (  0.0%)    0.000 s ( 0.008 ms/b)
<sg|pg>:           28 b            0 skpd (  0.0%)    0.001 s ( 0.023 ms/b)
<sg|dd>:           42 b            0 skpd (  0.0%)    0.000 s ( 0.003 ms/b)
<sg|df>:           42 b            0 skpd (  0.0%)    0.000 s ( 0.005 ms/b)
<sg|dg>:           21 b            0 skpd (  0.0%)    0.000 s ( 0.018 ms/b)
<sg|ff>:           21 b            0 skpd (  0.0%)    0.000 s ( 0.017 ms/b)
<sg|fg>:           14 b            0 skpd (  0.0%)    0.001 s ( 0.045 ms/b)
<sg|gg>:            7 b            0 skpd (  0.0%)    0.001 s ( 0.117 ms/b)
<pp|pp>:           55 b            0 skpd (  0.0%)    0.000 s ( 0.007 ms/b)
<pp|pd>:          120 b            0 skpd (  0.0%)    0.000 s ( 0.002 ms/b)
<pp|pf>:           80 b            0 skpd (  0.0%)    0.000 s ( 0.005 ms/b)
<pp|pg>:           40 b            0 skpd (  0.0%)    0.000 s ( 0.011 ms/b)
<pp|dd>:           60 b            0 skpd (  0.0%)    0.000 s ( 0.002 ms/b)
<pp|df>:           60 b            0 skpd (  0.0%)    0.000 s ( 0.004 ms/b)
<pp|dg>:           30 b            0 skpd (  0.0%)    0.000 s ( 0.010 ms/b)
<pp|ff>:           30 b            0 skpd (  0.0%)    0.000 s ( 0.010 ms/b)
<pp|fg>:           20 b            0 skpd (  0.0%)    0.000 s ( 0.023 ms/b)
<pp|gg>:           10 b            0 skpd (  0.0%)    0.001 s ( 0.060 ms/b)
<pd|pd>:           78 b            0 skpd (  0.0%)    0.000 s ( 0.004 ms/b)
<pd|pf>:           96 b            0 skpd (  0.0%)    0.001 s ( 0.006 ms/b)
<pd|pg>:           48 b            0 skpd (  0.0%)    0.001 s ( 0.013 ms/b)
<pd|dd>:           72 b            0 skpd (  0.0%)    0.000 s ( 0.004 ms/b)
<pd|df>:           72 b            0 skpd (  0.0%)    0.000 s ( 0.006 ms/b)
<pd|dg>:           36 b            0 skpd (  0.0%)    0.001 s ( 0.016 ms/b)
<pd|ff>:           36 b            0 skpd (  0.0%)    0.001 s ( 0.016 ms/b)
<pd|fg>:           24 b            0 skpd (  0.0%)    0.001 s ( 0.035 ms/b)
<pd|gg>:           12 b            0 skpd (  0.0%)    0.001 s ( 0.094 ms/b)
<pf|pf>:           36 b            0 skpd (  0.0%)    0.000 s ( 0.012 ms/b)
<pf|pg>:           32 b            0 skpd (  0.0%)    0.001 s ( 0.024 ms/b)
<pf|dd>:           48 b            0 skpd (  0.0%)    0.000 s ( 0.005 ms/b)
<pf|df>:           48 b            0 skpd (  0.0%)    0.000 s ( 0.009 ms/b)
<pf|dg>:           24 b            0 skpd (  0.0%)    0.001 s ( 0.024 ms/b)
<pf|ff>:           24 b            0 skpd (  0.0%)    0.001 s ( 0.034 ms/b)
<pf|fg>:           16 b            0 skpd (  0.0%)    0.001 s ( 0.065 ms/b)
<pf|gg>:            8 b            0 skpd (  0.0%)    0.001 s ( 0.161 ms/b)
<pg|pg>:           10 b            0 skpd (  0.0%)    0.001 s ( 0.051 ms/b)
<pg|dd>:           24 b            0 skpd (  0.0%)    0.000 s ( 0.008 ms/b)
<pg|df>:           24 b            0 skpd (  0.0%)    0.000 s ( 0.013 ms/b)
<pg|dg>:           12 b            0 skpd (  0.0%)    0.001 s ( 0.045 ms/b)
<pg|ff>:           12 b            0 skpd (  0.0%)    0.000 s ( 0.039 ms/b)
<pg|fg>:            8 b            0 skpd (  0.0%)    0.001 s ( 0.106 ms/b)
<pg|gg>:            4 b            0 skpd (  0.0%)    0.001 s ( 0.266 ms/b)
<dd|dd>:           21 b            0 skpd (  0.0%)    0.000 s ( 0.007 ms/b)
<dd|df>:           36 b            0 skpd (  0.0%)    0.000 s ( 0.009 ms/b)
<dd|dg>:           18 b            0 skpd (  0.0%)    0.000 s ( 0.024 ms/b)
<dd|ff>:           18 b            0 skpd (  0.0%)    0.000 s ( 0.025 ms/b)
<dd|fg>:           12 b            0 skpd (  0.0%)    0.001 s ( 0.054 ms/b)
<dd|gg>:            6 b            0 skpd (  0.0%)    0.001 s ( 0.140 ms/b)
<df|df>:           21 b            0 skpd (  0.0%)    0.001 s ( 0.024 ms/b)
<df|dg>:           18 b            0 skpd (  0.0%)    0.001 s ( 0.040 ms/b)
<df|ff>:           18 b            0 skpd (  0.0%)    0.001 s ( 0.054 ms/b)
<df|fg>:           12 b            0 skpd (  0.0%)    0.001 s ( 0.103 ms/b)
<df|gg>:            6 b            0 skpd (  0.0%)    0.002 s ( 0.255 ms/b)
<dg|dg>:            6 b            0 skpd (  0.0%)    0.001 s ( 0.090 ms/b)
<dg|ff>:            9 b            0 skpd (  0.0%)    0.001 s ( 0.062 ms/b)
<dg|fg>:            6 b            0 skpd (  0.0%)    0.001 s ( 0.155 ms/b)
<dg|gg>:            3 b            0 skpd (  0.0%)    0.001 s ( 0.387 ms/b)
<ff|ff>:            6 b            0 skpd (  0.0%)    0.001 s ( 0.089 ms/b)
<ff|fg>:            6 b            0 skpd (  0.0%)    0.001 s ( 0.170 ms/b)
<ff|gg>:            3 b            0 skpd (  0.0%)    0.001 s ( 0.468 ms/b)
<fg|fg>:            3 b            0 skpd (  0.0%)    0.001 s ( 0.320 ms/b)
<fg|gg>:            2 b            0 skpd (  0.0%)    0.002 s ( 0.899 ms/b)
<gg|gg>:            1 b            0 skpd (  0.0%)    0.001 s ( 1.153 ms/b)
Recanonicalizing the internal orbitals
Recanonicalizing the virtual orbitals
Time needed for Fock operator              ...            0.083 sec
Reference energy                           ...    -37.693627222
Warning: for UHF the TrafoType has to be JK
Warning: for UHF the K(C)-option cannot be MO but must be AOX

-------------------------------
PARTIAL EXCHANGE TRANSFORMATION
-------------------------------

Transformation type                        ... two-operators
Generation of integrals (i,mue|j,nue)      ... ON
Generation of integrals (mue,kappa|nue,tau)... ON
Generation of integrals (i,mue|a,nue)      ... ON
Dimension of the basis                     ...   57
Number of internal alpha-MOs               ...    3 (   1-   3)
Number of internal beta-MOs                ...    1 (   1-   1)
Number of external alpha-MOs               ...   53 (   4-  56)
Number of external beta-MOs                ...   55 (   2-  56)
Pair cutoff                                ... 0.000e+00 Eh
Number of AO pairs in the trafo            ... 1653
Total Number of distinct AO pairs          ... 1653
Memory devoted for trafo                   ... 2500.0 MB 
Max. Number of MO pairs treated together   ... 100855      
Number Format for Storage                  ... Double (8 Byte)
Integral package used                      ... LIBINT

Starting integral evaluation:
    ... done with AO integral generation
Closing buffer AOK[aa] ( 0.00 GB; CompressionRatio= 0.86)
Closing buffer AOK[bb] ( 0.00 GB; CompressionRatio= 0.40)
Closing buffer AOK[ab] ( 0.00 GB; CompressionRatio= 0.67)
Closing buffer AOK[ba] ( 0.00 GB; CompressionRatio= 0.67)
Collecting buffer AOK 
Closing buffer IAAO1[aa] ( 0.00 GB; CompressionRatio= 0.99)
Closing buffer IAAO1[bb] ( 0.00 GB; CompressionRatio= 0.97)
Closing buffer IAAO1[ab] ( 0.00 GB; CompressionRatio= 0.99)
Closing buffer IAAO1[ba] ( 0.00 GB; CompressionRatio= 0.97)
Closing buffer IAAO2[aa] ( 0.00 GB; CompressionRatio= 0.99)
Closing buffer IAAO2[bb] ( 0.00 GB; CompressionRatio= 0.97)
Closing buffer IAAO2[ab] ( 0.00 GB; CompressionRatio= 0.99)
Closing buffer IAAO2[ba] ( 0.00 GB; CompressionRatio= 0.97)
Collecting buffer IAAO 
Closing buffer PRQS    ( 0.00 GB; CompressionRatio= 1.00)
Collecting buffer PRQS 
Number of alpha/alpha MO pairs in trafo    ...    6
Number of beta /beta  MO pairs in trafo    ...    1
Number of alpha/ beta MO pairs in trafo    ...    3
------------------------
SORTING OF (i,mue|j,nue)
------------------------

SORTING OF ALPHA/ALPHA PAIRS
IBATCH = 1 of  1
Closing buffer KAO[aa] ( 0.00 GB; CompressionRatio= 1.00)
Collecting buffer KAO 
SORTING OF BETA /BETA  PAIRS
IBATCH = 1 of  1
Closing buffer KAO[bb] ( 0.00 GB; CompressionRatio= 1.00)
Collecting buffer KAO 
SORTING OF ALPHA/BETA  PAIRS
IBATCH = 1 of  1
Closing buffer KAO[ab] ( 0.00 GB; CompressionRatio= 0.999538532533)
Collecting buffer KAO[ab] 
------------------------
SORTING OF (i,mue|a,nue)
------------------------

Number of alpha/alpha (i,a) pairs in trafo  ...  159
Number of beta /beta  (i,a) pairs in trafo  ...   55
Number of alpha/ beta (i,a) pairs in trafo  ...  165
Number of beta /alpha (i,a) pairs in trafo  ...   53
Setting up the alpha/alpha list             ... done
Setting up the beta /beta  list             ... done
Setting up the alpha/beta  list             ... done
Setting up the beta /alpha list             ... done
    ... Now sorting (i,mue|a,nue)integrals
    ... Integrals (i,b|a,c) will be made on the fly
SORTING OF ALPHA/ALPHA PAIRS
IBATCH = 1 of  1
Closing buffer IPAQ[aa]  0.00 GB; CompressionRatio= 1.00)
SORTING OF BETA /BETA  PAIRS
IBATCH = 1 of  1
Closing buffer IPAQ[bb]( 0.00 GB; CompressionRatio= 1.00)
SORTING OF ALPHA/BETA  PAIRS (NMatSort_ab=28)
IBATCH = 1 of  1
Closing buffer IPAQ[ab]( 0.00 GB; CompressionRatio= 1.00)
SORTING OF BETA/ALPHA  PAIRS
IBATCH = 1 of  1
Closing buffer IPAQ[ba]( 0.00 GB; CompressionRatio= 1.00)
N(AO-Batches) Done                         ...      5202 
N(AO-Batches) Skipped                      ...         0 
N(IJ)-pairs Skipped                        ...         0 
TOTAL TIME for half transformation         ...     2.814 sec
AO-integral generation                     ...     0.071 sec
Half transformation                        ...     1.159 sec
K-integral sorting                         ...     0.222 sec
<ss|**>: 
------------------------------
PARTIAL COULOMB TRANSFORMATION
------------------------------

Transformation type                        ... two-operators
Dimension of the basis                     ...   57
Number of internal alpha-MOs               ...    3 (1-3)
Number of internal beta-MOs                ...    1 (1-1)
Pair cutoff                                ... 0.000e+00 Eh
Number of AO pairs included in the trafo   ... 1653
Total Number of distinct AO pairs          ... 1653
Memory devoted for trafo                   ... 2500.0 MB 
Max. Number of MO pairs treated together   ... 198233      
Max. Number of MOs treated per batch       ... 3477      
Number Format for Storage                  ... Double (8 Byte)
AO-integral source                         ... DIRECT
Integral package used                      ... LIBINT

Starting integral evaluation:
<sp|**>:         4284 b        0 skpd     0.005 s (  0.001 ms/b)
<sd|**>:         4284 b        0 skpd     0.019 s (  0.004 ms/b)
<sf|**>:         3213 b        0 skpd     0.027 s (  0.008 ms/b)
        2142 b        0 skpd     0.031 s (  0.014 ms/b)
<sg|**>:         1071 b        0 skpd     0.022 s (  0.021 ms/b)
<pp|**>:         1530 b        0 skpd     0.020 s (  0.013 ms/b)
<pd|**>:         1836 b        0 skpd     0.044 s (  0.024 ms/b)
<pf|**>:         1224 b        0 skpd     0.055 s (  0.045 ms/b)
<pg|**>:          612 b        0 skpd     0.038 s (  0.061 ms/b)
<dd|**>:          918 b        0 skpd     0.028 s (  0.030 ms/b)
<df|**>:          918 b        0 skpd     0.046 s (  0.051 ms/b)
<dg|**>:          459 b        0 skpd     0.050 s (  0.108 ms/b)
<ff|**>:          459 b        0 skpd     0.049 s (  0.107 ms/b)
<fg|**>:          306 b        0 skpd     0.052 s (  0.169 ms/b)
<gg|**>:          153 b        0 skpd     0.037 s (  0.242 ms/b)
Closing buffer AOJ[aa] ( 0.00 GB; CompressionRatio= 0.80)
Closing buffer AOJ[bb] ( 0.00 GB; CompressionRatio= 0.00)
Collecting buffer AOJ 
    ... done with AO integral generation
Number of Alpha-MO pairs included          ...    6
Number of Beta-MO pairs included           ...    1
    ... Now sorting integrals
SORTING ALPHA/ALPHA PAIRS
IBATCH = 1 of  1
Closing buffer JAO[aa] ( 0.00 GB; CompressionRatio= 1.00)
SORTING BETA/BETA PAIRS
IBATCH = 1 of  1
Closing buffer JAO[bb] ( 0.00 GB; CompressionRatio= 1.00)
Collecting buffer JAO 
TOTAL TIME for half transformation         ...     0.659 sec
AO-integral generation                     ...     0.245 sec
Half transformation                        ...     0.280 sec
J-integral sorting                         ...     0.026 sec

-------------------------- SECOND HALF TRANSFORMATION -------------------------
Formation of (ij|kl),(ij|ka), (ij|ab)      ... ok (     0.046 sec)
Formation of (ik|jl),(ik|ja), (ia|jb)      ... ok (     0.043 sec)


-----------------------
SPIN UNRESTRICTED GUESS
-----------------------

Entering MDCI_UHF_Guess, Tailored=0
Spin-components of the MP2 energy:
EMP2(aa)=     -0.013384575
EMP2(bb)=      0.000000000
EMP2(ab)=     -0.058243023

Initial guess performed in     0.001 sec
E(0)                                       ...    -37.693627222
E(MP2)                                     ...     -0.071627598
Initial E(tot)                             ...    -37.765254820
<T|T>                                      ...      0.026036424
Number of pairs included                   ... 6

------------------------------------------------
                  UHF COUPLED CLUSTER ITERATIONS
------------------------------------------------

Number of amplitudes to be optimized       ...        13063

Iter       E(tot)           E(Corr)          Delta-E          Residual     Time      <S|S>**1/2
  0    -37.765254820     -0.071627598     -0.000000000      0.030510788    0.10      0.000000071
                           *** Turning on DIIS ***
  1    -37.776385892     -0.082758670     -0.011131072      0.017600642    0.09      0.008047959
  2    -37.782663438     -0.089036217     -0.006277546      0.006452185    0.09      0.014937746
  3    -37.783943923     -0.090316701     -0.001280485      0.001475951    0.09      0.018371916
  4    -37.784134729     -0.090507507     -0.000190806      0.000279159    0.10      0.019136716
  5    -37.784159101     -0.090531879     -0.000024372      0.000035691    0.09      0.019241070
  6    -37.784156495     -0.090529273      0.000002606      0.000010346    0.09      0.019225687
  7    -37.784156730     -0.090529508     -0.000000234      0.000002884    0.09      0.019215648
               --- The Coupled-Cluster iterations have converged ---

----------------------
COUPLED CLUSTER ENERGY
----------------------

E(0)                                       ...    -37.693627222
E(CORR)                                    ...     -0.090529508
E(TOT)                                     ...    -37.784156730
Singles norm <S|S>**1/2                    ...      0.019215648 ( 0.014546644, 0.004669004)  
T1 diagnostic                              ...      0.009607824                              

------------------
LARGEST AMPLITUDES
------------------
   1a->  4a   1b->  2b       0.093772
   1a->  4a   1b->  5b       0.062625
   1a->  7a   1b->  2b       0.051821
   1a->  7a   1b->  5b       0.035750
   3a-> 11a   1b->  2b       0.034650
   2a-> 12a   1b->  2b       0.034650
   3a-> 10a   1b->  3b       0.029894
   2a->  9a   1b->  3b       0.029894
   3a->  9a   1b->  4b       0.029894
   2a-> 10a   1b->  4b       0.029894
   1a->  4a   1b-> 14b       0.023572
   3a->  4a   1b-> 11b       0.023176
   2a->  4a   1b-> 10b       0.023176
   3a->  9a   2a-> 10a       0.023099
   3a-> 10a   2a->  9a       0.023099
   3a->  6a   1b->  8b       0.022741

----------------------
UHF TRIPLES CORRECTION (Algorithm 1)
----------------------

Multiplier for the singles contribution    ...      1.000000000

SPIN-CASE Alpha-Alpha-Alpha:
10% done
20% done
30% done
40% done
50% done
60% done
70% done
80% done
90% done


SPIN-CASE Beta-Beta-Beta:

SPIN-CASE Alpha-Alpha-Beta:
10% done
20% done
30% done
40% done
50% done
60% done
70% done
80% done
90% done


SPIN-CASE Beta-Beta-Alpha:

Triples Correction (T)                     ...     -0.002351857
    alpha-alpha-alpha ... -0.000065513 (  2.8%)
    alpha-alpha-beta  ... -0.002286344 ( 97.2%)
    alpha-beta -beta  ...  0.000000000 ( -0.0%)
    beta -beta -beta  ...  0.000000000 ( -0.0%)
Scaling of triples based on CCSD energies (Peterson et al. Molecular Physics 113, 1551 (2015))
E(T*) = f*E(T) where f = E(F12-CCSD)/E(CCSD) 
f = CCSD (with F12)/ CCSD (without F12)    ...      1.000000000
Scaled triples correction (T)              ...     -0.002351857

Final correlation energy                   ...     -0.092881365
E(CCSD)                                    ...    -37.784156730
E(CCSD(T))                                 ...    -37.786508587



        !!!!!!!!!!!!!!!!!!!!!!!!!!!!!!!!!!!!!!!!!!!!!!!!!!!!!!!!!!!!!!!!!!!!!!!!!! 
        !  Warning: Densities are linearized densities                           !
        !!!!!!!!!!!!!!!!!!!!!!!!!!!!!!!!!!!!!!!!!!!!!!!!!!!!!!!!!!!!!!!!!!!!!!!!!! 

NORM  =      1.053140763 sqrt=     1.026226468
W(HF) =      0.949540683
------------------------------------------------------------------------------
                           ORCA POPULATION ANALYSIS
------------------------------------------------------------------------------
Input electron density              ... 06_C.mdcip
Input spin density                  ... 06_C.mdcir
BaseName (.gbw .S,...)              ... 06_C

                    ********************************
                    * MULLIKEN POPULATION ANALYSIS *
                    ********************************

------------------------------------------
MULLIKEN ATOMIC CHARGES AND SPIN DENSITIES
------------------------------------------
   0 C :    0.000000    2.000000
Sum of atomic charges       :    0.0000000
Sum of atomic spin densities:    2.0000000

---------------------------------------------------
MULLIKEN REDUCED ORBITAL CHARGES AND SPIN DENSITIES
---------------------------------------------------
CHARGE
  0 C s       :     3.935108  s :     3.935108
      pz      :     0.995875  p :     2.036233
      px      :     0.912390
      py      :     0.127968
      dz2     :     0.006122  d :     0.027208
      dxz     :     0.006631
      dyz     :     0.004944
      dx2y2   :     0.004752
      dxy     :     0.004758
      f0      :     0.000238  f :     0.001331
      f+1     :     0.000284
      f-1     :     0.000166
      f+2     :     0.000189
      f-2     :     0.000185
      f+3     :     0.000134
      f-3     :     0.000134
      g0      :     0.000016  g :     0.000121
      g+1     :     0.000019
      g-1     :     0.000012
      g+2     :     0.000015
      g-2     :     0.000014
      g+3     :     0.000013
      g-3     :     0.000013
      g+4     :     0.000010
      g-4     :     0.000010

SPIN
  0 C s       :     0.022083  s :     0.022083
      pz      :     0.981354  p :     1.960528
      px      :     0.895048
      py      :     0.084125
      dz2     :     0.004604  d :     0.016775
      dxz     :     0.005508
      dyz     :     0.002425
      dx2y2   :     0.002127
      dxy     :     0.002111
      f0      :     0.000096  f :     0.000566
      f+1     :     0.000110
      f-1     :     0.000073
      f+2     :     0.000080
      f-2     :     0.000078
      f+3     :     0.000064
      f-3     :     0.000064
      g0      :     0.000006  g :     0.000047
      g+1     :     0.000008
      g-1     :     0.000005
      g+2     :     0.000006
      g-2     :     0.000006
      g+3     :     0.000005
      g-3     :     0.000005
      g+4     :     0.000004
      g-4     :     0.000004


                     *******************************
                     * LOEWDIN POPULATION ANALYSIS *
                     *******************************

-----------------------------------------
LOEWDIN ATOMIC CHARGES AND SPIN DENSITIES
-----------------------------------------
   0 C :   -0.000000    2.000000

--------------------------------------------------
LOEWDIN REDUCED ORBITAL CHARGES AND SPIN DENSITIES
--------------------------------------------------
CHARGE
  0 C s       :     3.935108  s :     3.935108
      pz      :     0.995875  p :     2.036233
      px      :     0.912390
      py      :     0.127968
      dz2     :     0.006122  d :     0.027208
      dxz     :     0.006631
      dyz     :     0.004944
      dx2y2   :     0.004752
      dxy     :     0.004758
      f0      :     0.000238  f :     0.001331
      f+1     :     0.000284
      f-1     :     0.000166
      f+2     :     0.000189
      f-2     :     0.000185
      f+3     :     0.000134
      f-3     :     0.000134
      g0      :     0.000016  g :     0.000121
      g+1     :     0.000019
      g-1     :     0.000012
      g+2     :     0.000015
      g-2     :     0.000014
      g+3     :     0.000013
      g-3     :     0.000013
      g+4     :     0.000010
      g-4     :     0.000010

SPIN
  0 C s       :     0.022083  s :     0.022083
      pz      :     0.981354  p :     1.960528
      px      :     0.895048
      py      :     0.084125
      dz2     :     0.004604  d :     0.016775
      dxz     :     0.005508
      dyz     :     0.002425
      dx2y2   :     0.002127
      dxy     :     0.002111
      f0      :     0.000096  f :     0.000566
      f+1     :     0.000110
      f-1     :     0.000073
      f+2     :     0.000080
      f-2     :     0.000078
      f+3     :     0.000064
      f-3     :     0.000064
      g0      :     0.000006  g :     0.000047
      g+1     :     0.000008
      g-1     :     0.000005
      g+2     :     0.000006
      g-2     :     0.000006
      g+3     :     0.000005
      g-3     :     0.000005
      g+4     :     0.000004
      g-4     :     0.000004


                      *****************************
                      * MAYER POPULATION ANALYSIS *
                      *****************************

  NA   - Mulliken gross atomic population
  ZA   - Total nuclear charge
  QA   - Mulliken gross atomic charge
  VA   - Mayer's total valence
  BVA  - Mayer's bonded valence
  FA   - Mayer's free valence

  ATOM       NA         ZA         QA         VA         BVA        FA
  0 C      6.0000     6.0000     0.0000     2.3285     0.0000     2.3285





------------------------------------------------------------------------------- 
                                     TIMINGS                                   
------------------------------------------------------------------------------- 


Total execution time                   ...        4.645 sec

Fock Matrix Formation                  ...        0.083 sec (  1.8%)
Initial Guess                          ...        0.001 sec (  0.0%)
DIIS Solver                            ...        0.006 sec (  0.1%)
State Vector Update                    ...        0.000 sec (  0.0%)
Sigma-vector construction              ...        0.736 sec ( 15.8%)
  <D|H|D>(2-ext)                       ...        0.002 sec (  0.2% of sigma)
  <D|H|D>(4-ext)                       ...        0.329 sec ( 44.7% of sigma)
  <S|H|0>                              ...        0.002 sec (  0.2% of sigma)
  <D|H|S>(1-ext)                       ...        0.002 sec (  0.2% of sigma)
  Fock-dressing                        ...        0.324 sec ( 44.0% of sigma)
  (ij|ab),(ia|jb)-dressing             ...        0.051 sec (  6.9% of sigma)
Total Time for computing (T)           ...        0.018 sec (  0.4% of ALL)
  I/O of integral and amplitudes       ...        0.006 sec ( 33.3% of (T))
  External N**7 contributions          ...        0.003 sec ( 15.3% of (T))
  N**6 triples energy contributions    ...        0.004 sec ( 19.8% of (T))


-------------------------   --------------------
FINAL SINGLE POINT ENERGY       -37.786508586530
-------------------------   --------------------


                            ***************************************
                            *     ORCA property calculations      *
                            ***************************************

                                    ---------------------
                                    Active property flags
                                    ---------------------
   (+) Dipole Moment


------------------------------------------------------------------------------
                       ORCA ELECTRIC PROPERTIES CALCULATION
------------------------------------------------------------------------------

Dipole Moment Calculation                       ... on
Quadrupole Moment Calculation                   ... off
Polarizability Calculation                      ... off
GBWName                                         ... 06_C.gbw
Electron density file                           ... 06_C.scfp
The origin for moment calculation is the CENTER OF MASS  = ( 0.000000,  0.000000  0.000000)

-------------
DIPOLE MOMENT
-------------
                                X             Y             Z
Electronic contribution:      0.00000       0.00000       0.00000
Nuclear contribution   :      0.00000       0.00000       0.00000
                        -----------------------------------------
Total Dipole Moment    :      0.00000       0.00000       0.00000
                        -----------------------------------------
Magnitude (a.u.)       :      0.00000
Magnitude (Debye)      :      0.00000



--------------------
Rotational spectrum 
--------------------
 
Rotational constants in cm-1:     0.000000     0.000000     0.000000 
Rotational constants in MHz :     0.000000     0.000000     0.000000 

 Dipole components along the rotational axes: 
x,y,z [a.u.] :     0.000000     0.000000     0.000000 
x,y,z [Debye]:     0.000000     0.000000     0.000000 

 

                           *** MDCI DENSITY ***

------------------------------------------------------------------------------
                       ORCA ELECTRIC PROPERTIES CALCULATION
------------------------------------------------------------------------------

Dipole Moment Calculation                       ... on
Quadrupole Moment Calculation                   ... off
Polarizability Calculation                      ... off
GBWName                                         ... 06_C.gbw
Electron density file                           ... 06_C.mdcip
The origin for moment calculation is the CENTER OF MASS  = ( 0.000000,  0.000000  0.000000)

-------------
DIPOLE MOMENT
-------------
                                X             Y             Z
Electronic contribution:      0.00000       0.00000       0.00000
Nuclear contribution   :      0.00000       0.00000       0.00000
                        -----------------------------------------
Total Dipole Moment    :      0.00000       0.00000       0.00000
                        -----------------------------------------
Magnitude (a.u.)       :      0.00000
Magnitude (Debye)      :      0.00000



--------------------
Rotational spectrum 
--------------------
 
Rotational constants in cm-1:     0.000000     0.000000     0.000000 
Rotational constants in MHz :     0.000000     0.000000     0.000000 

 Dipole components along the rotational axes: 
x,y,z [a.u.] :     0.000000     0.000000     0.000000 
x,y,z [Debye]:     0.000000     0.000000     0.000000 

 

Timings for individual modules:

Sum of individual times         ...        8.003 sec (=   0.133 min)
GTO integral calculation        ...        0.614 sec (=   0.010 min)   7.7 %
SCF iterations                  ...        2.393 sec (=   0.040 min)  29.9 %
MDCI module                     ...        4.996 sec (=   0.083 min)  62.4 %
                             ****ORCA TERMINATED NORMALLY****
TOTAL RUN TIME: 0 days 0 hours 0 minutes 8 seconds 561 msec
