
                                 *****************
                                 * O   R   C   A *
                                 *****************

           --- An Ab Initio, DFT and Semiempirical electronic structure package ---

                  #######################################################
                  #                        -***-                        #
                  #          Department of theory and spectroscopy      #
                  #               Directorship: Frank Neese             #
                  #        Max Planck Institute fuer Kohlenforschung    #
                  #                Kaiser Wilhelm Platz 1               #
                  #                 D-45470 Muelheim/Ruhr               #
                  #                      Germany                        #
                  #                                                     #
                  #                  All rights reserved                #
                  #                        -***-                        #
                  #######################################################


                         Program Version 4.2.0 -  RELEASE  -


 With contributions from (in alphabetic order):
   Daniel Aravena         : Magnetic Suceptibility
   Michael Atanasov       : Ab Initio Ligand Field Theory (pilot matlab implementation)
   Alexander A. Auer      : GIAO ZORA, VPT2
   Ute Becker             : Parallelization
   Giovanni Bistoni       : ED, misc. LED, open-shell LED, HFLED
   Martin Brehm           : Molecular dynamics
   Dmytro Bykov           : SCF Hessian
   Vijay G. Chilkuri      : MRCI spin determinant printing, contributions to CSF-ICE
   Dipayan Datta          : RHF DLPNO-CCSD density
   Achintya Kumar Dutta   : EOM-CC, STEOM-CC
   Dmitry Ganyushin       : Spin-Orbit,Spin-Spin,Magnetic field MRCI
   Miquel Garcia          : C-PCM Hessian, Gaussian charge scheme
   Yang Guo               : DLPNO-NEVPT2, CIM, IAO-localization
   Andreas Hansen         : Spin unrestricted coupled pair/coupled cluster methods
   Benjamin Helmich-Paris : CASSCF linear response (MC-RPA)
   Lee Huntington         : MR-EOM, pCC
   Robert Izsak           : Overlap fitted RIJCOSX, COSX-SCS-MP3, EOM
   Christian Kollmar      : KDIIS, OOCD, Brueckner-CCSD(T), CCSD density
   Simone Kossmann        : Meta GGA functionals, TD-DFT gradient, OOMP2, MP2 Hessian
   Martin Krupicka        : AUTO-CI
   Lucas Lang             : DCDCAS
   Dagmar Lenk            : GEPOL surface, SMD
   Dimitrios Liakos       : Extrapolation schemes; Compound Job, initial MDCI parallelization
   Dimitrios Manganas     : Further ROCIS development; embedding schemes
   Dimitrios Pantazis     : SARC Basis sets
   Taras Petrenko         : DFT Hessian,TD-DFT gradient, ASA, ECA, R-Raman, ABS, FL, XAS/XES, NRVS
   Peter Pinski           : DLPNO-MP2, DLPNO-MP2 Gradient
   Christoph Reimann      : Effective Core Potentials
   Marius Retegan         : Local ZFS, SOC
   Christoph Riplinger    : Optimizer, TS searches, QM/MM, DLPNO-CCSD(T), (RO)-DLPNO pert. Triples
   Tobias Risthaus        : Range-separated hybrids, TD-DFT gradient, RPA, STAB
   Michael Roemelt        : Original ROCIS implementation
   Masaaki Saitow         : Open-shell DLPNO-CCSD energy and density
   Barbara Sandhoefer     : DKH picture change effects
   Avijit Sen             : IP-ROCIS
   Kantharuban Sivalingam : CASSCF convergence, NEVPT2, FIC-MRCI
   Bernardo de Souza      : ESD, SOC TD-DFT
   Georgi Stoychev        : AutoAux, RI-MP2 NMR
   Willem Van den Heuvel  : Paramagnetic NMR
   Boris Wezisla          : Elementary symmetry handling
   Frank Wennmohs         : Technical directorship


 We gratefully acknowledge several colleagues who have allowed us to
 interface, adapt or use parts of their codes:
   Stefan Grimme, W. Hujo, H. Kruse,             : VdW corrections, initial TS optimization,
                  C. Bannwarth                     DFT functionals, gCP, sTDA/sTD-DF
   Ed Valeev, F. Pavosevic, A. Kumar             : LibInt (2-el integral package), F12 methods
   Garnet Chan, S. Sharma, J. Yang, R. Olivares  : DMRG
   Ulf Ekstrom                                   : XCFun DFT Library
   Mihaly Kallay                                 : mrcc  (arbitrary order and MRCC methods)
   Andreas Klamt, Michael Diedenhofen            : otool_cosmo (COSMO solvation model)
   Jiri Pittner, Ondrej Demel                    : Mk-CCSD
   Frank Weinhold                                : gennbo (NPA and NBO analysis)
   Christopher J. Cramer and Donald G. Truhlar   : smd solvation model
   Lars Goerigk                                  : TD-DFT with DH, B97 family of functionals
   V. Asgeirsson, H. Jonsson                     : NEB implementation
   FAccTs GmbH                                   : IRC, NEB, NEB-TS, Multilevel, MM, QM/MM, CI optimization
   S Lehtola, MJT Oliveira, MAL Marques          : LibXC Library


 Your calculation uses the libint2 library for the computation of 2-el integrals
 For citations please refer to: http://libint.valeyev.net

 Your ORCA version has been built with support for libXC version: 4.2.3
 For citations please refer to: https://tddft.org/programs/libxc/

 This ORCA versions uses:
   CBLAS   interface :  Fast vector & matrix operations
   LAPACKE interface :  Fast linear algebra routines
   SCALAPACK package :  Parallel linear algebra routines


----- Orbital basis set information -----
Your calculation utilizes the basis: def2-QZVP
   F. Weigend and R. Ahlrichs, Phys. Chem. Chem. Phys. 7, 3297 (2005).

================================================================================
                                        WARNINGS
                       Please study these warnings very carefully!
================================================================================


WARNING: your system is open-shell and RHF/RKS was chosen
  ===> : WILL SWITCH to UHF/UKS


WARNING: MDCI localization with Augmented Hessian Foster-Boys
  ===> : Switching off randomization!

WARNING: Post HF methods need fully converged wavefunctions
  ===> : Setting SCFConvForced true
         You can overwrite this default with %scf ConvForced false 


INFO   : the flag for use of LIBINT has been found!

================================================================================
                                       INPUT FILE
================================================================================
NAME = 09_F.in
|  1> #
|  2> # 09_F CCSD(T)/Def2-QZVP
|  3> #
|  4> ! CCSD(T) Def2-QZVP tightscf
|  5> 
|  6> *xyz 0 2
|  7>  F 0.0 0.0 0.0
|  8> *
|  9> 
| 10> %maxcore 5000 
| 11> 
| 12> %pal
| 13> nprocs 21
| 14> end
| 15> 
| 16> 
| 17>                          ****END OF INPUT****
================================================================================

                       ****************************
                       * Single Point Calculation *
                       ****************************

---------------------------------
CARTESIAN COORDINATES (ANGSTROEM)
---------------------------------
  F      0.000000    0.000000    0.000000

----------------------------
CARTESIAN COORDINATES (A.U.)
----------------------------
  NO LB      ZA    FRAG     MASS         X           Y           Z
   0 F     9.0000    0    18.998    0.000000    0.000000    0.000000

--------------------------------
INTERNAL COORDINATES (ANGSTROEM)
--------------------------------
 F      0   0   0     0.000000000000     0.00000000     0.00000000

---------------------------
INTERNAL COORDINATES (A.U.)
---------------------------
 F      0   0   0     0.000000000000     0.00000000     0.00000000

---------------------
BASIS SET INFORMATION
---------------------
There are 1 groups of distinct atoms

 Group   1 Type F   : 15s8p3d2f1g contracted to 7s4p3d2f1g pattern {8211111/5111/111/11/1}

Atom   0F    basis set group =>   1


           ************************************************************
           *        Program running with 21 parallel MPI-processes    *
           *              working on a common directory               *
           ************************************************************
------------------------------------------------------------------------------
                           ORCA GTO INTEGRAL CALCULATION
------------------------------------------------------------------------------

                         BASIS SET STATISTICS AND STARTUP INFO

 # of primitive gaussian shells          ...   29
 # of primitive gaussian functions       ...   77
 # of contracted shells                  ...   17
 # of contracted basis functions         ...   57
 Highest angular momentum                ...    4
 Maximum contraction depth               ...    8
 Integral package used                   ... LIBINT
 Integral threshhold            Thresh   ...  2.500e-11
 Primitive cut-off              TCut     ...  2.500e-12


------------------------------ INTEGRAL EVALUATION ----------------------------


 * One electron integrals 
 Pre-screening matrix                    ... done
 Shell pair data                         ... done (   0.000 sec)



           ************************************************************
           *        Program running with 21 parallel MPI-processes    *
           *              working on a common directory               *
           ************************************************************
-------------------------------------------------------------------------------
                                 ORCA SCF
-------------------------------------------------------------------------------

------------
SCF SETTINGS
------------
Hamiltonian:
 Ab initio Hamiltonian  Method          .... Hartree-Fock(GTOs)


General Settings:
 Integral files         IntName         .... 09_F
 Hartree-Fock type      HFTyp           .... UHF
 Total Charge           Charge          ....    0
 Multiplicity           Mult            ....    2
 Number of Electrons    NEL             ....    9
 Basis Dimension        Dim             ....   57
 Nuclear Repulsion      ENuc            ....      0.0000000000 Eh

Convergence Acceleration:
 DIIS                   CNVDIIS         .... on
   Start iteration      DIISMaxIt       ....    12
   Startup error        DIISStart       ....  0.200000
   # of expansion vecs  DIISMaxEq       ....     5
   Bias factor          DIISBfac        ....   1.050
   Max. coefficient     DIISMaxC        ....  10.000
 Newton-Raphson         CNVNR           .... off
 SOSCF                  CNVSOSCF        .... off
 Level Shifting         CNVShift        .... on
   Level shift para.    LevelShift      ....    0.2500
   Turn off err/grad.   ShiftErr        ....    0.0010
 Zerner damping         CNVZerner       .... off
 Static damping         CNVDamp         .... on
   Fraction old density DampFac         ....    0.7000
   Max. Damping (<1)    DampMax         ....    0.9800
   Min. Damping (>=0)   DampMin         ....    0.0000
   Turn off err/grad.   DampErr         ....    0.1000
 Fernandez-Rico         CNVRico         .... off

SCF Procedure:
 Maximum # iterations   MaxIter         ....   125
 SCF integral mode      SCFMode         .... Direct
   Integral package                     .... LIBINT
 Reset frequency        DirectResetFreq ....    20
 Integral Threshold     Thresh          ....  2.500e-11 Eh
 Primitive CutOff       TCut            ....  2.500e-12 Eh

Convergence Tolerance:
 Convergence Check Mode ConvCheckMode   .... Total+1el-Energy
 Convergence forced     ConvForced      .... 1
 Energy Change          TolE            ....  1.000e-08 Eh
 1-El. energy change                    ....  1.000e-05 Eh
 DIIS Error             TolErr          ....  5.000e-07


Diagonalization of the overlap matrix:
Smallest eigenvalue                        ... 5.475e-03
Time for diagonalization                   ...    0.002 sec
Threshold for overlap eigenvalues          ... 1.000e-08
Number of eigenvalues below threshold      ... 0
Time for construction of square roots      ...    0.011 sec
Total time needed                          ...    0.013 sec

-------------------
DFT GRID GENERATION
-------------------

General Integration Accuracy     IntAcc      ...  4.340
Radial Grid Type                 RadialGrid  ... Gauss-Chebyshev
Angular Grid (max. acc.)         AngularGrid ... Lebedev-110
Angular grid pruning method      GridPruning ... 3 (G Style)
Weight generation scheme         WeightScheme... Becke
Basis function cutoff            BFCut       ...    1.0000e-11
Integration weight cutoff        WCut        ...    1.0000e-14
Grids for H and He will be reduced by one unit

# of grid points (after initial pruning)     ...   1740 (   0.0 sec)
# of grid points (after weights+screening)   ...   1740 (   0.0 sec)
Grid point division into batches done        ...    0.0 sec
Reduced shell lists constructed in    0.0 sec

Total number of grid points                  ...     1740
Total number of batches                      ...       28
Average number of points per batch           ...       62
Average number of grid points per atom       ...     1740
Average number of shells per batch           ...     4.67 (27.45%)
Average number of basis functions per batch  ...    15.33 (26.90%)
Average number of large shells per batch     ...     3.33 (71.43%)
Average number of large basis fcns per batch ...     8.67 (56.52%)
Maximum spatial batch extension              ...  13.89, 25.65, 25.65 au
Average spatial batch extension              ...   0.99,  1.83,  1.83 au

Time for grid setup =    0.041 sec

------------------------------
INITIAL GUESS: MODEL POTENTIAL
------------------------------
Loading Hartree-Fock densities                     ... done
Calculating cut-offs                               ... done
Setting up the integral package                    ... done
Initializing the effective Hamiltonian             ... done
Starting the Coulomb interaction                   ... done (   0.0 sec)
Reading the grid                                   ... done
Mapping shells                                     ... done
Starting the XC term evaluation                    ... done (   0.0 sec)
Transforming the Hamiltonian                       ... done (   0.0 sec)
Diagonalizing the Hamiltonian                      ... done (   0.0 sec)
Back transforming the eigenvectors                 ... done (   0.0 sec)
Now organizing SCF variables                       ... done
                      ------------------
                      INITIAL GUESS DONE (   0.2 sec)
                      ------------------
--------------
SCF ITERATIONS
--------------
ITER       Energy         Delta-E        Max-DP      RMS-DP      [F,P]     Damp
               ***  Starting incremental Fock matrix formation  ***
  0    -99.3948874530   0.000000000000 0.00696627  0.00028019  0.4279774 0.7000
  1    -99.4004010337  -0.005513580660 0.00651023  0.00023650  0.3049001 0.7000
  2    -99.4045585070  -0.004157473291 0.00526541  0.00018016  0.2167800 0.7000
                               ***Turning on DIIS***
  3    -99.4076390639  -0.003080556919 0.00417349  0.00013601  0.1543519 0.7000
  4    -99.3808031916   0.026835872310 0.00380571  0.00011506  0.1100688 0.7000
  5    -99.3870722260  -0.006269034434 0.01030453  0.00030599  0.0778461 0.0000
  6    -99.4155250048  -0.028452778813 0.00090712  0.00003539  0.0021478 0.0000
  7    -99.4147684168   0.000756588036 0.00064272  0.00003344  0.0009718 0.0000
  8    -99.4157133369  -0.000944920131 0.00014231  0.00000736  0.0002978 0.0000
  9    -99.4159623459  -0.000249008995 0.00004811  0.00000264  0.0000473 0.0000
 10    -99.4158712971   0.000091048767 0.00002338  0.00000139  0.0000174 0.0000
 11    -99.4158859827  -0.000014685532 0.00000967  0.00000059  0.0000040 0.0000
 12    -99.4158866758  -0.000000693184 0.00000407  0.00000025  0.0000014 0.0000
                            ***DIIS convergence achieved***

               *****************************************************
               *                     SUCCESS                       *
               *           SCF CONVERGED AFTER  13 CYCLES          *
               *****************************************************


----------------
TOTAL SCF ENERGY
----------------

Total Energy       :          -99.41588712 Eh           -2705.24382 eV

Components:
Nuclear Repulsion  :            0.00000000 Eh               0.00000 eV
Electronic Energy  :          -99.41588712 Eh           -2705.24382 eV
One Electron Energy:         -139.25135713 Eh           -3789.22207 eV
Two Electron Energy:           39.83547002 Eh            1083.97825 eV

Virial components:
Potential Energy   :         -198.83276598 Eh           -5410.51463 eV
Kinetic Energy     :           99.41687886 Eh            2705.27081 eV
Virial Ratio       :            1.99999002


---------------
SCF CONVERGENCE
---------------

  Last Energy change         ...   -4.3920e-07  Tolerance :   1.0000e-08
  Last MAX-Density change    ...    1.2136e-06  Tolerance :   1.0000e-07
  Last RMS-Density change    ...    7.3402e-08  Tolerance :   5.0000e-09
  Last DIIS Error            ...    3.3600e-07  Tolerance :   5.0000e-07

             **** THE GBW FILE WAS UPDATED (09_F.gbw) ****
             **** DENSITY FILE WAS UPDATED (09_F.scfp) ****
             **** ENERGY FILE WAS UPDATED (09_F.en.tmp) ****
----------------------
UHF SPIN CONTAMINATION
----------------------

Expectation value of <S**2>     :     0.754034
Ideal value S*(S+1) for S=0.5   :     0.750000
Deviation                       :     0.004034

             **** THE GBW FILE WAS UPDATED (09_F.gbw) ****
             **** DENSITY FILE WAS UPDATED (09_F.scfp) ****
----------------
ORBITAL ENERGIES
----------------
                 SPIN UP ORBITALS
  NO   OCC          E(Eh)            E(eV) 
   0   1.0000     -26.406332      -718.5528 
   1   1.0000      -1.672072       -45.4994 
   2   1.0000      -0.845017       -22.9941 
   3   1.0000      -0.731296       -19.8996 
   4   1.0000      -0.731296       -19.8996 
   5   0.0000       0.407839        11.0979 
   6   0.0000       0.430796        11.7226 
   7   0.0000       0.430796        11.7226 
   8   0.0000       0.645313        17.5599 
   9   0.0000       1.533350        41.7246 
  10   0.0000       1.546109        42.0718 
  11   0.0000       1.546109        42.0718 
  12   0.0000       1.586679        43.1757 
  13   0.0000       1.586679        43.1757 
  14   0.0000       1.832174        49.8560 
  15   0.0000       1.892381        51.4943 
  16   0.0000       1.892381        51.4943 
  17   0.0000       3.747893       101.9853 
  18   0.0000       4.435959       120.7086 
  19   0.0000       4.444138       120.9312 
  20   0.0000       4.444138       120.9312 
  21   0.0000       4.468735       121.6005 
  22   0.0000       4.468735       121.6005 
  23   0.0000       4.510080       122.7255 
  24   0.0000       4.510080       122.7255 
  25   0.0000       5.235499       142.4652 
  26   0.0000       5.258373       143.0876 
  27   0.0000       5.258373       143.0876 
  28   0.0000       5.330674       145.0550 
  29   0.0000       5.330674       145.0550 
  30   0.0000       6.547961       178.1791 
  31   0.0000       6.632122       180.4692 
  32   0.0000       6.632122       180.4692 
  33   0.0000      11.837377       322.1114 
  34   0.0000      11.843624       322.2814 
  35   0.0000      11.843624       322.2814 
  36   0.0000      11.862422       322.7929 
  37   0.0000      11.862422       322.7929 
  38   0.0000      11.893951       323.6509 
  39   0.0000      11.893951       323.6509 
  40   0.0000      11.938530       324.8639 
  41   0.0000      11.938530       324.8639 
  42   0.0000      15.048457       409.4893 
  43   0.0000      15.070003       410.0756 
  44   0.0000      15.082242       410.4087 
  45   0.0000      15.082242       410.4087 
  46   0.0000      15.119092       411.4114 
  47   0.0000      15.119092       411.4114 
  48   0.0000      15.180982       413.0955 
  49   0.0000      15.180982       413.0955 
  50   0.0000      16.291511       443.3146 
  51   0.0000      16.314561       443.9418 
  52   0.0000      16.314561       443.9418 
  53   0.0000      16.389603       445.9838 
  54   0.0000      16.389603       445.9838 
  55   0.0000      54.721325      1489.0429 
  56   0.0000     287.428411      7821.3247 

                 SPIN DOWN ORBITALS
  NO   OCC          E(Eh)            E(eV) 
   0   1.0000     -26.358378      -717.2479 
   1   1.0000      -1.476758       -40.1846 
   2   1.0000      -0.679634       -18.4938 
   3   1.0000      -0.679634       -18.4938 
   4   0.0000       0.048733         1.3261 
   5   0.0000       0.436982        11.8909 
   6   0.0000       0.436982        11.8909 
   7   0.0000       0.506735        13.7890 
   8   0.0000       0.671024        18.2595 
   9   0.0000       1.587975        43.2110 
  10   0.0000       1.587975        43.2110 
  11   0.0000       1.606172        43.7062 
  12   0.0000       1.606172        43.7062 
  13   0.0000       1.613341        43.9012 
  14   0.0000       1.910235        51.9801 
  15   0.0000       1.910235        51.9801 
  16   0.0000       1.979127        53.8548 
  17   0.0000       3.799357       103.3858 
  18   0.0000       4.489152       122.1560 
  19   0.0000       4.491681       122.2249 
  20   0.0000       4.491681       122.2249 
  21   0.0000       4.499212       122.4298 
  22   0.0000       4.499212       122.4298 
  23   0.0000       4.511579       122.7663 
  24   0.0000       4.511579       122.7663 
  25   0.0000       5.348378       145.5368 
  26   0.0000       5.348378       145.5368 
  27   0.0000       5.368467       146.0834 
  28   0.0000       5.368467       146.0834 
  29   0.0000       5.375851       146.2843 
  30   0.0000       6.656226       181.1251 
  31   0.0000       6.656226       181.1251 
  32   0.0000       6.697668       182.2528 
  33   0.0000      11.886810       323.4565 
  34   0.0000      11.890232       323.5497 
  35   0.0000      11.890232       323.5497 
  36   0.0000      11.900505       323.8292 
  37   0.0000      11.900505       323.8292 
  38   0.0000      11.917644       324.2956 
  39   0.0000      11.917644       324.2956 
  40   0.0000      11.941667       324.9493 
  41   0.0000      11.941667       324.9493 
  42   0.0000      15.095517       410.7699 
  43   0.0000      15.152294       412.3149 
  44   0.0000      15.156700       412.4348 
  45   0.0000      15.156700       412.4348 
  46   0.0000      15.169903       412.7940 
  47   0.0000      15.169903       412.7940 
  48   0.0000      15.191863       413.3916 
  49   0.0000      15.191863       413.3916 
  50   0.0000      16.395792       446.1522 
  51   0.0000      16.398675       446.2306 
  52   0.0000      16.398675       446.2306 
  53   0.0000      16.407716       446.4767 
  54   0.0000      16.407716       446.4767 
  55   0.0000      54.743675      1489.6511 
  56   0.0000     287.434397      7821.4876 

                    ********************************
                    * MULLIKEN POPULATION ANALYSIS *
                    ********************************

--------------------------------------------
MULLIKEN ATOMIC CHARGES AND SPIN POPULATIONS
--------------------------------------------
   0 F :   -0.000000    1.000000
Sum of atomic charges         :   -0.0000000
Sum of atomic spin populations:    1.0000000

-----------------------------------------------------
MULLIKEN REDUCED ORBITAL CHARGES AND SPIN POPULATIONS
-----------------------------------------------------
CHARGE
  0 F s       :     3.998881  s :     3.998881
      pz      :     1.288594  p :     4.999759
      px      :     1.940367
      py      :     1.770798
      dz2     :     0.000360  d :     0.001119
      dxz     :     0.000142
      dyz     :     0.000547
      dx2y2   :     0.000024
      dxy     :     0.000046
      f0      :     0.000055  f :     0.000241
      f+1     :     0.000037
      f-1     :     0.000062
      f+2     :     0.000037
      f-2     :     0.000038
      f+3     :     0.000005
      f-3     :     0.000005
      g0      :     0.000000  g :     0.000000
      g+1     :     0.000000
      g-1     :     0.000000
      g+2     :     0.000000
      g-2     :     0.000000
      g+3     :     0.000000
      g-3     :     0.000000
      g+4     :     0.000000
      g-4     :     0.000000

SPIN
  0 F s       :     0.000302  s :     0.000302
      pz      :     0.711224  p :     0.999764
      px      :     0.059491
      py      :     0.229050
      dz2     :    -0.000097  d :    -0.000302
      dxz     :    -0.000038
      dyz     :    -0.000147
      dx2y2   :    -0.000007
      dxy     :    -0.000012
      f0      :     0.000054  f :     0.000236
      f+1     :     0.000037
      f-1     :     0.000062
      f+2     :     0.000036
      f-2     :     0.000037
      f+3     :     0.000005
      f-3     :     0.000005
      g0      :     0.000000  g :     0.000000
      g+1     :     0.000000
      g-1     :     0.000000
      g+2     :     0.000000
      g-2     :     0.000000
      g+3     :     0.000000
      g-3     :     0.000000
      g+4     :     0.000000
      g-4     :     0.000000


                     *******************************
                     * LOEWDIN POPULATION ANALYSIS *
                     *******************************

-------------------------------------------
LOEWDIN ATOMIC CHARGES AND SPIN POPULATIONS
-------------------------------------------
   0 F :   -0.000000    1.000000

----------------------------------------------------
LOEWDIN REDUCED ORBITAL CHARGES AND SPIN POPULATIONS
----------------------------------------------------
CHARGE
  0 F s       :     3.998881  s :     3.998881
      pz      :     1.288594  p :     4.999759
      px      :     1.940367
      py      :     1.770798
      dz2     :     0.000360  d :     0.001119
      dxz     :     0.000142
      dyz     :     0.000547
      dx2y2   :     0.000024
      dxy     :     0.000046
      f0      :     0.000055  f :     0.000241
      f+1     :     0.000037
      f-1     :     0.000062
      f+2     :     0.000037
      f-2     :     0.000038
      f+3     :     0.000005
      f-3     :     0.000005
      g0      :     0.000000  g :     0.000000
      g+1     :     0.000000
      g-1     :     0.000000
      g+2     :     0.000000
      g-2     :     0.000000
      g+3     :     0.000000
      g-3     :     0.000000
      g+4     :     0.000000
      g-4     :     0.000000

SPIN
  0 F s       :     0.000302  s :     0.000302
      pz      :     0.711224  p :     0.999764
      px      :     0.059491
      py      :     0.229050
      dz2     :    -0.000097  d :    -0.000302
      dxz     :    -0.000038
      dyz     :    -0.000147
      dx2y2   :    -0.000007
      dxy     :    -0.000012
      f0      :     0.000054  f :     0.000236
      f+1     :     0.000037
      f-1     :     0.000062
      f+2     :     0.000036
      f-2     :     0.000037
      f+3     :     0.000005
      f-3     :     0.000005
      g0      :     0.000000  g :     0.000000
      g+1     :     0.000000
      g-1     :     0.000000
      g+2     :     0.000000
      g-2     :     0.000000
      g+3     :     0.000000
      g-3     :     0.000000
      g+4     :     0.000000
      g-4     :     0.000000


                      *****************************
                      * MAYER POPULATION ANALYSIS *
                      *****************************

  NA   - Mulliken gross atomic population
  ZA   - Total nuclear charge
  QA   - Mulliken gross atomic charge
  VA   - Mayer's total valence
  BVA  - Mayer's bonded valence
  FA   - Mayer's free valence

  ATOM       NA         ZA         QA         VA         BVA        FA
  0 F      9.0000     9.0000    -0.0000     1.0081     0.0000     1.0081

  Mayer bond orders larger than 0.100000


-------
TIMINGS
-------

Total SCF time: 0 days 0 hours 0 min 3 sec 

Total time                  ....       3.303 sec
Sum of individual times     ....       2.914 sec  ( 88.2%)

Fock matrix formation       ....       2.350 sec  ( 71.1%)
Diagonalization             ....       0.072 sec  (  2.2%)
Density matrix formation    ....       0.007 sec  (  0.2%)
Population analysis         ....       0.064 sec  (  1.9%)
Initial guess               ....       0.121 sec  (  3.7%)
Orbital Transformation      ....       0.000 sec  (  0.0%)
Orbital Orthonormalization  ....       0.000 sec  (  0.0%)
DIIS solution               ....       0.261 sec  (  7.9%)


           ************************************************************
           *        Program running with 21 parallel MPI-processes    *
           *              working on a common directory               *
           ************************************************************


------------------------------------------------------------------------------- 
                              ORCA-MATRIX DRIVEN CI                            
------------------------------------------------------------------------------- 

--------------------------------
AUTOMATIC CHOICE OF INCORE LEVEL
--------------------------------

Memory available                           ...   2500.00 MB
Memory needed for S+T                      ...      0.62 MB
Memory needed for J+K                      ...      1.25 MB
Memory needed for DIIS                     ...      8.66 MB
Memory needed for 3-ext                    ...      4.29 MB
Memory needed for 4-ext                    ...     28.43 MB
Memory needed for triples                  ...      5.36 MB
 -> Final InCoreLevel    ... 5
 -> check shows that triples correction can be computed


Wavefunction type
-----------------
Correlation treatment                      ...      CCSD     
Single excitations                         ... ON
Orbital optimization                       ... OFF
Calculation of Z vector                    ... OFF
Calculation of Brueckner orbitals          ... OFF
Perturbative triple excitations            ... ON
Calculation of F12 correction              ... OFF
Frozen core treatment                      ... chemical core (2 el)
Reference Wavefunction                     ... UHF
  Alpha-MOs occ    :     1 ...    4 (  4 MO's/  4 electrons)
  Beta-MOs occ     :     1 ...    3 (  3 MO's/  3 electrons)
  Alpha-MOs virt   :     5 ...   56 ( 52 MO's              )
  Beta-MOs virt    :     4 ...   56 ( 53 MO's              )
Number of AO's                             ...     57
Number of electrons                        ...      9
Number of correlated electrons             ...      7

Algorithmic settings
--------------------
Integral transformation                    ... AO direct full transformation
K(C) Formation                             ... FULL-MO TRAFO
Maximum number of iterations               ...        50
Convergence tolerance (max. residuum)      ... 1.000e-05
Level shift for amplitude update           ... 2.000e-01
Maximum number of DIIS vectors             ...         7
DIIS turned on at iteration                ...         0
Damping before turning on DIIS             ...     0.500
Damping after turning on DIIS              ...     0.000
Pair specific amplitude update             ... OFF
Natural orbital iterations                 ... OFF
Perturbative natural orbital generation    ... OFF
Printlevel                                 ... 2

Memory handling:
----------------
Maximum memory for working arrays          ...   2500 MB
Data storage in matrix containers          ... UNCOMPRESSED
Data type for integral storage             ... DOUBLE
In-Core Storage of quantities:
   Amplitudes+Sigma Vector      ... YES
   J+K operators                ... YES
   DIIS vectors                 ... YES
   3-external integrals         ... YES
   4-external integrals         ... YES


Initializing the integral package          ... done
Warning: reference  - re-canonicalizations have been set to INT 1 VIRT 1

--------------------------
UNRESTRICTED FOCK OPERATOR
--------------------------

<ss|ss>:          406 b            0 skpd (  0.0%)    0.000 s ( 0.001 ms/b)
<ss|sp>:          784 b            0 skpd (  0.0%)    0.001 s ( 0.001 ms/b)
<ss|sd>:          588 b            0 skpd (  0.0%)    0.000 s ( 0.000 ms/b)
<ss|sf>:          392 b            0 skpd (  0.0%)    0.000 s ( 0.000 ms/b)
<ss|sg>:          196 b            0 skpd (  0.0%)    0.000 s ( 0.001 ms/b)
<ss|pp>:          280 b            0 skpd (  0.0%)    0.000 s ( 0.001 ms/b)
<ss|pd>:          336 b            0 skpd (  0.0%)    0.000 s ( 0.000 ms/b)
<ss|pf>:          224 b            0 skpd (  0.0%)    0.000 s ( 0.002 ms/b)
<ss|pg>:          112 b            0 skpd (  0.0%)    0.000 s ( 0.002 ms/b)
<ss|dd>:          168 b            0 skpd (  0.0%)    0.000 s ( 0.000 ms/b)
<ss|df>:          168 b            0 skpd (  0.0%)    0.000 s ( 0.001 ms/b)
<ss|dg>:           84 b            0 skpd (  0.0%)    0.000 s ( 0.001 ms/b)
<ss|ff>:           84 b            0 skpd (  0.0%)    0.000 s ( 0.001 ms/b)
<ss|fg>:           56 b            0 skpd (  0.0%)    0.000 s ( 0.003 ms/b)
<ss|gg>:           28 b            0 skpd (  0.0%)    0.000 s ( 0.009 ms/b)
<sp|sp>:          406 b            0 skpd (  0.0%)    0.000 s ( 0.001 ms/b)
<sp|sd>:          588 b            0 skpd (  0.0%)    0.000 s ( 0.000 ms/b)
<sp|sf>:          392 b            0 skpd (  0.0%)    0.000 s ( 0.000 ms/b)
<sp|sg>:          196 b            0 skpd (  0.0%)    0.000 s ( 0.002 ms/b)
<sp|pp>:          280 b            0 skpd (  0.0%)    0.000 s ( 0.001 ms/b)
<sp|pd>:          336 b            0 skpd (  0.0%)    0.000 s ( 0.001 ms/b)
<sp|pf>:          224 b            0 skpd (  0.0%)    0.001 s ( 0.004 ms/b)
<sp|pg>:          112 b            0 skpd (  0.0%)    0.000 s ( 0.004 ms/b)
<sp|dd>:          168 b            0 skpd (  0.0%)    0.000 s ( 0.001 ms/b)
<sp|df>:          168 b            0 skpd (  0.0%)    0.000 s ( 0.001 ms/b)
<sp|dg>:           84 b            0 skpd (  0.0%)    0.000 s ( 0.003 ms/b)
<sp|ff>:           84 b            0 skpd (  0.0%)    0.000 s ( 0.003 ms/b)
<sp|fg>:           56 b            0 skpd (  0.0%)    0.000 s ( 0.007 ms/b)
<sp|gg>:           28 b            0 skpd (  0.0%)    0.001 s ( 0.019 ms/b)
<sd|sd>:          231 b            0 skpd (  0.0%)    0.000 s ( 0.000 ms/b)
<sd|sf>:          294 b            0 skpd (  0.0%)    0.000 s ( 0.001 ms/b)
<sd|sg>:          147 b            0 skpd (  0.0%)    0.000 s ( 0.002 ms/b)
<sd|pp>:          210 b            0 skpd (  0.0%)    0.000 s ( 0.002 ms/b)
<sd|pd>:          252 b            0 skpd (  0.0%)    0.000 s ( 0.001 ms/b)
<sd|pf>:          168 b            0 skpd (  0.0%)    0.001 s ( 0.003 ms/b)
<sd|pg>:           84 b            0 skpd (  0.0%)    0.000 s ( 0.005 ms/b)
<sd|dd>:          126 b            0 skpd (  0.0%)    0.000 s ( 0.002 ms/b)
<sd|df>:          126 b            0 skpd (  0.0%)    0.000 s ( 0.002 ms/b)
<sd|dg>:           63 b            0 skpd (  0.0%)    0.000 s ( 0.006 ms/b)
<sd|ff>:           63 b            0 skpd (  0.0%)    0.000 s ( 0.006 ms/b)
<sd|fg>:           42 b            0 skpd (  0.0%)    0.001 s ( 0.012 ms/b)
<sd|gg>:           21 b            0 skpd (  0.0%)    0.001 s ( 0.034 ms/b)
<sf|sf>:          105 b            0 skpd (  0.0%)    0.000 s ( 0.001 ms/b)
<sf|sg>:           98 b            0 skpd (  0.0%)    0.000 s ( 0.004 ms/b)
<sf|pp>:          140 b            0 skpd (  0.0%)    0.000 s ( 0.003 ms/b)
<sf|pd>:          168 b            0 skpd (  0.0%)    0.000 s ( 0.001 ms/b)
<sf|pf>:          112 b            0 skpd (  0.0%)    0.001 s ( 0.006 ms/b)
<sf|pg>:           56 b            0 skpd (  0.0%)    0.001 s ( 0.011 ms/b)
<sf|dd>:           84 b            0 skpd (  0.0%)    0.000 s ( 0.002 ms/b)
<sf|df>:           84 b            0 skpd (  0.0%)    0.000 s ( 0.003 ms/b)
<sf|dg>:           42 b            0 skpd (  0.0%)    0.000 s ( 0.009 ms/b)
<sf|ff>:           42 b            0 skpd (  0.0%)    0.001 s ( 0.013 ms/b)
<sf|fg>:           28 b            0 skpd (  0.0%)    0.001 s ( 0.025 ms/b)
<sf|gg>:           14 b            0 skpd (  0.0%)    0.001 s ( 0.064 ms/b)
<sg|sg>:           28 b            0 skpd (  0.0%)    0.000 s ( 0.008 ms/b)
<sg|pp>:           70 b            0 skpd (  0.0%)    0.000 s ( 0.007 ms/b)
<sg|pd>:           84 b            0 skpd (  0.0%)    0.000 s ( 0.003 ms/b)
<sg|pf>:           56 b            0 skpd (  0.0%)    0.000 s ( 0.007 ms/b)
<sg|pg>:           28 b            0 skpd (  0.0%)    0.001 s ( 0.023 ms/b)
<sg|dd>:           42 b            0 skpd (  0.0%)    0.000 s ( 0.003 ms/b)
<sg|df>:           42 b            0 skpd (  0.0%)    0.000 s ( 0.005 ms/b)
<sg|dg>:           21 b            0 skpd (  0.0%)    0.000 s ( 0.018 ms/b)
<sg|ff>:           21 b            0 skpd (  0.0%)    0.000 s ( 0.017 ms/b)
<sg|fg>:           14 b            0 skpd (  0.0%)    0.001 s ( 0.045 ms/b)
<sg|gg>:            7 b            0 skpd (  0.0%)    0.001 s ( 0.117 ms/b)
<pp|pp>:           55 b            0 skpd (  0.0%)    0.000 s ( 0.007 ms/b)
<pp|pd>:          120 b            0 skpd (  0.0%)    0.000 s ( 0.001 ms/b)
<pp|pf>:           80 b            0 skpd (  0.0%)    0.000 s ( 0.004 ms/b)
<pp|pg>:           40 b            0 skpd (  0.0%)    0.000 s ( 0.011 ms/b)
<pp|dd>:           60 b            0 skpd (  0.0%)    0.000 s ( 0.002 ms/b)
<pp|df>:           60 b            0 skpd (  0.0%)    0.000 s ( 0.004 ms/b)
<pp|dg>:           30 b            0 skpd (  0.0%)    0.000 s ( 0.010 ms/b)
<pp|ff>:           30 b            0 skpd (  0.0%)    0.000 s ( 0.011 ms/b)
<pp|fg>:           20 b            0 skpd (  0.0%)    0.000 s ( 0.023 ms/b)
<pp|gg>:           10 b            0 skpd (  0.0%)    0.001 s ( 0.062 ms/b)
<pd|pd>:           78 b            0 skpd (  0.0%)    0.000 s ( 0.003 ms/b)
<pd|pf>:           96 b            0 skpd (  0.0%)    0.000 s ( 0.005 ms/b)
<pd|pg>:           48 b            0 skpd (  0.0%)    0.001 s ( 0.013 ms/b)
<pd|dd>:           72 b            0 skpd (  0.0%)    0.000 s ( 0.004 ms/b)
<pd|df>:           72 b            0 skpd (  0.0%)    0.000 s ( 0.006 ms/b)
<pd|dg>:           36 b            0 skpd (  0.0%)    0.001 s ( 0.016 ms/b)
<pd|ff>:           36 b            0 skpd (  0.0%)    0.001 s ( 0.016 ms/b)
<pd|fg>:           24 b            0 skpd (  0.0%)    0.001 s ( 0.035 ms/b)
<pd|gg>:           12 b            0 skpd (  0.0%)    0.001 s ( 0.094 ms/b)
<pf|pf>:           36 b            0 skpd (  0.0%)    0.000 s ( 0.013 ms/b)
<pf|pg>:           32 b            0 skpd (  0.0%)    0.001 s ( 0.024 ms/b)
<pf|dd>:           48 b            0 skpd (  0.0%)    0.000 s ( 0.005 ms/b)
<pf|df>:           48 b            0 skpd (  0.0%)    0.000 s ( 0.009 ms/b)
<pf|dg>:           24 b            0 skpd (  0.0%)    0.001 s ( 0.023 ms/b)
<pf|ff>:           24 b            0 skpd (  0.0%)    0.001 s ( 0.034 ms/b)
<pf|fg>:           16 b            0 skpd (  0.0%)    0.001 s ( 0.065 ms/b)
<pf|gg>:            8 b            0 skpd (  0.0%)    0.001 s ( 0.161 ms/b)
<pg|pg>:           10 b            0 skpd (  0.0%)    0.001 s ( 0.050 ms/b)
<pg|dd>:           24 b            0 skpd (  0.0%)    0.000 s ( 0.008 ms/b)
<pg|df>:           24 b            0 skpd (  0.0%)    0.000 s ( 0.013 ms/b)
<pg|dg>:           12 b            0 skpd (  0.0%)    0.001 s ( 0.045 ms/b)
<pg|ff>:           12 b            0 skpd (  0.0%)    0.000 s ( 0.040 ms/b)
<pg|fg>:            8 b            0 skpd (  0.0%)    0.001 s ( 0.107 ms/b)
<pg|gg>:            4 b            0 skpd (  0.0%)    0.001 s ( 0.266 ms/b)
<dd|dd>:           21 b            0 skpd (  0.0%)    0.000 s ( 0.007 ms/b)
<dd|df>:           36 b            0 skpd (  0.0%)    0.000 s ( 0.009 ms/b)
<dd|dg>:           18 b            0 skpd (  0.0%)    0.000 s ( 0.025 ms/b)
<dd|ff>:           18 b            0 skpd (  0.0%)    0.000 s ( 0.025 ms/b)
<dd|fg>:           12 b            0 skpd (  0.0%)    0.001 s ( 0.054 ms/b)
<dd|gg>:            6 b            0 skpd (  0.0%)    0.001 s ( 0.140 ms/b)
<df|df>:           21 b            0 skpd (  0.0%)    0.001 s ( 0.024 ms/b)
<df|dg>:           18 b            0 skpd (  0.0%)    0.001 s ( 0.039 ms/b)
<df|ff>:           18 b            0 skpd (  0.0%)    0.001 s ( 0.055 ms/b)
<df|fg>:           12 b            0 skpd (  0.0%)    0.001 s ( 0.103 ms/b)
<df|gg>:            6 b            0 skpd (  0.0%)    0.002 s ( 0.258 ms/b)
<dg|dg>:            6 b            0 skpd (  0.0%)    0.001 s ( 0.090 ms/b)
<dg|ff>:            9 b            0 skpd (  0.0%)    0.001 s ( 0.060 ms/b)
<dg|fg>:            6 b            0 skpd (  0.0%)    0.001 s ( 0.153 ms/b)
<dg|gg>:            3 b            0 skpd (  0.0%)    0.001 s ( 0.391 ms/b)
<ff|ff>:            6 b            0 skpd (  0.0%)    0.001 s ( 0.092 ms/b)
<ff|fg>:            6 b            0 skpd (  0.0%)    0.001 s ( 0.170 ms/b)
<ff|gg>:            3 b            0 skpd (  0.0%)    0.002 s ( 0.597 ms/b)
<fg|fg>:            3 b            0 skpd (  0.0%)    0.001 s ( 0.319 ms/b)
<fg|gg>:            2 b            0 skpd (  0.0%)    0.001 s ( 0.703 ms/b)
<gg|gg>:            1 b            0 skpd (  0.0%)    0.001 s ( 1.154 ms/b)
Recanonicalizing the internal orbitals
Recanonicalizing the virtual orbitals
Time needed for Fock operator              ...            0.102 sec
Reference energy                           ...    -99.415886982
Warning: for UHF the TrafoType has to be JK
Warning: for UHF the K(C)-option cannot be MO but must be AOX

-------------------------------
PARTIAL EXCHANGE TRANSFORMATION
-------------------------------

Transformation type                        ... two-operators
Generation of integrals (i,mue|j,nue)      ... ON
Generation of integrals (mue,kappa|nue,tau)... ON
Generation of integrals (i,mue|a,nue)      ... ON
Dimension of the basis                     ...   57
Number of internal alpha-MOs               ...    4 (   1-   4)
Number of internal beta-MOs                ...    3 (   1-   3)
Number of external alpha-MOs               ...   52 (   5-  56)
Number of external beta-MOs                ...   53 (   4-  56)
Pair cutoff                                ... 0.000e+00 Eh
Number of AO pairs in the trafo            ... 1653
Total Number of distinct AO pairs          ... 1653
Memory devoted for trafo                   ... 2500.0 MB 
Max. Number of MO pairs treated together   ... 100855      
Number Format for Storage                  ... Double (8 Byte)
Integral package used                      ... LIBINT

Starting integral evaluation:
    ... done with AO integral generation
Closing buffer AOK[aa] ( 0.00 GB; CompressionRatio= 0.00)
Closing buffer AOK[bb] ( 0.00 GB; CompressionRatio= 0.00)
Closing buffer AOK[ab] ( 0.00 GB; CompressionRatio= 0.00)
Closing buffer AOK[ba] ( 0.00 GB; CompressionRatio= 0.00)
Collecting buffer AOK 
Closing buffer IAAO1[aa] ( 0.00 GB; CompressionRatio= 0.00)
Closing buffer IAAO1[bb] ( 0.00 GB; CompressionRatio= 0.00)
Closing buffer IAAO1[ab] ( 0.00 GB; CompressionRatio= 0.00)
Closing buffer IAAO1[ba] ( 0.00 GB; CompressionRatio= 0.00)
Closing buffer IAAO2[aa] ( 0.00 GB; CompressionRatio= 0.00)
Closing buffer IAAO2[bb] ( 0.00 GB; CompressionRatio= 0.00)
Closing buffer IAAO2[ab] ( 0.00 GB; CompressionRatio= 0.00)
Closing buffer IAAO2[ba] ( 0.00 GB; CompressionRatio= 0.00)
Collecting buffer IAAO 
Closing buffer PRQS    ( 0.00 GB; CompressionRatio= 0.00)
Collecting buffer PRQS 
Number of alpha/alpha MO pairs in trafo    ...   10
Number of beta /beta  MO pairs in trafo    ...    6
Number of alpha/ beta MO pairs in trafo    ...   12
------------------------
SORTING OF (i,mue|j,nue)
------------------------

SORTING OF ALPHA/ALPHA PAIRS
IBATCH = 1 of  1
Closing buffer KAO[aa] ( 0.00 GB; CompressionRatio= 1.00)
Collecting buffer KAO 
SORTING OF BETA /BETA  PAIRS
IBATCH = 1 of  1
Closing buffer KAO[bb] ( 0.00 GB; CompressionRatio= 1.00)
Collecting buffer KAO 
SORTING OF ALPHA/BETA  PAIRS
IBATCH = 1 of  1
Closing buffer KAO[ab] ( 0.00 GB; CompressionRatio= 0.999538532533)
Collecting buffer KAO[ab] 
------------------------
SORTING OF (i,mue|a,nue)
------------------------

Number of alpha/alpha (i,a) pairs in trafo  ...  208
Number of beta /beta  (i,a) pairs in trafo  ...  159
Number of alpha/ beta (i,a) pairs in trafo  ...  212
Number of beta /alpha (i,a) pairs in trafo  ...  156
Setting up the alpha/alpha list             ... done
Setting up the beta /beta  list             ... done
Setting up the alpha/beta  list             ... done
Setting up the beta /alpha list             ... done
    ... Now sorting (i,mue|a,nue)integrals
    ... Integrals (i,b|a,c) will be made on the fly
SORTING OF ALPHA/ALPHA PAIRS
IBATCH = 1 of  1
Closing buffer IPAQ[aa]  0.00 GB; CompressionRatio= 1.00)
SORTING OF BETA /BETA  PAIRS
IBATCH = 1 of  1
Closing buffer IPAQ[bb]( 0.00 GB; CompressionRatio= 1.00)
SORTING OF ALPHA/BETA  PAIRS (NMatSort_ab=11)
IBATCH = 1 of  1
Closing buffer IPAQ[ab]( 0.00 GB; CompressionRatio= 1.00)
SORTING OF BETA/ALPHA  PAIRS
IBATCH = 1 of  1
Closing buffer IPAQ[ba]( 0.00 GB; CompressionRatio= 1.00)
N(AO-Batches) Done                         ...         0 
N(AO-Batches) Skipped                      ...         0 
N(IJ)-pairs Skipped                        ...         0 
TOTAL TIME for half transformation         ...     3.070 sec
AO-integral generation                     ...     0.000 sec
Half transformation                        ...     0.000 sec
K-integral sorting                         ...     0.706 sec
<ss|**>: 
------------------------------
PARTIAL COULOMB TRANSFORMATION
------------------------------

Transformation type                        ... two-operators
Dimension of the basis                     ...   57
Number of internal alpha-MOs               ...    4 (1-4)
Number of internal beta-MOs                ...    3 (1-3)
Pair cutoff                                ... 0.000e+00 Eh
Number of AO pairs included in the trafo   ... 1653
Total Number of distinct AO pairs          ... 1653
Memory devoted for trafo                   ... 2500.0 MB 
Max. Number of MO pairs treated together   ... 198233      
Max. Number of MOs treated per batch       ... 3477      
Number Format for Storage                  ... Double (8 Byte)
AO-integral source                         ... DIRECT
Integral package used                      ... LIBINT

Starting integral evaluation:
<sp|**>:         4284 b        0 skpd     0.004 s (  0.001 ms/b)
        4284 b        0 skpd     0.013 s (  0.003 ms/b)
<sd|**>:         3213 b        0 skpd     0.021 s (  0.007 ms/b)
<sf|**>:         2142 b        0 skpd     0.023 s (  0.011 ms/b)
<sg|**>: <pp|**>:         1071 b        0 skpd     0.017 s (  0.016 ms/b)
        1530 b        0 skpd     0.014 s (  0.009 ms/b)
<pd|**>:         1836 b        0 skpd     0.033 s (  0.018 ms/b)
<pf|**>:         1224 b        0 skpd     0.032 s (  0.026 ms/b)
<pg|**>:          612 b        0 skpd     0.037 s (  0.061 ms/b)
<dd|**>:          918 b        0 skpd     0.028 s (  0.031 ms/b)
<df|**>:          918 b        0 skpd     0.044 s (  0.048 ms/b)
<dg|**>:          459 b        0 skpd     0.045 s (  0.097 ms/b)
<ff|**>:          459 b        0 skpd     0.047 s (  0.103 ms/b)
<fg|**>:          306 b        0 skpd     0.054 s (  0.177 ms/b)
<gg|**>:          153 b        0 skpd     0.039 s (  0.257 ms/b)
Closing buffer AOJ[aa] ( 0.00 GB; CompressionRatio= 0.87)
Closing buffer AOJ[bb] ( 0.00 GB; CompressionRatio= 0.00)
Collecting buffer AOJ 
    ... done with AO integral generation
Number of Alpha-MO pairs included          ...   10
Number of Beta-MO pairs included           ...    6
    ... Now sorting integrals
SORTING ALPHA/ALPHA PAIRS
IBATCH = 1 of  1
Closing buffer JAO[aa] ( 0.00 GB; CompressionRatio= 1.00)
SORTING BETA/BETA PAIRS
IBATCH = 1 of  1
Closing buffer JAO[bb] ( 0.00 GB; CompressionRatio= 1.00)
Collecting buffer JAO 
TOTAL TIME for half transformation         ...     0.681 sec
AO-integral generation                     ...     0.369 sec
Half transformation                        ...     0.084 sec
J-integral sorting                         ...     0.098 sec

-------------------------- SECOND HALF TRANSFORMATION -------------------------
Formation of (ij|kl),(ij|ka), (ij|ab)      ... ok (     0.151 sec)
Formation of (ik|jl),(ik|ja), (ia|jb)      ... ok (     0.189 sec)


-----------------------
SPIN UNRESTRICTED GUESS
-----------------------

Entering MDCI_UHF_Guess, Tailored=0
Spin-components of the MP2 energy:
EMP2(aa)=     -0.034886890
EMP2(bb)=     -0.016563112
EMP2(ab)=     -0.168746760

Initial guess performed in     0.003 sec
E(0)                                       ...    -99.415886982
E(MP2)                                     ...     -0.220196762
Initial E(tot)                             ...    -99.636083744
<T|T>                                      ...      0.033176656
Number of pairs included                   ... 21

------------------------------------------------
                  UHF COUPLED CLUSTER ITERATIONS
------------------------------------------------

Number of amplitudes to be optimized       ...        45579

Iter       E(tot)           E(Corr)          Delta-E          Residual     Time      <S|S>**1/2
  0    -99.636083744     -0.220196762     -0.000000000      0.021803857    0.13      0.000000068
                           *** Turning on DIIS ***
  1    -99.643023443     -0.227136461     -0.006939698      0.005885847    0.12      0.012055384
  2    -99.645898298     -0.230011315     -0.002874855      0.002617268    0.12      0.015017349
  3    -99.646401821     -0.230514838     -0.000503523      0.001497790    0.12      0.016769603
  4    -99.646518765     -0.230631783     -0.000116944      0.000643663    0.11      0.017271095
  5    -99.646535749     -0.230648767     -0.000016984      0.000158737    0.11      0.017361599
  6    -99.646539331     -0.230652349     -0.000003582      0.000029161    0.11      0.017333364
  7    -99.646538552     -0.230651570      0.000000779      0.000007469    0.12      0.017317708
               --- The Coupled-Cluster iterations have converged ---

----------------------
COUPLED CLUSTER ENERGY
----------------------

E(0)                                       ...    -99.415886982
E(CORR)                                    ...     -0.230651570
E(TOT)                                     ...    -99.646538552
Singles norm <S|S>**1/2                    ...      0.017317708 ( 0.011092651, 0.006225057)  
T1 diagnostic                              ...      0.006545478                              

------------------
LARGEST AMPLITUDES
------------------
   2a->  9a   1b->  4b       0.026657
   3a-> 15a   3b-> 15b       0.025020
   4a-> 16a   2b-> 14b       0.025020
   3a->  6a   3b->  6b       0.022950
   4a->  7a   2b->  5b       0.022950
   4a-> 10a   1b->  4b       0.021373
   3a-> 11a   1b->  4b       0.021373
   4a-> 16a   2b->  5b       0.020637
   3a-> 15a   3b->  6b       0.020637
   3a->  6a   3b-> 15b       0.019588
   4a->  7a   2b-> 14b       0.019588
   2a-> 14a   3b-> 15b       0.017490
   2a-> 14a   2b-> 14b       0.017490
   4a-> 16a   3b-> 15b       0.017395
   3a-> 15a   2b-> 14b       0.017395
   4a->  7a   3b->  6b       0.017050

----------------------
UHF TRIPLES CORRECTION (Algorithm 1)
----------------------

Multiplier for the singles contribution    ...      1.000000000

SPIN-CASE Alpha-Alpha-Alpha:
10% done
20% done
30% done
40% done
50% done
60% done
70% done
80% done
90% done


SPIN-CASE Beta-Beta-Beta:
10% done
20% done
30% done
40% done
50% done
60% done
70% done
80% done
90% done


SPIN-CASE Alpha-Alpha-Beta:
10% done
20% done
30% done
40% done
50% done
60% done
70% done
80% done
90% done


SPIN-CASE Beta-Beta-Alpha:
10% done
20% done
30% done
40% done
50% done
60% done
70% done
80% done
90% done


Triples Correction (T)                     ...     -0.004640826
    alpha-alpha-alpha ... -0.000167803 (  3.6%)
    alpha-alpha-beta  ... -0.002708234 ( 58.4%)
    alpha-beta -beta  ... -0.001729645 ( 37.3%)
    beta -beta -beta  ... -0.000035144 (  0.8%)
Scaling of triples based on CCSD energies (Peterson et al. Molecular Physics 113, 1551 (2015))
E(T*) = f*E(T) where f = E(F12-CCSD)/E(CCSD) 
f = CCSD (with F12)/ CCSD (without F12)    ...      1.000000000
Scaled triples correction (T)              ...     -0.004640826

Final correlation energy                   ...     -0.235292396
E(CCSD)                                    ...    -99.646538552
E(CCSD(T))                                 ...    -99.651179378



        !!!!!!!!!!!!!!!!!!!!!!!!!!!!!!!!!!!!!!!!!!!!!!!!!!!!!!!!!!!!!!!!!!!!!!!!!! 
        !  Warning: Densities are linearized densities                           !
        !!!!!!!!!!!!!!!!!!!!!!!!!!!!!!!!!!!!!!!!!!!!!!!!!!!!!!!!!!!!!!!!!!!!!!!!!! 

NORM  =      1.038524445 sqrt=     1.019080195
W(HF) =      0.962904634
------------------------------------------------------------------------------
                           ORCA POPULATION ANALYSIS
------------------------------------------------------------------------------
Input electron density              ... 09_F.mdcip
Input spin density                  ... 09_F.mdcir
BaseName (.gbw .S,...)              ... 09_F

                    ********************************
                    * MULLIKEN POPULATION ANALYSIS *
                    ********************************

------------------------------------------
MULLIKEN ATOMIC CHARGES AND SPIN DENSITIES
------------------------------------------
   0 F :   -0.000000    1.000000
Sum of atomic charges       :   -0.0000000
Sum of atomic spin densities:    1.0000000

---------------------------------------------------
MULLIKEN REDUCED ORBITAL CHARGES AND SPIN DENSITIES
---------------------------------------------------
CHARGE
  0 F s       :     3.991446  s :     3.991446
      pz      :     1.286532  p :     4.980214
      px      :     1.930627
      py      :     1.763055
      dz2     :     0.004858  d :     0.024701
      dxz     :     0.004912
      dyz     :     0.004890
      dx2y2   :     0.005020
      dxy     :     0.005021
      f0      :     0.000454  f :     0.003244
      f+1     :     0.000458
      f-1     :     0.000455
      f+2     :     0.000464
      f-2     :     0.000464
      f+3     :     0.000475
      f-3     :     0.000475
      g0      :     0.000037  g :     0.000395
      g+1     :     0.000040
      g-1     :     0.000036
      g+2     :     0.000041
      g-2     :     0.000041
      g+3     :     0.000046
      g-3     :     0.000046
      g+4     :     0.000054
      g-4     :     0.000054

SPIN
  0 F s       :     0.004564  s :     0.004564
      pz      :     0.703351  p :     0.989306
      px      :     0.059182
      py      :     0.226773
      dz2     :     0.001757  d :     0.005332
      dxz     :     0.001255
      dyz     :     0.001569
      dx2y2   :     0.000375
      dxy     :     0.000376
      f0      :     0.000166  f :     0.000791
      f+1     :     0.000141
      f-1     :     0.000165
      f+2     :     0.000113
      f-2     :     0.000113
      f+3     :     0.000046
      f-3     :     0.000046
      g0      :     0.000001  g :     0.000008
      g+1     :     0.000001
      g-1     :     0.000001
      g+2     :     0.000001
      g-2     :     0.000001
      g+3     :     0.000001
      g-3     :     0.000001
      g+4     :     0.000000
      g-4     :     0.000000


                     *******************************
                     * LOEWDIN POPULATION ANALYSIS *
                     *******************************

-----------------------------------------
LOEWDIN ATOMIC CHARGES AND SPIN DENSITIES
-----------------------------------------
   0 F :   -0.000000    1.000000

--------------------------------------------------
LOEWDIN REDUCED ORBITAL CHARGES AND SPIN DENSITIES
--------------------------------------------------
CHARGE
  0 F s       :     3.991446  s :     3.991446
      pz      :     1.286532  p :     4.980214
      px      :     1.930627
      py      :     1.763055
      dz2     :     0.004858  d :     0.024701
      dxz     :     0.004912
      dyz     :     0.004890
      dx2y2   :     0.005020
      dxy     :     0.005021
      f0      :     0.000454  f :     0.003244
      f+1     :     0.000458
      f-1     :     0.000455
      f+2     :     0.000464
      f-2     :     0.000464
      f+3     :     0.000475
      f-3     :     0.000475
      g0      :     0.000037  g :     0.000395
      g+1     :     0.000040
      g-1     :     0.000036
      g+2     :     0.000041
      g-2     :     0.000041
      g+3     :     0.000046
      g-3     :     0.000046
      g+4     :     0.000054
      g-4     :     0.000054

SPIN
  0 F s       :     0.004564  s :     0.004564
      pz      :     0.703351  p :     0.989306
      px      :     0.059182
      py      :     0.226773
      dz2     :     0.001757  d :     0.005332
      dxz     :     0.001255
      dyz     :     0.001569
      dx2y2   :     0.000375
      dxy     :     0.000376
      f0      :     0.000166  f :     0.000791
      f+1     :     0.000141
      f-1     :     0.000165
      f+2     :     0.000113
      f-2     :     0.000113
      f+3     :     0.000046
      f-3     :     0.000046
      g0      :     0.000001  g :     0.000008
      g+1     :     0.000001
      g-1     :     0.000001
      g+2     :     0.000001
      g-2     :     0.000001
      g+3     :     0.000001
      g-3     :     0.000001
      g+4     :     0.000000
      g-4     :     0.000000


                      *****************************
                      * MAYER POPULATION ANALYSIS *
                      *****************************

  NA   - Mulliken gross atomic population
  ZA   - Total nuclear charge
  QA   - Mulliken gross atomic charge
  VA   - Mayer's total valence
  BVA  - Mayer's bonded valence
  FA   - Mayer's free valence

  ATOM       NA         ZA         QA         VA         BVA        FA
  0 F      9.0000     9.0000    -0.0000     1.2743     0.0000     1.2743





------------------------------------------------------------------------------- 
                                     TIMINGS                                   
------------------------------------------------------------------------------- 


Total execution time                   ...        5.691 sec

Fock Matrix Formation                  ...        0.102 sec (  1.8%)
Initial Guess                          ...        0.003 sec (  0.0%)
DIIS Solver                            ...        0.024 sec (  0.4%)
State Vector Update                    ...        0.001 sec (  0.0%)
Sigma-vector construction              ...        0.918 sec ( 16.1%)
  <D|H|D>(2-ext)                       ...        0.003 sec (  0.3% of sigma)
  <D|H|D>(4-ext)                       ...        0.443 sec ( 48.3% of sigma)
  <S|H|0>                              ...        0.018 sec (  2.0% of sigma)
  <D|H|S>(1-ext)                       ...        0.003 sec (  0.4% of sigma)
  Fock-dressing                        ...        0.301 sec ( 32.8% of sigma)
  (ij|ab),(ia|jb)-dressing             ...        0.103 sec ( 11.2% of sigma)
Total Time for computing (T)           ...        0.059 sec (  1.0% of ALL)
  I/O of integral and amplitudes       ...        0.019 sec ( 32.3% of (T))
  External N**7 contributions          ...        0.013 sec ( 21.1% of (T))
  Internal N**7 contributions          ...        0.004 sec (  6.5% of (T))
  N**6 triples energy contributions    ...        0.018 sec ( 30.0% of (T))


-------------------------   --------------------
FINAL SINGLE POINT ENERGY       -99.651179378085
-------------------------   --------------------


                            ***************************************
                            *     ORCA property calculations      *
                            ***************************************

                                    ---------------------
                                    Active property flags
                                    ---------------------
   (+) Dipole Moment


------------------------------------------------------------------------------
                       ORCA ELECTRIC PROPERTIES CALCULATION
------------------------------------------------------------------------------

Dipole Moment Calculation                       ... on
Quadrupole Moment Calculation                   ... off
Polarizability Calculation                      ... off
GBWName                                         ... 09_F.gbw
Electron density file                           ... 09_F.scfp
The origin for moment calculation is the CENTER OF MASS  = ( 0.000000,  0.000000  0.000000)

-------------
DIPOLE MOMENT
-------------
                                X             Y             Z
Electronic contribution:     -0.00000       0.00000       0.00000
Nuclear contribution   :      0.00000       0.00000       0.00000
                        -----------------------------------------
Total Dipole Moment    :     -0.00000       0.00000       0.00000
                        -----------------------------------------
Magnitude (a.u.)       :      0.00000
Magnitude (Debye)      :      0.00000



--------------------
Rotational spectrum 
--------------------
 
Rotational constants in cm-1:     0.000000     0.000000     0.000000 
Rotational constants in MHz :     0.000000     0.000000     0.000000 

 Dipole components along the rotational axes: 
x,y,z [a.u.] :    -0.000000     0.000000     0.000000 
x,y,z [Debye]:    -0.000000     0.000000     0.000000 

 

                           *** MDCI DENSITY ***

------------------------------------------------------------------------------
                       ORCA ELECTRIC PROPERTIES CALCULATION
------------------------------------------------------------------------------

Dipole Moment Calculation                       ... on
Quadrupole Moment Calculation                   ... off
Polarizability Calculation                      ... off
GBWName                                         ... 09_F.gbw
Electron density file                           ... 09_F.mdcip
The origin for moment calculation is the CENTER OF MASS  = ( 0.000000,  0.000000  0.000000)

-------------
DIPOLE MOMENT
-------------
                                X             Y             Z
Electronic contribution:     -0.00000       0.00000       0.00000
Nuclear contribution   :      0.00000       0.00000       0.00000
                        -----------------------------------------
Total Dipole Moment    :     -0.00000       0.00000       0.00000
                        -----------------------------------------
Magnitude (a.u.)       :      0.00000
Magnitude (Debye)      :      0.00000



--------------------
Rotational spectrum 
--------------------
 
Rotational constants in cm-1:     0.000000     0.000000     0.000000 
Rotational constants in MHz :     0.000000     0.000000     0.000000 

 Dipole components along the rotational axes: 
x,y,z [a.u.] :    -0.000000     0.000000     0.000000 
x,y,z [Debye]:    -0.000000     0.000000     0.000000 

 

Timings for individual modules:

Sum of individual times         ...       10.619 sec (=   0.177 min)
GTO integral calculation        ...        0.792 sec (=   0.013 min)   7.5 %
SCF iterations                  ...        3.676 sec (=   0.061 min)  34.6 %
MDCI module                     ...        6.152 sec (=   0.103 min)  57.9 %
                             ****ORCA TERMINATED NORMALLY****
TOTAL RUN TIME: 0 days 0 hours 0 minutes 11 seconds 388 msec
