
                                 *****************
                                 * O   R   C   A *
                                 *****************

           --- An Ab Initio, DFT and Semiempirical electronic structure package ---

                  #######################################################
                  #                        -***-                        #
                  #          Department of theory and spectroscopy      #
                  #               Directorship: Frank Neese             #
                  #        Max Planck Institute fuer Kohlenforschung    #
                  #                Kaiser Wilhelm Platz 1               #
                  #                 D-45470 Muelheim/Ruhr               #
                  #                      Germany                        #
                  #                                                     #
                  #                  All rights reserved                #
                  #                        -***-                        #
                  #######################################################


                         Program Version 4.2.0 -  RELEASE  -


 With contributions from (in alphabetic order):
   Daniel Aravena         : Magnetic Suceptibility
   Michael Atanasov       : Ab Initio Ligand Field Theory (pilot matlab implementation)
   Alexander A. Auer      : GIAO ZORA, VPT2
   Ute Becker             : Parallelization
   Giovanni Bistoni       : ED, misc. LED, open-shell LED, HFLED
   Martin Brehm           : Molecular dynamics
   Dmytro Bykov           : SCF Hessian
   Vijay G. Chilkuri      : MRCI spin determinant printing, contributions to CSF-ICE
   Dipayan Datta          : RHF DLPNO-CCSD density
   Achintya Kumar Dutta   : EOM-CC, STEOM-CC
   Dmitry Ganyushin       : Spin-Orbit,Spin-Spin,Magnetic field MRCI
   Miquel Garcia          : C-PCM Hessian, Gaussian charge scheme
   Yang Guo               : DLPNO-NEVPT2, CIM, IAO-localization
   Andreas Hansen         : Spin unrestricted coupled pair/coupled cluster methods
   Benjamin Helmich-Paris : CASSCF linear response (MC-RPA)
   Lee Huntington         : MR-EOM, pCC
   Robert Izsak           : Overlap fitted RIJCOSX, COSX-SCS-MP3, EOM
   Christian Kollmar      : KDIIS, OOCD, Brueckner-CCSD(T), CCSD density
   Simone Kossmann        : Meta GGA functionals, TD-DFT gradient, OOMP2, MP2 Hessian
   Martin Krupicka        : AUTO-CI
   Lucas Lang             : DCDCAS
   Dagmar Lenk            : GEPOL surface, SMD
   Dimitrios Liakos       : Extrapolation schemes; Compound Job, initial MDCI parallelization
   Dimitrios Manganas     : Further ROCIS development; embedding schemes
   Dimitrios Pantazis     : SARC Basis sets
   Taras Petrenko         : DFT Hessian,TD-DFT gradient, ASA, ECA, R-Raman, ABS, FL, XAS/XES, NRVS
   Peter Pinski           : DLPNO-MP2, DLPNO-MP2 Gradient
   Christoph Reimann      : Effective Core Potentials
   Marius Retegan         : Local ZFS, SOC
   Christoph Riplinger    : Optimizer, TS searches, QM/MM, DLPNO-CCSD(T), (RO)-DLPNO pert. Triples
   Tobias Risthaus        : Range-separated hybrids, TD-DFT gradient, RPA, STAB
   Michael Roemelt        : Original ROCIS implementation
   Masaaki Saitow         : Open-shell DLPNO-CCSD energy and density
   Barbara Sandhoefer     : DKH picture change effects
   Avijit Sen             : IP-ROCIS
   Kantharuban Sivalingam : CASSCF convergence, NEVPT2, FIC-MRCI
   Bernardo de Souza      : ESD, SOC TD-DFT
   Georgi Stoychev        : AutoAux, RI-MP2 NMR
   Willem Van den Heuvel  : Paramagnetic NMR
   Boris Wezisla          : Elementary symmetry handling
   Frank Wennmohs         : Technical directorship


 We gratefully acknowledge several colleagues who have allowed us to
 interface, adapt or use parts of their codes:
   Stefan Grimme, W. Hujo, H. Kruse,             : VdW corrections, initial TS optimization,
                  C. Bannwarth                     DFT functionals, gCP, sTDA/sTD-DF
   Ed Valeev, F. Pavosevic, A. Kumar             : LibInt (2-el integral package), F12 methods
   Garnet Chan, S. Sharma, J. Yang, R. Olivares  : DMRG
   Ulf Ekstrom                                   : XCFun DFT Library
   Mihaly Kallay                                 : mrcc  (arbitrary order and MRCC methods)
   Andreas Klamt, Michael Diedenhofen            : otool_cosmo (COSMO solvation model)
   Jiri Pittner, Ondrej Demel                    : Mk-CCSD
   Frank Weinhold                                : gennbo (NPA and NBO analysis)
   Christopher J. Cramer and Donald G. Truhlar   : smd solvation model
   Lars Goerigk                                  : TD-DFT with DH, B97 family of functionals
   V. Asgeirsson, H. Jonsson                     : NEB implementation
   FAccTs GmbH                                   : IRC, NEB, NEB-TS, Multilevel, MM, QM/MM, CI optimization
   S Lehtola, MJT Oliveira, MAL Marques          : LibXC Library


 Your calculation uses the libint2 library for the computation of 2-el integrals
 For citations please refer to: http://libint.valeyev.net

 Your ORCA version has been built with support for libXC version: 4.2.3
 For citations please refer to: https://tddft.org/programs/libxc/

 This ORCA versions uses:
   CBLAS   interface :  Fast vector & matrix operations
   LAPACKE interface :  Fast linear algebra routines
   SCALAPACK package :  Parallel linear algebra routines


----- Orbital basis set information -----
Your calculation utilizes the basis: def2-QZVP
   F. Weigend and R. Ahlrichs, Phys. Chem. Chem. Phys. 7, 3297 (2005).

================================================================================
                                        WARNINGS
                       Please study these warnings very carefully!
================================================================================


WARNING: your system is open-shell and RHF/RKS was chosen
  ===> : WILL SWITCH to UHF/UKS


WARNING: MDCI localization with Augmented Hessian Foster-Boys
  ===> : Switching off randomization!

WARNING: Post HF methods need fully converged wavefunctions
  ===> : Setting SCFConvForced true
         You can overwrite this default with %scf ConvForced false 


INFO   : the flag for use of LIBINT has been found!

================================================================================
                                       INPUT FILE
================================================================================
NAME = 14_Si.in
|  1> #
|  2> # 14_Si CCSD(T)/Def2-QZVP
|  3> #
|  4> ! CCSD(T) Def2-QZVP tightscf
|  5> 
|  6> *xyz 0 3
|  7>  Si 0.0 0.0 0.0
|  8> *
|  9> 
| 10> %maxcore 5000 
| 11> 
| 12> %pal
| 13> nprocs 6
| 14> end
| 15> 
| 16> 
| 17>                          ****END OF INPUT****
================================================================================

                       ****************************
                       * Single Point Calculation *
                       ****************************

---------------------------------
CARTESIAN COORDINATES (ANGSTROEM)
---------------------------------
  Si     0.000000    0.000000    0.000000

----------------------------
CARTESIAN COORDINATES (A.U.)
----------------------------
  NO LB      ZA    FRAG     MASS         X           Y           Z
   0 Si   14.0000    0    28.086    0.000000    0.000000    0.000000

--------------------------------
INTERNAL COORDINATES (ANGSTROEM)
--------------------------------
 Si     0   0   0     0.000000000000     0.00000000     0.00000000

---------------------------
INTERNAL COORDINATES (A.U.)
---------------------------
 Si     0   0   0     0.000000000000     0.00000000     0.00000000

---------------------
BASIS SET INFORMATION
---------------------
There are 1 groups of distinct atoms

 Group   1 Type Si  : 20s14p4d2f1g contracted to 9s6p4d2f1g pattern {1031111111/821111/1111/11/1}

Atom   0Si   basis set group =>   1


           ************************************************************
           *        Program running with 6 parallel MPI-processes     *
           *              working on a common directory               *
           ************************************************************
------------------------------------------------------------------------------
                           ORCA GTO INTEGRAL CALCULATION
------------------------------------------------------------------------------

                         BASIS SET STATISTICS AND STARTUP INFO

 # of primitive gaussian shells          ...   41
 # of primitive gaussian functions       ...  105
 # of contracted shells                  ...   22
 # of contracted basis functions         ...   70
 Highest angular momentum                ...    4
 Maximum contraction depth               ...   10
 Integral package used                   ... LIBINT
 Integral threshhold            Thresh   ...  2.500e-11
 Primitive cut-off              TCut     ...  2.500e-12


------------------------------ INTEGRAL EVALUATION ----------------------------


 * One electron integrals 
 Pre-screening matrix                    ... done
 Shell pair data                         ... done (   0.000 sec)



           ************************************************************
           *        Program running with 6 parallel MPI-processes     *
           *              working on a common directory               *
           ************************************************************
-------------------------------------------------------------------------------
                                 ORCA SCF
-------------------------------------------------------------------------------

------------
SCF SETTINGS
------------
Hamiltonian:
 Ab initio Hamiltonian  Method          .... Hartree-Fock(GTOs)


General Settings:
 Integral files         IntName         .... 14_Si
 Hartree-Fock type      HFTyp           .... UHF
 Total Charge           Charge          ....    0
 Multiplicity           Mult            ....    3
 Number of Electrons    NEL             ....   14
 Basis Dimension        Dim             ....   70
 Nuclear Repulsion      ENuc            ....      0.0000000000 Eh

Convergence Acceleration:
 DIIS                   CNVDIIS         .... on
   Start iteration      DIISMaxIt       ....    12
   Startup error        DIISStart       ....  0.200000
   # of expansion vecs  DIISMaxEq       ....     5
   Bias factor          DIISBfac        ....   1.050
   Max. coefficient     DIISMaxC        ....  10.000
 Newton-Raphson         CNVNR           .... off
 SOSCF                  CNVSOSCF        .... off
 Level Shifting         CNVShift        .... on
   Level shift para.    LevelShift      ....    0.2500
   Turn off err/grad.   ShiftErr        ....    0.0010
 Zerner damping         CNVZerner       .... off
 Static damping         CNVDamp         .... on
   Fraction old density DampFac         ....    0.7000
   Max. Damping (<1)    DampMax         ....    0.9800
   Min. Damping (>=0)   DampMin         ....    0.0000
   Turn off err/grad.   DampErr         ....    0.1000
 Fernandez-Rico         CNVRico         .... off

SCF Procedure:
 Maximum # iterations   MaxIter         ....   125
 SCF integral mode      SCFMode         .... Direct
   Integral package                     .... LIBINT
 Reset frequency        DirectResetFreq ....    20
 Integral Threshold     Thresh          ....  2.500e-11 Eh
 Primitive CutOff       TCut            ....  2.500e-12 Eh

Convergence Tolerance:
 Convergence Check Mode ConvCheckMode   .... Total+1el-Energy
 Convergence forced     ConvForced      .... 1
 Energy Change          TolE            ....  1.000e-08 Eh
 1-El. energy change                    ....  1.000e-05 Eh
 DIIS Error             TolErr          ....  5.000e-07


Diagonalization of the overlap matrix:
Smallest eigenvalue                        ... 2.701e-03
Time for diagonalization                   ...    0.001 sec
Threshold for overlap eigenvalues          ... 1.000e-08
Number of eigenvalues below threshold      ... 0
Time for construction of square roots      ...    0.005 sec
Total time needed                          ...    0.007 sec

-------------------
DFT GRID GENERATION
-------------------

General Integration Accuracy     IntAcc      ...  4.340
Radial Grid Type                 RadialGrid  ... Gauss-Chebyshev
Angular Grid (max. acc.)         AngularGrid ... Lebedev-110
Angular grid pruning method      GridPruning ... 3 (G Style)
Weight generation scheme         WeightScheme... Becke
Basis function cutoff            BFCut       ...    1.0000e-11
Integration weight cutoff        WCut        ...    1.0000e-14
Grids for H and He will be reduced by one unit

# of grid points (after initial pruning)     ...   1866 (   0.0 sec)
# of grid points (after weights+screening)   ...   1866 (   0.0 sec)
Grid point division into batches done        ...    0.0 sec
Reduced shell lists constructed in    0.0 sec

Total number of grid points                  ...     1866
Total number of batches                      ...       30
Average number of points per batch           ...       62
Average number of grid points per atom       ...     1866
Average number of shells per batch           ...    10.17 (46.21%)
Average number of basis functions per batch  ...    42.17 (60.24%)
Average number of large shells per batch     ...     8.67 (85.25%)
Average number of large basis fcns per batch ...    33.67 (79.84%)
Maximum spatial batch extension              ...  19.45, 35.80, 35.80 au
Average spatial batch extension              ...   2.82,  4.19,  5.45 au

Time for grid setup =    0.020 sec

------------------------------
INITIAL GUESS: MODEL POTENTIAL
------------------------------
Loading Hartree-Fock densities                     ... done
Calculating cut-offs                               ... done
Setting up the integral package                    ... done
Initializing the effective Hamiltonian             ... done
Starting the Coulomb interaction                   ... done (   0.0 sec)
Reading the grid                                   ... done
Mapping shells                                     ... done
Starting the XC term evaluation                    ... done (   0.0 sec)
Transforming the Hamiltonian                       ... done (   0.0 sec)
Diagonalizing the Hamiltonian                      ... done (   0.0 sec)
Back transforming the eigenvectors                 ... done (   0.0 sec)
Now organizing SCF variables                       ... done
                      ------------------
                      INITIAL GUESS DONE (   0.1 sec)
                      ------------------
--------------
SCF ITERATIONS
--------------
ITER       Energy         Delta-E        Max-DP      RMS-DP      [F,P]     Damp
               ***  Starting incremental Fock matrix formation  ***
  0   -288.8366425234   0.000000000000 0.00701532  0.00032220  0.5182095 0.7000
  1   -288.8423692175  -0.005726694144 0.00703231  0.00027123  0.3660764 0.7000
  2   -288.8466977036  -0.004328486061 0.00633436  0.00021587  0.2585308 0.7000
                               ***Turning on DIIS***
  3   -288.8499198498  -0.003222146178 0.00535897  0.00017056  0.1827352 0.7000
  4   -288.8396708199   0.010249029883 0.00508866  0.00015269  0.1292611 0.7000
  5   -288.8451158908  -0.005445070899 0.01500378  0.00042894  0.0909898 0.0000
  6   -288.8585736572  -0.013457766421 0.00254431  0.00006703  0.0012031 0.0000
  7   -288.8571736883   0.001399968931 0.00303033  0.00007984  0.0007235 0.0000
  8   -288.8575880416  -0.000414353293 0.00104789  0.00002622  0.0001999 0.0000
  9   -288.8586934220  -0.001105380430 0.00009894  0.00000284  0.0000202 0.0000
 10   -288.8587201275  -0.000026705480 0.00005820  0.00000152  0.0000063 0.0000
 11   -288.8587171329   0.000002994531 0.00002455  0.00000044  0.0000027 0.0000
                            ***DIIS convergence achieved***

               *****************************************************
               *                     SUCCESS                       *
               *           SCF CONVERGED AFTER  12 CYCLES          *
               *****************************************************


----------------
TOTAL SCF ENERGY
----------------

Total Energy       :         -288.85872640 Eh           -7860.24555 eV

Components:
Nuclear Repulsion  :            0.00000000 Eh               0.00000 eV
Electronic Energy  :         -288.85872640 Eh           -7860.24555 eV
One Electron Energy:         -400.57160130 Eh          -10900.10742 eV
Two Electron Energy:          111.71287490 Eh            3039.86187 eV

Virial components:
Potential Energy   :         -577.71747847 Eh          -15720.49180 eV
Kinetic Energy     :          288.85875207 Eh            7860.24625 eV
Virial Ratio       :            1.99999991


---------------
SCF CONVERGENCE
---------------

  Last Energy change         ...   -9.2661e-06  Tolerance :   1.0000e-08
  Last MAX-Density change    ...    3.4477e-06  Tolerance :   1.0000e-07
  Last RMS-Density change    ...    6.5321e-08  Tolerance :   5.0000e-09
  Last DIIS Error            ...    4.1655e-07  Tolerance :   5.0000e-07

             **** THE GBW FILE WAS UPDATED (14_Si.gbw) ****
             **** DENSITY FILE WAS UPDATED (14_Si.scfp) ****
             **** ENERGY FILE WAS UPDATED (14_Si.en.tmp) ****
----------------------
UHF SPIN CONTAMINATION
----------------------

Expectation value of <S**2>     :     2.015598
Ideal value S*(S+1) for S=1.0   :     2.000000
Deviation                       :     0.015598

             **** THE GBW FILE WAS UPDATED (14_Si.gbw) ****
             **** DENSITY FILE WAS UPDATED (14_Si.scfp) ****
----------------
ORBITAL ENERGIES
----------------
                 SPIN UP ORBITALS
  NO   OCC          E(Eh)            E(eV) 
   0   1.0000     -68.816180     -1872.5835 
   1   1.0000      -6.160559      -167.6373 
   2   1.0000      -4.268871      -116.1619 
   3   1.0000      -4.268871      -116.1619 
   4   1.0000      -4.258088      -115.8685 
   5   1.0000      -0.619804       -16.8657 
   6   1.0000      -0.301353        -8.2002 
   7   1.0000      -0.301353        -8.2002 
   8   0.0000      -0.006534        -0.1778 
   9   0.0000       0.177033         4.8173 
  10   0.0000       0.179129         4.8743 
  11   0.0000       0.179129         4.8743 
  12   0.0000       0.200938         5.4678 
  13   0.0000       0.235785         6.4160 
  14   0.0000       0.235785         6.4160 
  15   0.0000       0.249591         6.7917 
  16   0.0000       0.249591         6.7917 
  17   0.0000       0.255374         6.9491 
  18   0.0000       0.745268        20.2798 
  19   0.0000       0.745268        20.2798 
  20   0.0000       0.749872        20.4051 
  21   0.0000       0.749872        20.4051 
  22   0.0000       0.751938        20.4613 
  23   0.0000       0.773167        21.0389 
  24   0.0000       0.774464        21.0742 
  25   0.0000       0.774464        21.0742 
  26   0.0000       0.778227        21.1766 
  27   0.0000       0.778227        21.1766 
  28   0.0000       0.783429        21.3182 
  29   0.0000       0.783429        21.3182 
  30   0.0000       0.841540        22.8995 
  31   0.0000       0.841540        22.8995 
  32   0.0000       0.851718        23.1764 
  33   0.0000       1.027036        27.9471 
  34   0.0000       1.878410        51.1141 
  35   0.0000       1.882834        51.2345 
  36   0.0000       1.882834        51.2345 
  37   0.0000       1.896370        51.6029 
  38   0.0000       1.896370        51.6029 
  39   0.0000       2.201283        59.9000 
  40   0.0000       2.202867        59.9431 
  41   0.0000       2.202867        59.9431 
  42   0.0000       2.207634        60.0728 
  43   0.0000       2.207634        60.0728 
  44   0.0000       2.215625        60.2902 
  45   0.0000       2.215625        60.2902 
  46   0.0000       2.226897        60.5969 
  47   0.0000       2.226897        60.5969 
  48   0.0000       2.246703        61.1359 
  49   0.0000       2.248773        61.1922 
  50   0.0000       2.248773        61.1922 
  51   0.0000       2.254991        61.3614 
  52   0.0000       2.254991        61.3614 
  53   0.0000       2.265346        61.6432 
  54   0.0000       2.265346        61.6432 
  55   0.0000       3.016732        82.0894 
  56   0.0000       3.024381        82.2976 
  57   0.0000       3.024381        82.2976 
  58   0.0000       4.453684       121.1909 
  59   0.0000       6.032300       164.1472 
  60   0.0000       6.035970       164.2471 
  61   0.0000       6.035970       164.2471 
  62   0.0000       6.047340       164.5565 
  63   0.0000       6.047340       164.5565 
  64   0.0000      11.781574       320.5929 
  65   0.0000      11.786588       320.7294 
  66   0.0000      11.786588       320.7294 
  67   0.0000      16.432076       447.1395 
  68   0.0000      58.614769      1594.9889 
  69   0.0000     318.514808      8667.2286 

                 SPIN DOWN ORBITALS
  NO   OCC          E(Eh)            E(eV) 
   0   1.0000     -68.805927     -1872.3045 
   1   1.0000      -6.149630      -167.3399 
   2   1.0000      -4.253004      -115.7301 
   3   1.0000      -4.239750      -115.3695 
   4   1.0000      -4.239750      -115.3695 
   5   1.0000      -0.462717       -12.5912 
   6   0.0000       0.011735         0.3193 
   7   0.0000       0.051807         1.4097 
   8   0.0000       0.051807         1.4097 
   9   0.0000       0.200976         5.4688 
  10   0.0000       0.208962         5.6862 
  11   0.0000       0.238943         6.5020 
  12   0.0000       0.238943         6.5020 
  13   0.0000       0.282837         7.6964 
  14   0.0000       0.288346         7.8463 
  15   0.0000       0.288346         7.8463 
  16   0.0000       0.310604         8.4520 
  17   0.0000       0.310604         8.4520 
  18   0.0000       0.780903        21.2495 
  19   0.0000       0.789952        21.4957 
  20   0.0000       0.789952        21.4957 
  21   0.0000       0.795032        21.6339 
  22   0.0000       0.799684        21.7605 
  23   0.0000       0.799684        21.7605 
  24   0.0000       0.812464        22.1083 
  25   0.0000       0.812464        22.1083 
  26   0.0000       0.822233        22.3741 
  27   0.0000       0.822233        22.3741 
  28   0.0000       0.834358        22.7040 
  29   0.0000       0.834358        22.7040 
  30   0.0000       0.861460        23.4415 
  31   0.0000       0.898835        24.4585 
  32   0.0000       0.898835        24.4585 
  33   0.0000       1.057629        28.7795 
  34   0.0000       1.890237        51.4360 
  35   0.0000       1.898268        51.6545 
  36   0.0000       1.898268        51.6545 
  37   0.0000       1.925642        52.3994 
  38   0.0000       1.925642        52.3994 
  39   0.0000       2.221130        60.4400 
  40   0.0000       2.224242        60.5247 
  41   0.0000       2.224242        60.5247 
  42   0.0000       2.233661        60.7810 
  43   0.0000       2.233661        60.7810 
  44   0.0000       2.249643        61.2159 
  45   0.0000       2.249643        61.2159 
  46   0.0000       2.266861        61.6844 
  47   0.0000       2.271995        61.8241 
  48   0.0000       2.271995        61.8241 
  49   0.0000       2.272701        61.8433 
  50   0.0000       2.272701        61.8433 
  51   0.0000       2.287593        62.2486 
  52   0.0000       2.287593        62.2486 
  53   0.0000       2.314489        62.9804 
  54   0.0000       2.314489        62.9804 
  55   0.0000       3.023465        82.2727 
  56   0.0000       3.059214        83.2454 
  57   0.0000       3.059214        83.2454 
  58   0.0000       4.470558       121.6501 
  59   0.0000       6.037260       164.2822 
  60   0.0000       6.042716       164.4307 
  61   0.0000       6.042716       164.4307 
  62   0.0000       6.059828       164.8963 
  63   0.0000       6.059828       164.8963 
  64   0.0000      11.785775       320.7072 
  65   0.0000      11.806961       321.2837 
  66   0.0000      11.806961       321.2837 
  67   0.0000      16.440713       447.3745 
  68   0.0000      58.621081      1595.1607 
  69   0.0000     318.517051      8667.2896 

                    ********************************
                    * MULLIKEN POPULATION ANALYSIS *
                    ********************************

--------------------------------------------
MULLIKEN ATOMIC CHARGES AND SPIN POPULATIONS
--------------------------------------------
   0 Si:   -0.000000    2.000000
Sum of atomic charges         :   -0.0000000
Sum of atomic spin populations:    2.0000000

-----------------------------------------------------
MULLIKEN REDUCED ORBITAL CHARGES AND SPIN POPULATIONS
-----------------------------------------------------
CHARGE
  0 Sis       :     5.992251  s :     5.992251
      pz      :     2.082292  p :     7.999953
      px      :     2.972149
      py      :     2.945511
      dz2     :     0.005953  d :     0.007748
      dxz     :     0.000594
      dyz     :     0.001162
      dx2y2   :     0.000004
      dxy     :     0.000035
      f0      :     0.000010  f :     0.000047
      f+1     :     0.000016
      f-1     :     0.000013
      f+2     :     0.000004
      f-2     :     0.000004
      f+3     :     0.000000
      f-3     :     0.000000
      g0      :     0.000000  g :     0.000001
      g+1     :     0.000000
      g-1     :     0.000000
      g+2     :     0.000000
      g-2     :     0.000000
      g+3     :     0.000000
      g-3     :     0.000000
      g+4     :     0.000000
      g-4     :     0.000000

SPIN
  0 Sis       :    -0.000174  s :    -0.000174
      pz      :     0.082294  p :     1.999957
      px      :     0.972150
      py      :     0.945513
      dz2     :     0.000134  d :     0.000175
      dxz     :     0.000013
      dyz     :     0.000026
      dx2y2   :     0.000000
      dxy     :     0.000001
      f0      :     0.000008  f :     0.000043
      f+1     :     0.000015
      f-1     :     0.000012
      f+2     :     0.000004
      f-2     :     0.000004
      f+3     :     0.000000
      f-3     :     0.000000
      g0      :    -0.000000  g :    -0.000001
      g+1     :    -0.000000
      g-1     :    -0.000000
      g+2     :    -0.000000
      g-2     :    -0.000000
      g+3     :    -0.000000
      g-3     :    -0.000000
      g+4     :    -0.000000
      g-4     :    -0.000000


                     *******************************
                     * LOEWDIN POPULATION ANALYSIS *
                     *******************************

-------------------------------------------
LOEWDIN ATOMIC CHARGES AND SPIN POPULATIONS
-------------------------------------------
   0 Si:   -0.000000    2.000000

----------------------------------------------------
LOEWDIN REDUCED ORBITAL CHARGES AND SPIN POPULATIONS
----------------------------------------------------
CHARGE
  0 Sis       :     5.992251  s :     5.992251
      pz      :     2.082292  p :     7.999953
      px      :     2.972149
      py      :     2.945511
      dz2     :     0.005953  d :     0.007748
      dxz     :     0.000594
      dyz     :     0.001162
      dx2y2   :     0.000004
      dxy     :     0.000035
      f0      :     0.000010  f :     0.000047
      f+1     :     0.000016
      f-1     :     0.000013
      f+2     :     0.000004
      f-2     :     0.000004
      f+3     :     0.000000
      f-3     :     0.000000
      g0      :     0.000000  g :     0.000001
      g+1     :     0.000000
      g-1     :     0.000000
      g+2     :     0.000000
      g-2     :     0.000000
      g+3     :     0.000000
      g-3     :     0.000000
      g+4     :     0.000000
      g-4     :     0.000000

SPIN
  0 Sis       :    -0.000174  s :    -0.000174
      pz      :     0.082294  p :     1.999957
      px      :     0.972150
      py      :     0.945513
      dz2     :     0.000134  d :     0.000175
      dxz     :     0.000013
      dyz     :     0.000026
      dx2y2   :     0.000000
      dxy     :     0.000001
      f0      :     0.000008  f :     0.000043
      f+1     :     0.000015
      f-1     :     0.000012
      f+2     :     0.000004
      f-2     :     0.000004
      f+3     :     0.000000
      f-3     :     0.000000
      g0      :    -0.000000  g :    -0.000001
      g+1     :    -0.000000
      g-1     :    -0.000000
      g+2     :    -0.000000
      g-2     :    -0.000000
      g+3     :    -0.000000
      g-3     :    -0.000000
      g+4     :    -0.000000
      g-4     :    -0.000000


                      *****************************
                      * MAYER POPULATION ANALYSIS *
                      *****************************

  NA   - Mulliken gross atomic population
  ZA   - Total nuclear charge
  QA   - Mulliken gross atomic charge
  VA   - Mayer's total valence
  BVA  - Mayer's bonded valence
  FA   - Mayer's free valence

  ATOM       NA         ZA         QA         VA         BVA        FA
  0 Si    14.0000    14.0000    -0.0000     2.0312     0.0000     2.0312

  Mayer bond orders larger than 0.100000


-------
TIMINGS
-------

Total SCF time: 0 days 0 hours 0 min 2 sec 

Total time                  ....       2.448 sec
Sum of individual times     ....       2.178 sec  ( 89.0%)

Fock matrix formation       ....       1.839 sec  ( 75.1%)
Diagonalization             ....       0.034 sec  (  1.4%)
Density matrix formation    ....       0.002 sec  (  0.1%)
Population analysis         ....       0.029 sec  (  1.2%)
Initial guess               ....       0.105 sec  (  4.3%)
Orbital Transformation      ....       0.000 sec  (  0.0%)
Orbital Orthonormalization  ....       0.000 sec  (  0.0%)
DIIS solution               ....       0.149 sec  (  6.1%)


           ************************************************************
           *        Program running with 6 parallel MPI-processes     *
           *              working on a common directory               *
           ************************************************************


------------------------------------------------------------------------------- 
                              ORCA-MATRIX DRIVEN CI                            
------------------------------------------------------------------------------- 

--------------------------------
AUTOMATIC CHOICE OF INCORE LEVEL
--------------------------------

Memory available                           ...   2500.00 MB
Memory needed for S+T                      ...      0.53 MB
Memory needed for J+K                      ...      1.06 MB
Memory needed for DIIS                     ...      7.39 MB
Memory needed for 3-ext                    ...      5.45 MB
Memory needed for 4-ext                    ...     57.28 MB
Memory needed for triples                  ...      9.09 MB
 -> Final InCoreLevel    ... 5
 -> check shows that triples correction can be computed


Wavefunction type
-----------------
Correlation treatment                      ...      CCSD     
Single excitations                         ... ON
Orbital optimization                       ... OFF
Calculation of Z vector                    ... OFF
Calculation of Brueckner orbitals          ... OFF
Perturbative triple excitations            ... ON
Calculation of F12 correction              ... OFF
Frozen core treatment                      ... chemical core (10 el)
Reference Wavefunction                     ... UHF
  Alpha-MOs occ    :     5 ...    7 (  3 MO's/  3 electrons)
  Beta-MOs occ     :     5 ...    5 (  1 MO's/  1 electrons)
  Alpha-MOs virt   :     8 ...   69 ( 62 MO's              )
  Beta-MOs virt    :     6 ...   69 ( 64 MO's              )
Number of AO's                             ...     70
Number of electrons                        ...     14
Number of correlated electrons             ...      4

Algorithmic settings
--------------------
Integral transformation                    ... AO direct full transformation
K(C) Formation                             ... FULL-MO TRAFO
Maximum number of iterations               ...        50
Convergence tolerance (max. residuum)      ... 1.000e-05
Level shift for amplitude update           ... 2.000e-01
Maximum number of DIIS vectors             ...         7
DIIS turned on at iteration                ...         0
Damping before turning on DIIS             ...     0.500
Damping after turning on DIIS              ...     0.000
Pair specific amplitude update             ... OFF
Natural orbital iterations                 ... OFF
Perturbative natural orbital generation    ... OFF
Printlevel                                 ... 2

Memory handling:
----------------
Maximum memory for working arrays          ...   2500 MB
Data storage in matrix containers          ... UNCOMPRESSED
Data type for integral storage             ... DOUBLE
In-Core Storage of quantities:
   Amplitudes+Sigma Vector      ... YES
   J+K operators                ... YES
   DIIS vectors                 ... YES
   3-external integrals         ... YES
   4-external integrals         ... YES


Initializing the integral package          ... done
Warning: reference  - re-canonicalizations have been set to INT 1 VIRT 1

--------------------------
UNRESTRICTED FOCK OPERATOR
--------------------------

<ss|ss>:         1035 b            0 skpd (  0.0%)    0.001 s ( 0.001 ms/b)
<ss|sp>:         2430 b            0 skpd (  0.0%)    0.002 s ( 0.001 ms/b)
<ss|sd>:         1620 b            0 skpd (  0.0%)    0.000 s ( 0.000 ms/b)
<ss|sf>:          810 b            0 skpd (  0.0%)    0.000 s ( 0.000 ms/b)
<ss|sg>:          405 b            0 skpd (  0.0%)    0.000 s ( 0.001 ms/b)
<ss|pp>:          945 b            0 skpd (  0.0%)    0.002 s ( 0.002 ms/b)
<ss|pd>:         1080 b            0 skpd (  0.0%)    0.000 s ( 0.000 ms/b)
<ss|pf>:          540 b            0 skpd (  0.0%)    0.000 s ( 0.001 ms/b)
<ss|pg>:          270 b            0 skpd (  0.0%)    0.001 s ( 0.002 ms/b)
<ss|dd>:          450 b            0 skpd (  0.0%)    0.000 s ( 0.000 ms/b)
<ss|df>:          360 b            0 skpd (  0.0%)    0.000 s ( 0.001 ms/b)
<ss|dg>:          180 b            0 skpd (  0.0%)    0.000 s ( 0.001 ms/b)
<ss|ff>:          135 b            0 skpd (  0.0%)    0.000 s ( 0.002 ms/b)
<ss|fg>:           90 b            0 skpd (  0.0%)    0.000 s ( 0.003 ms/b)
<ss|gg>:           45 b            0 skpd (  0.0%)    0.000 s ( 0.009 ms/b)
<sp|sp>:         1485 b            0 skpd (  0.0%)    0.002 s ( 0.001 ms/b)
<sp|sd>:         1944 b            0 skpd (  0.0%)    0.001 s ( 0.000 ms/b)
<sp|sf>:          972 b            0 skpd (  0.0%)    0.001 s ( 0.001 ms/b)
<sp|sg>:          486 b            0 skpd (  0.0%)    0.001 s ( 0.002 ms/b)
<sp|pp>:         1134 b            0 skpd (  0.0%)    0.003 s ( 0.003 ms/b)
<sp|pd>:         1296 b            0 skpd (  0.0%)    0.001 s ( 0.001 ms/b)
<sp|pf>:          648 b            0 skpd (  0.0%)    0.001 s ( 0.002 ms/b)
<sp|pg>:          324 b            0 skpd (  0.0%)    0.001 s ( 0.004 ms/b)
<sp|dd>:          540 b            0 skpd (  0.0%)    0.001 s ( 0.001 ms/b)
<sp|df>:          432 b            0 skpd (  0.0%)    0.001 s ( 0.002 ms/b)
<sp|dg>:          216 b            0 skpd (  0.0%)    0.001 s ( 0.003 ms/b)
<sp|ff>:          162 b            0 skpd (  0.0%)    0.001 s ( 0.004 ms/b)
<sp|fg>:          108 b            0 skpd (  0.0%)    0.001 s ( 0.008 ms/b)
<sp|gg>:           54 b            0 skpd (  0.0%)    0.001 s ( 0.021 ms/b)
<sd|sd>:          666 b            0 skpd (  0.0%)    0.000 s ( 0.000 ms/b)
<sd|sf>:          648 b            1 skpd (  0.2%)    0.001 s ( 0.001 ms/b)
<sd|sg>:          324 b            3 skpd (  0.9%)    0.001 s ( 0.002 ms/b)
<sd|pp>:          756 b            0 skpd (  0.0%)    0.002 s ( 0.003 ms/b)
<sd|pd>:          864 b            0 skpd (  0.0%)    0.001 s ( 0.001 ms/b)
<sd|pf>:          432 b            0 skpd (  0.0%)    0.001 s ( 0.002 ms/b)
<sd|pg>:          216 b            0 skpd (  0.0%)    0.001 s ( 0.005 ms/b)
<sd|dd>:          360 b            0 skpd (  0.0%)    0.001 s ( 0.002 ms/b)
<sd|df>:          288 b            0 skpd (  0.0%)    0.001 s ( 0.003 ms/b)
<sd|dg>:          144 b            0 skpd (  0.0%)    0.001 s ( 0.004 ms/b)
<sd|ff>:          108 b            0 skpd (  0.0%)    0.001 s ( 0.006 ms/b)
<sd|fg>:           72 b            0 skpd (  0.0%)    0.001 s ( 0.013 ms/b)
<sd|gg>:           36 b            0 skpd (  0.0%)    0.001 s ( 0.034 ms/b)
<sf|sf>:          171 b            2 skpd (  1.2%)    0.000 s ( 0.002 ms/b)
<sf|sg>:          162 b            5 skpd (  3.1%)    0.001 s ( 0.004 ms/b)
<sf|pp>:          378 b            0 skpd (  0.0%)    0.002 s ( 0.006 ms/b)
<sf|pd>:          432 b            0 skpd (  0.0%)    0.001 s ( 0.002 ms/b)
<sf|pf>:          216 b            2 skpd (  0.9%)    0.001 s ( 0.004 ms/b)
<sf|pg>:          108 b            1 skpd (  0.9%)    0.001 s ( 0.011 ms/b)
<sf|dd>:          180 b            0 skpd (  0.0%)    0.000 s ( 0.002 ms/b)
<sf|df>:          144 b            0 skpd (  0.0%)    0.001 s ( 0.005 ms/b)
<sf|dg>:           72 b            0 skpd (  0.0%)    0.001 s ( 0.007 ms/b)
<sf|ff>:           54 b            0 skpd (  0.0%)    0.001 s ( 0.013 ms/b)
<sf|fg>:           36 b            0 skpd (  0.0%)    0.001 s ( 0.025 ms/b)
<sf|gg>:           18 b            0 skpd (  0.0%)    0.001 s ( 0.065 ms/b)
<sg|sg>:           45 b            3 skpd (  6.7%)    0.000 s ( 0.008 ms/b)
<sg|pp>:          189 b            0 skpd (  0.0%)    0.002 s ( 0.011 ms/b)
<sg|pd>:          216 b            0 skpd (  0.0%)    0.001 s ( 0.003 ms/b)
<sg|pf>:          108 b            5 skpd (  4.6%)    0.001 s ( 0.007 ms/b)
<sg|pg>:           54 b           10 skpd ( 18.5%)    0.000 s ( 0.010 ms/b)
<sg|dd>:           90 b            0 skpd (  0.0%)    0.000 s ( 0.004 ms/b)
<sg|df>:           72 b            1 skpd (  1.4%)    0.001 s ( 0.008 ms/b)
<sg|dg>:           36 b            0 skpd (  0.0%)    0.001 s ( 0.014 ms/b)
<sg|ff>:           27 b            0 skpd (  0.0%)    0.000 s ( 0.017 ms/b)
<sg|fg>:           18 b            0 skpd (  0.0%)    0.001 s ( 0.045 ms/b)
<sg|gg>:            9 b            0 skpd (  0.0%)    0.001 s ( 0.119 ms/b)
<pp|pp>:          231 b            0 skpd (  0.0%)    0.003 s ( 0.012 ms/b)
<pp|pd>:          504 b            0 skpd (  0.0%)    0.001 s ( 0.002 ms/b)
<pp|pf>:          252 b            0 skpd (  0.0%)    0.001 s ( 0.005 ms/b)
<pp|pg>:          126 b            0 skpd (  0.0%)    0.002 s ( 0.014 ms/b)
<pp|dd>:          210 b            0 skpd (  0.0%)    0.001 s ( 0.003 ms/b)
<pp|df>:          168 b            0 skpd (  0.0%)    0.001 s ( 0.006 ms/b)
<pp|dg>:           84 b            0 skpd (  0.0%)    0.001 s ( 0.008 ms/b)
<pp|ff>:           63 b            0 skpd (  0.0%)    0.001 s ( 0.012 ms/b)
<pp|fg>:           42 b            0 skpd (  0.0%)    0.001 s ( 0.026 ms/b)
<pp|gg>:           21 b            0 skpd (  0.0%)    0.002 s ( 0.072 ms/b)
<pd|pd>:          300 b            0 skpd (  0.0%)    0.001 s ( 0.004 ms/b)
<pd|pf>:          288 b            0 skpd (  0.0%)    0.002 s ( 0.006 ms/b)
<pd|pg>:          144 b            0 skpd (  0.0%)    0.002 s ( 0.014 ms/b)
<pd|dd>:          240 b            0 skpd (  0.0%)    0.001 s ( 0.005 ms/b)
<pd|df>:          192 b            0 skpd (  0.0%)    0.002 s ( 0.009 ms/b)
<pd|dg>:           96 b            0 skpd (  0.0%)    0.001 s ( 0.013 ms/b)
<pd|ff>:           72 b            0 skpd (  0.0%)    0.001 s ( 0.017 ms/b)
<pd|fg>:           48 b            0 skpd (  0.0%)    0.002 s ( 0.037 ms/b)
<pd|gg>:           24 b            0 skpd (  0.0%)    0.002 s ( 0.100 ms/b)
<pf|pf>:           78 b            0 skpd (  0.0%)    0.001 s ( 0.011 ms/b)
<pf|pg>:           72 b            0 skpd (  0.0%)    0.002 s ( 0.027 ms/b)
<pf|dd>:          120 b            0 skpd (  0.0%)    0.001 s ( 0.006 ms/b)
<pf|df>:           96 b            0 skpd (  0.0%)    0.001 s ( 0.014 ms/b)
<pf|dg>:           48 b            0 skpd (  0.0%)    0.001 s ( 0.019 ms/b)
<pf|ff>:           36 b            0 skpd (  0.0%)    0.001 s ( 0.036 ms/b)
<pf|fg>:           24 b            0 skpd (  0.0%)    0.002 s ( 0.068 ms/b)
<pf|gg>:           12 b            0 skpd (  0.0%)    0.002 s ( 0.170 ms/b)
<pg|pg>:           21 b            0 skpd (  0.0%)    0.001 s ( 0.046 ms/b)
<pg|dd>:           60 b            0 skpd (  0.0%)    0.001 s ( 0.010 ms/b)
<pg|df>:           48 b            0 skpd (  0.0%)    0.001 s ( 0.020 ms/b)
<pg|dg>:           24 b            0 skpd (  0.0%)    0.001 s ( 0.036 ms/b)
<pg|ff>:           18 b            0 skpd (  0.0%)    0.001 s ( 0.043 ms/b)
<pg|fg>:           12 b            0 skpd (  0.0%)    0.001 s ( 0.113 ms/b)
<pg|gg>:            6 b            0 skpd (  0.0%)    0.002 s ( 0.284 ms/b)
<dd|dd>:           55 b            0 skpd (  0.0%)    0.000 s ( 0.008 ms/b)
<dd|df>:           80 b            0 skpd (  0.0%)    0.001 s ( 0.013 ms/b)
<dd|dg>:           40 b            0 skpd (  0.0%)    0.001 s ( 0.018 ms/b)
<dd|ff>:           30 b            0 skpd (  0.0%)    0.001 s ( 0.025 ms/b)
<dd|fg>:           20 b            0 skpd (  0.0%)    0.001 s ( 0.054 ms/b)
<dd|gg>:           10 b            0 skpd (  0.0%)    0.001 s ( 0.142 ms/b)
<df|df>:           36 b            0 skpd (  0.0%)    0.001 s ( 0.024 ms/b)
<df|dg>:           32 b            0 skpd (  0.0%)    0.001 s ( 0.029 ms/b)
<df|ff>:           24 b            0 skpd (  0.0%)    0.001 s ( 0.054 ms/b)
<df|fg>:           16 b            0 skpd (  0.0%)    0.002 s ( 0.101 ms/b)
<df|gg>:            8 b            0 skpd (  0.0%)    0.002 s ( 0.254 ms/b)
<dg|dg>:           10 b            0 skpd (  0.0%)    0.001 s ( 0.074 ms/b)
<dg|ff>:           12 b            0 skpd (  0.0%)    0.001 s ( 0.058 ms/b)
<dg|fg>:            8 b            0 skpd (  0.0%)    0.001 s ( 0.152 ms/b)
<dg|gg>:            4 b            0 skpd (  0.0%)    0.002 s ( 0.381 ms/b)
<ff|ff>:            6 b            0 skpd (  0.0%)    0.001 s ( 0.093 ms/b)
<ff|fg>:            6 b            0 skpd (  0.0%)    0.001 s ( 0.226 ms/b)
<ff|gg>:            3 b            0 skpd (  0.0%)    0.002 s ( 0.594 ms/b)
<fg|fg>:            3 b            0 skpd (  0.0%)    0.001 s ( 0.323 ms/b)
<fg|gg>:            2 b            0 skpd (  0.0%)    0.001 s ( 0.709 ms/b)
<gg|gg>:            1 b            0 skpd (  0.0%)    0.001 s ( 1.200 ms/b)
Recanonicalizing the internal orbitals
Recanonicalizing the virtual orbitals
Time needed for Fock operator              ...            0.146 sec
Reference energy                           ...   -288.858728988
Warning: for UHF the TrafoType has to be JK
Warning: for UHF the K(C)-option cannot be MO but must be AOX

-------------------------------
PARTIAL EXCHANGE TRANSFORMATION
-------------------------------

Transformation type                        ... two-operators
Generation of integrals (i,mue|j,nue)      ... ON
Generation of integrals (mue,kappa|nue,tau)... ON
Generation of integrals (i,mue|a,nue)      ... ON
Dimension of the basis                     ...   70
Number of internal alpha-MOs               ...    3 (   5-   7)
Number of internal beta-MOs                ...    1 (   5-   5)
Number of external alpha-MOs               ...   62 (   8-  69)
Number of external beta-MOs                ...   64 (   6-  69)
Pair cutoff                                ... 0.000e+00 Eh
Number of AO pairs in the trafo            ... 2485
Total Number of distinct AO pairs          ... 2485
Memory devoted for trafo                   ... 2500.0 MB 
Max. Number of MO pairs treated together   ... 66873      
Number Format for Storage                  ... Double (8 Byte)
Integral package used                      ... LIBINT

Starting integral evaluation:
    ... done with AO integral generation
Closing buffer AOK[aa] ( 0.00 GB; CompressionRatio= 0.86)
Closing buffer AOK[bb] ( 0.00 GB; CompressionRatio= 0.40)
Closing buffer AOK[ab] ( 0.00 GB; CompressionRatio= 0.67)
Closing buffer AOK[ba] ( 0.00 GB; CompressionRatio= 0.67)
Collecting buffer AOK 
Closing buffer IAAO1[aa] ( 0.00 GB; CompressionRatio= 0.99)
Closing buffer IAAO1[bb] ( 0.00 GB; CompressionRatio= 0.98)
Closing buffer IAAO1[ab] ( 0.00 GB; CompressionRatio= 0.99)
Closing buffer IAAO1[ba] ( 0.00 GB; CompressionRatio= 0.98)
Closing buffer IAAO2[aa] ( 0.00 GB; CompressionRatio= 0.99)
Closing buffer IAAO2[bb] ( 0.00 GB; CompressionRatio= 0.98)
Closing buffer IAAO2[ab] ( 0.00 GB; CompressionRatio= 0.99)
Closing buffer IAAO2[ba] ( 0.00 GB; CompressionRatio= 0.98)
Collecting buffer IAAO 
Closing buffer PRQS    ( 0.01 GB; CompressionRatio= 1.00)
Collecting buffer PRQS 
Number of alpha/alpha MO pairs in trafo    ...    6
Number of beta /beta  MO pairs in trafo    ...    1
Number of alpha/ beta MO pairs in trafo    ...    3
------------------------
SORTING OF (i,mue|j,nue)
------------------------

SORTING OF ALPHA/ALPHA PAIRS
IBATCH = 1 of  1
Closing buffer KAO[aa] ( 0.00 GB; CompressionRatio= 1.00)
Collecting buffer KAO 
SORTING OF BETA /BETA  PAIRS
IBATCH = 1 of  1
Closing buffer KAO[bb] ( 0.00 GB; CompressionRatio= 1.00)
Collecting buffer KAO 
SORTING OF ALPHA/BETA  PAIRS
IBATCH = 1 of  1
Closing buffer KAO[ab] ( 0.00 GB; CompressionRatio= 0.999693971233)
Collecting buffer KAO[ab] 
------------------------
SORTING OF (i,mue|a,nue)
------------------------

Number of alpha/alpha (i,a) pairs in trafo  ...  186
Number of beta /beta  (i,a) pairs in trafo  ...   64
Number of alpha/ beta (i,a) pairs in trafo  ...  192
Number of beta /alpha (i,a) pairs in trafo  ...   62
Setting up the alpha/alpha list             ... done
Setting up the beta /beta  list             ... done
Setting up the alpha/beta  list             ... done
Setting up the beta /alpha list             ... done
    ... Now sorting (i,mue|a,nue)integrals
    ... Integrals (i,b|a,c) will be made on the fly
SORTING OF ALPHA/ALPHA PAIRS
IBATCH = 1 of  1
Closing buffer IPAQ[aa]  0.00 GB; CompressionRatio= 1.00)
SORTING OF BETA /BETA  PAIRS
IBATCH = 1 of  1
Closing buffer IPAQ[bb]( 0.00 GB; CompressionRatio= 1.00)
SORTING OF ALPHA/BETA  PAIRS (NMatSort_ab=32)
IBATCH = 1 of  1
Closing buffer IPAQ[ab]( 0.00 GB; CompressionRatio= 1.00)
SORTING OF BETA/ALPHA  PAIRS
IBATCH = 1 of  1
Closing buffer IPAQ[ba]( 0.00 GB; CompressionRatio= 1.00)
N(AO-Batches) Done                         ...     15972 
N(AO-Batches) Skipped                      ...         0 
N(IJ)-pairs Skipped                        ...         0 
TOTAL TIME for half transformation         ...     4.707 sec
AO-integral generation                     ...     0.221 sec
Half transformation                        ...     2.089 sec
K-integral sorting                         ...     0.266 sec
<ss|**>: 
------------------------------
PARTIAL COULOMB TRANSFORMATION
------------------------------

Transformation type                        ... two-operators
Dimension of the basis                     ...   70
Number of internal alpha-MOs               ...    3 (5-7)
Number of internal beta-MOs                ...    1 (5-5)
Pair cutoff                                ... 0.000e+00 Eh
Number of AO pairs included in the trafo   ... 2485
Total Number of distinct AO pairs          ... 2485
Memory devoted for trafo                   ... 2500.0 MB 
Max. Number of MO pairs treated together   ... 131863      
Max. Number of MOs treated per batch       ... 1883      
Number Format for Storage                  ... Double (8 Byte)
AO-integral source                         ... DIRECT
Integral package used                      ... LIBINT

Starting integral evaluation:
<sp|**>:        11385 b        0 skpd     0.016 s (  0.001 ms/b)
<sd|**>:        13662 b        0 skpd     0.045 s (  0.003 ms/b)
        9108 b        0 skpd     0.050 s (  0.006 ms/b)
<sf|**>:         4554 b        0 skpd     0.041 s (  0.009 ms/b)
<sg|**>:         2277 b        0 skpd     0.045 s (  0.020 ms/b)
<pp|**>:         5313 b        0 skpd     0.062 s (  0.012 ms/b)
<pd|**>:         6072 b        0 skpd     0.083 s (  0.014 ms/b)
<pf|**>:         3036 b        0 skpd     0.070 s (  0.023 ms/b)
<pg|**>:         1518 b        0 skpd     0.047 s (  0.031 ms/b)
<dd|**>:         2530 b        0 skpd     0.061 s (  0.024 ms/b)
<df|**>:         2024 b        0 skpd     0.086 s (  0.043 ms/b)
<dg|**>:         1012 b        0 skpd     0.056 s (  0.056 ms/b)
<ff|**>:          759 b        0 skpd     0.053 s (  0.070 ms/b)
<fg|**>:          506 b        0 skpd     0.057 s (  0.113 ms/b)
<gg|**>:          253 b        0 skpd     0.045 s (  0.177 ms/b)
Closing buffer AOJ[aa] ( 0.00 GB; CompressionRatio= 0.80)
Closing buffer AOJ[bb] ( 0.00 GB; CompressionRatio= 0.00)
Collecting buffer AOJ 
    ... done with AO integral generation
Number of Alpha-MO pairs included          ...    6
Number of Beta-MO pairs included           ...    1
    ... Now sorting integrals
SORTING ALPHA/ALPHA PAIRS
IBATCH = 1 of  1
Closing buffer JAO[aa] ( 0.00 GB; CompressionRatio= 1.00)
SORTING BETA/BETA PAIRS
IBATCH = 1 of  1
Closing buffer JAO[bb] ( 0.00 GB; CompressionRatio= 1.00)
Collecting buffer JAO 
TOTAL TIME for half transformation         ...     0.857 sec
AO-integral generation                     ...     0.444 sec
Half transformation                        ...     0.375 sec
J-integral sorting                         ...     0.023 sec

-------------------------- SECOND HALF TRANSFORMATION -------------------------
Formation of (ij|kl),(ij|ka), (ij|ab)      ... ok (     0.030 sec)
Formation of (ik|jl),(ik|ja), (ia|jb)      ... ok (     0.050 sec)


-----------------------
SPIN UNRESTRICTED GUESS
-----------------------

Entering MDCI_UHF_Guess, Tailored=0
Spin-components of the MP2 energy:
EMP2(aa)=     -0.010275937
EMP2(bb)=      0.000000000
EMP2(ab)=     -0.049979922

Initial guess performed in     0.001 sec
E(0)                                       ...   -288.858728988
E(MP2)                                     ...     -0.060255859
Initial E(tot)                             ...   -288.918984846
<T|T>                                      ...      0.037471462
Number of pairs included                   ... 6

------------------------------------------------
                  UHF COUPLED CLUSTER ITERATIONS
------------------------------------------------

Number of amplitudes to be optimized       ...        17795

Iter       E(tot)           E(Corr)          Delta-E          Residual     Time      <S|S>**1/2
  0   -288.918984846     -0.060255859      0.000000000      0.020186001    0.18      0.000000057
                           *** Turning on DIIS ***
  1   -288.928421115     -0.069692128     -0.009436269      0.011085930    0.17      0.012108597
  2   -288.934569214     -0.075840227     -0.006148099      0.003296611    0.17      0.023128947
  3   -288.935329382     -0.076600394     -0.000760168      0.001056254    0.17      0.026983393
  4   -288.935501326     -0.076772339     -0.000171944      0.000261105    0.17      0.028252345
  5   -288.935523871     -0.076794884     -0.000022545      0.000055095    0.17      0.028424266
  6   -288.935521734     -0.076792746      0.000002138      0.000024988    0.17      0.028426384
  7   -288.935523039     -0.076794052     -0.000001306      0.000005819    0.17      0.028430939
               --- The Coupled-Cluster iterations have converged ---

----------------------
COUPLED CLUSTER ENERGY
----------------------

E(0)                                       ...   -288.858728988
E(CORR)                                    ...     -0.076794052
E(TOT)                                     ...   -288.935523039
Singles norm <S|S>**1/2                    ...      0.028430939 ( 0.025186166, 0.003244772)  
T1 diagnostic                              ...      0.014215469                              

------------------
LARGEST AMPLITUDES
------------------
   5a->  8a   5b->  6b       0.088980
   5a->  8a   5b-> 10b       0.052518
   6a-> 15a   5b->  6b       0.051044
   7a-> 16a   5b->  6b       0.051044
   7a-> 14a   6a-> 13a       0.048169
   7a-> 13a   6a-> 14a       0.048169
   5a-> 12a   5b->  6b       0.047283
   6a-> 13a   5b->  8b       0.038049
   7a-> 13a   5b->  7b       0.038049
   6a-> 14a   5b->  7b       0.038049
   7a-> 14a   5b->  8b       0.038049
   6a->  8a   5b-> 15b       0.032358
   7a->  8a   5b-> 14b       0.032358
   6a-> 13a   5b-> 12b       0.031820
   7a-> 13a   5b-> 11b       0.031820
   6a-> 14a   5b-> 11b       0.031820

----------------------
UHF TRIPLES CORRECTION (Algorithm 1)
----------------------

Multiplier for the singles contribution    ...      1.000000000

SPIN-CASE Alpha-Alpha-Alpha:
10% done
20% done
30% done
40% done
50% done
60% done
70% done
80% done
90% done


SPIN-CASE Beta-Beta-Beta:

SPIN-CASE Alpha-Alpha-Beta:
10% done
20% done
30% done
40% done
50% done
60% done
70% done
80% done
90% done


SPIN-CASE Beta-Beta-Alpha:

Triples Correction (T)                     ...     -0.002865534
    alpha-alpha-alpha ... -0.000076610 (  2.7%)
    alpha-alpha-beta  ... -0.002788924 ( 97.3%)
    alpha-beta -beta  ...  0.000000000 ( -0.0%)
    beta -beta -beta  ...  0.000000000 ( -0.0%)
Scaling of triples based on CCSD energies (Peterson et al. Molecular Physics 113, 1551 (2015))
E(T*) = f*E(T) where f = E(F12-CCSD)/E(CCSD) 
f = CCSD (with F12)/ CCSD (without F12)    ...      1.000000000
Scaled triples correction (T)              ...     -0.002865534

Final correlation energy                   ...     -0.079659586
E(CCSD)                                    ...   -288.935523039
E(CCSD(T))                                 ...   -288.938388574



        !!!!!!!!!!!!!!!!!!!!!!!!!!!!!!!!!!!!!!!!!!!!!!!!!!!!!!!!!!!!!!!!!!!!!!!!!! 
        !  Warning: Densities are linearized densities                           !
        !!!!!!!!!!!!!!!!!!!!!!!!!!!!!!!!!!!!!!!!!!!!!!!!!!!!!!!!!!!!!!!!!!!!!!!!!! 

NORM  =      1.072802131 sqrt=     1.035761619
W(HF) =      0.932138342
------------------------------------------------------------------------------
                           ORCA POPULATION ANALYSIS
------------------------------------------------------------------------------
Input electron density              ... 14_Si.mdcip
Input spin density                  ... 14_Si.mdcir
BaseName (.gbw .S,...)              ... 14_Si

                    ********************************
                    * MULLIKEN POPULATION ANALYSIS *
                    ********************************

------------------------------------------
MULLIKEN ATOMIC CHARGES AND SPIN DENSITIES
------------------------------------------
   0 Si:   -0.000000    2.000000
Sum of atomic charges       :   -0.0000000
Sum of atomic spin densities:    2.0000000

---------------------------------------------------
MULLIKEN REDUCED ORBITAL CHARGES AND SPIN DENSITIES
---------------------------------------------------
CHARGE
  0 Sis       :     5.913891  s :     5.913891
      pz      :     2.123556  p :     8.023017
      px      :     2.962284
      py      :     2.937177
      dz2     :     0.008993  d :     0.059659
      dxz     :     0.010536
      dyz     :     0.010402
      dx2y2   :     0.014864
      dxy     :     0.014864
      f0      :     0.000249  f :     0.003177
      f+1     :     0.000293
      f-1     :     0.000286
      f+2     :     0.000434
      f-2     :     0.000434
      f+3     :     0.000740
      f-3     :     0.000740
      g0      :     0.000018  g :     0.000255
      g+1     :     0.000020
      g-1     :     0.000020
      g+2     :     0.000024
      g-2     :     0.000024
      g+3     :     0.000032
      g-3     :     0.000032
      g+4     :     0.000043
      g-4     :     0.000043

SPIN
  0 Sis       :     0.038566  s :     0.038566
      pz      :     0.075255  p :     1.923662
      px      :     0.937103
      py      :     0.911304
      dz2     :     0.002535  d :     0.036323
      dxz     :     0.004883
      dyz     :     0.004682
      dx2y2   :     0.012111
      dxy     :     0.012112
      f0      :     0.000145  f :     0.001344
      f+1     :     0.000154
      f-1     :     0.000153
      f+2     :     0.000185
      f-2     :     0.000185
      f+3     :     0.000261
      f-3     :     0.000261
      g0      :     0.000008  g :     0.000105
      g+1     :     0.000008
      g-1     :     0.000008
      g+2     :     0.000010
      g-2     :     0.000010
      g+3     :     0.000013
      g-3     :     0.000013
      g+4     :     0.000018
      g-4     :     0.000018


                     *******************************
                     * LOEWDIN POPULATION ANALYSIS *
                     *******************************

-----------------------------------------
LOEWDIN ATOMIC CHARGES AND SPIN DENSITIES
-----------------------------------------
   0 Si:   -0.000000    2.000000

--------------------------------------------------
LOEWDIN REDUCED ORBITAL CHARGES AND SPIN DENSITIES
--------------------------------------------------
CHARGE
  0 Sis       :     5.913891  s :     5.913891
      pz      :     2.123556  p :     8.023017
      px      :     2.962284
      py      :     2.937177
      dz2     :     0.008993  d :     0.059659
      dxz     :     0.010536
      dyz     :     0.010402
      dx2y2   :     0.014864
      dxy     :     0.014864
      f0      :     0.000249  f :     0.003177
      f+1     :     0.000293
      f-1     :     0.000286
      f+2     :     0.000434
      f-2     :     0.000434
      f+3     :     0.000740
      f-3     :     0.000740
      g0      :     0.000018  g :     0.000255
      g+1     :     0.000020
      g-1     :     0.000020
      g+2     :     0.000024
      g-2     :     0.000024
      g+3     :     0.000032
      g-3     :     0.000032
      g+4     :     0.000043
      g-4     :     0.000043

SPIN
  0 Sis       :     0.038566  s :     0.038566
      pz      :     0.075255  p :     1.923662
      px      :     0.937103
      py      :     0.911304
      dz2     :     0.002535  d :     0.036323
      dxz     :     0.004883
      dyz     :     0.004682
      dx2y2   :     0.012111
      dxy     :     0.012112
      f0      :     0.000145  f :     0.001344
      f+1     :     0.000154
      f-1     :     0.000153
      f+2     :     0.000185
      f-2     :     0.000185
      f+3     :     0.000261
      f-3     :     0.000261
      g0      :     0.000008  g :     0.000105
      g+1     :     0.000008
      g-1     :     0.000008
      g+2     :     0.000010
      g-2     :     0.000010
      g+3     :     0.000013
      g-3     :     0.000013
      g+4     :     0.000018
      g-4     :     0.000018


                      *****************************
                      * MAYER POPULATION ANALYSIS *
                      *****************************

  NA   - Mulliken gross atomic population
  ZA   - Total nuclear charge
  QA   - Mulliken gross atomic charge
  VA   - Mayer's total valence
  BVA  - Mayer's bonded valence
  FA   - Mayer's free valence

  ATOM       NA         ZA         QA         VA         BVA        FA
  0 Si    14.0000    14.0000    -0.0000     2.4191     0.0000     2.4191





------------------------------------------------------------------------------- 
                                     TIMINGS                                   
------------------------------------------------------------------------------- 


Total execution time                   ...        7.846 sec

Fock Matrix Formation                  ...        0.146 sec (  1.9%)
Initial Guess                          ...        0.001 sec (  0.0%)
DIIS Solver                            ...        0.009 sec (  0.1%)
State Vector Update                    ...        0.000 sec (  0.0%)
Sigma-vector construction              ...        1.365 sec ( 17.4%)
  <D|H|D>(2-ext)                       ...        0.002 sec (  0.1% of sigma)
  <D|H|D>(4-ext)                       ...        0.659 sec ( 48.3% of sigma)
  <S|H|0>                              ...        0.005 sec (  0.4% of sigma)
  <D|H|S>(1-ext)                       ...        0.002 sec (  0.1% of sigma)
  Fock-dressing                        ...        0.578 sec ( 42.3% of sigma)
  (ij|ab),(ia|jb)-dressing             ...        0.067 sec (  4.9% of sigma)
Total Time for computing (T)           ...        0.030 sec (  0.4% of ALL)
  I/O of integral and amplitudes       ...        0.011 sec ( 37.7% of (T))
  External N**7 contributions          ...        0.005 sec ( 16.0% of (T))
  Internal N**7 contributions          ...        0.001 sec (  4.7% of (T))
  N**6 triples energy contributions    ...        0.006 sec ( 19.6% of (T))


-------------------------   --------------------
FINAL SINGLE POINT ENERGY      -288.938388573827
-------------------------   --------------------


                            ***************************************
                            *     ORCA property calculations      *
                            ***************************************

                                    ---------------------
                                    Active property flags
                                    ---------------------
   (+) Dipole Moment


------------------------------------------------------------------------------
                       ORCA ELECTRIC PROPERTIES CALCULATION
------------------------------------------------------------------------------

Dipole Moment Calculation                       ... on
Quadrupole Moment Calculation                   ... off
Polarizability Calculation                      ... off
GBWName                                         ... 14_Si.gbw
Electron density file                           ... 14_Si.scfp
The origin for moment calculation is the CENTER OF MASS  = ( 0.000000,  0.000000  0.000000)

-------------
DIPOLE MOMENT
-------------
                                X             Y             Z
Electronic contribution:      0.00000      -0.00000      -0.00000
Nuclear contribution   :      0.00000       0.00000       0.00000
                        -----------------------------------------
Total Dipole Moment    :      0.00000      -0.00000      -0.00000
                        -----------------------------------------
Magnitude (a.u.)       :      0.00000
Magnitude (Debye)      :      0.00000



--------------------
Rotational spectrum 
--------------------
 
Rotational constants in cm-1:     0.000000     0.000000     0.000000 
Rotational constants in MHz :     0.000000     0.000000     0.000000 

 Dipole components along the rotational axes: 
x,y,z [a.u.] :     0.000000    -0.000000    -0.000000 
x,y,z [Debye]:     0.000000    -0.000000    -0.000000 

 

                           *** MDCI DENSITY ***

------------------------------------------------------------------------------
                       ORCA ELECTRIC PROPERTIES CALCULATION
------------------------------------------------------------------------------

Dipole Moment Calculation                       ... on
Quadrupole Moment Calculation                   ... off
Polarizability Calculation                      ... off
GBWName                                         ... 14_Si.gbw
Electron density file                           ... 14_Si.mdcip
The origin for moment calculation is the CENTER OF MASS  = ( 0.000000,  0.000000  0.000000)

-------------
DIPOLE MOMENT
-------------
                                X             Y             Z
Electronic contribution:     -0.00000       0.00000       0.00000
Nuclear contribution   :      0.00000       0.00000       0.00000
                        -----------------------------------------
Total Dipole Moment    :     -0.00000       0.00000       0.00000
                        -----------------------------------------
Magnitude (a.u.)       :      0.00000
Magnitude (Debye)      :      0.00000



--------------------
Rotational spectrum 
--------------------
 
Rotational constants in cm-1:     0.000000     0.000000     0.000000 
Rotational constants in MHz :     0.000000     0.000000     0.000000 

 Dipole components along the rotational axes: 
x,y,z [a.u.] :    -0.000000     0.000000     0.000000 
x,y,z [Debye]:    -0.000000     0.000000     0.000000 

 

Timings for individual modules:

Sum of individual times         ...       11.518 sec (=   0.192 min)
GTO integral calculation        ...        0.543 sec (=   0.009 min)   4.7 %
SCF iterations                  ...        2.727 sec (=   0.045 min)  23.7 %
MDCI module                     ...        8.248 sec (=   0.137 min)  71.6 %
                             ****ORCA TERMINATED NORMALLY****
TOTAL RUN TIME: 0 days 0 hours 0 minutes 12 seconds 106 msec
