
                                 *****************
                                 * O   R   C   A *
                                 *****************

           --- An Ab Initio, DFT and Semiempirical electronic structure package ---

                  #######################################################
                  #                        -***-                        #
                  #          Department of theory and spectroscopy      #
                  #               Directorship: Frank Neese             #
                  #        Max Planck Institute fuer Kohlenforschung    #
                  #                Kaiser Wilhelm Platz 1               #
                  #                 D-45470 Muelheim/Ruhr               #
                  #                      Germany                        #
                  #                                                     #
                  #                  All rights reserved                #
                  #                        -***-                        #
                  #######################################################


                         Program Version 4.2.0 -  RELEASE  -


 With contributions from (in alphabetic order):
   Daniel Aravena         : Magnetic Suceptibility
   Michael Atanasov       : Ab Initio Ligand Field Theory (pilot matlab implementation)
   Alexander A. Auer      : GIAO ZORA, VPT2
   Ute Becker             : Parallelization
   Giovanni Bistoni       : ED, misc. LED, open-shell LED, HFLED
   Martin Brehm           : Molecular dynamics
   Dmytro Bykov           : SCF Hessian
   Vijay G. Chilkuri      : MRCI spin determinant printing, contributions to CSF-ICE
   Dipayan Datta          : RHF DLPNO-CCSD density
   Achintya Kumar Dutta   : EOM-CC, STEOM-CC
   Dmitry Ganyushin       : Spin-Orbit,Spin-Spin,Magnetic field MRCI
   Miquel Garcia          : C-PCM Hessian, Gaussian charge scheme
   Yang Guo               : DLPNO-NEVPT2, CIM, IAO-localization
   Andreas Hansen         : Spin unrestricted coupled pair/coupled cluster methods
   Benjamin Helmich-Paris : CASSCF linear response (MC-RPA)
   Lee Huntington         : MR-EOM, pCC
   Robert Izsak           : Overlap fitted RIJCOSX, COSX-SCS-MP3, EOM
   Christian Kollmar      : KDIIS, OOCD, Brueckner-CCSD(T), CCSD density
   Simone Kossmann        : Meta GGA functionals, TD-DFT gradient, OOMP2, MP2 Hessian
   Martin Krupicka        : AUTO-CI
   Lucas Lang             : DCDCAS
   Dagmar Lenk            : GEPOL surface, SMD
   Dimitrios Liakos       : Extrapolation schemes; Compound Job, initial MDCI parallelization
   Dimitrios Manganas     : Further ROCIS development; embedding schemes
   Dimitrios Pantazis     : SARC Basis sets
   Taras Petrenko         : DFT Hessian,TD-DFT gradient, ASA, ECA, R-Raman, ABS, FL, XAS/XES, NRVS
   Peter Pinski           : DLPNO-MP2, DLPNO-MP2 Gradient
   Christoph Reimann      : Effective Core Potentials
   Marius Retegan         : Local ZFS, SOC
   Christoph Riplinger    : Optimizer, TS searches, QM/MM, DLPNO-CCSD(T), (RO)-DLPNO pert. Triples
   Tobias Risthaus        : Range-separated hybrids, TD-DFT gradient, RPA, STAB
   Michael Roemelt        : Original ROCIS implementation
   Masaaki Saitow         : Open-shell DLPNO-CCSD energy and density
   Barbara Sandhoefer     : DKH picture change effects
   Avijit Sen             : IP-ROCIS
   Kantharuban Sivalingam : CASSCF convergence, NEVPT2, FIC-MRCI
   Bernardo de Souza      : ESD, SOC TD-DFT
   Georgi Stoychev        : AutoAux, RI-MP2 NMR
   Willem Van den Heuvel  : Paramagnetic NMR
   Boris Wezisla          : Elementary symmetry handling
   Frank Wennmohs         : Technical directorship


 We gratefully acknowledge several colleagues who have allowed us to
 interface, adapt or use parts of their codes:
   Stefan Grimme, W. Hujo, H. Kruse,             : VdW corrections, initial TS optimization,
                  C. Bannwarth                     DFT functionals, gCP, sTDA/sTD-DF
   Ed Valeev, F. Pavosevic, A. Kumar             : LibInt (2-el integral package), F12 methods
   Garnet Chan, S. Sharma, J. Yang, R. Olivares  : DMRG
   Ulf Ekstrom                                   : XCFun DFT Library
   Mihaly Kallay                                 : mrcc  (arbitrary order and MRCC methods)
   Andreas Klamt, Michael Diedenhofen            : otool_cosmo (COSMO solvation model)
   Jiri Pittner, Ondrej Demel                    : Mk-CCSD
   Frank Weinhold                                : gennbo (NPA and NBO analysis)
   Christopher J. Cramer and Donald G. Truhlar   : smd solvation model
   Lars Goerigk                                  : TD-DFT with DH, B97 family of functionals
   V. Asgeirsson, H. Jonsson                     : NEB implementation
   FAccTs GmbH                                   : IRC, NEB, NEB-TS, Multilevel, MM, QM/MM, CI optimization
   S Lehtola, MJT Oliveira, MAL Marques          : LibXC Library


 Your calculation uses the libint2 library for the computation of 2-el integrals
 For citations please refer to: http://libint.valeyev.net

 Your ORCA version has been built with support for libXC version: 4.2.3
 For citations please refer to: https://tddft.org/programs/libxc/

 This ORCA versions uses:
   CBLAS   interface :  Fast vector & matrix operations
   LAPACKE interface :  Fast linear algebra routines
   SCALAPACK package :  Parallel linear algebra routines


----- Orbital basis set information -----
Your calculation utilizes the basis: def2-QZVP
   F. Weigend and R. Ahlrichs, Phys. Chem. Chem. Phys. 7, 3297 (2005).

================================================================================
                                        WARNINGS
                       Please study these warnings very carefully!
================================================================================


WARNING: your system is open-shell and RHF/RKS was chosen
  ===> : WILL SWITCH to UHF/UKS


WARNING: MDCI localization with Augmented Hessian Foster-Boys
  ===> : Switching off randomization!

WARNING: Post HF methods need fully converged wavefunctions
  ===> : Setting SCFConvForced true
         You can overwrite this default with %scf ConvForced false 


INFO   : the flag for use of LIBINT has been found!

================================================================================
                                       INPUT FILE
================================================================================
NAME = 15_P.in
|  1> #
|  2> # 15_P CCSD(T)/Def2-QZVP
|  3> #
|  4> ! CCSD(T) Def2-QZVP tightscf
|  5> 
|  6> *xyz 0 4
|  7>  P 0.0 0.0 0.0
|  8> *
|  9> 
| 10> %maxcore 5000 
| 11> 
| 12> %pal
| 13> nprocs 10
| 14> end
| 15> 
| 16> 
| 17>                          ****END OF INPUT****
================================================================================

                       ****************************
                       * Single Point Calculation *
                       ****************************

---------------------------------
CARTESIAN COORDINATES (ANGSTROEM)
---------------------------------
  P      0.000000    0.000000    0.000000

----------------------------
CARTESIAN COORDINATES (A.U.)
----------------------------
  NO LB      ZA    FRAG     MASS         X           Y           Z
   0 P    15.0000    0    30.974    0.000000    0.000000    0.000000

--------------------------------
INTERNAL COORDINATES (ANGSTROEM)
--------------------------------
 P      0   0   0     0.000000000000     0.00000000     0.00000000

---------------------------
INTERNAL COORDINATES (A.U.)
---------------------------
 P      0   0   0     0.000000000000     0.00000000     0.00000000

---------------------
BASIS SET INFORMATION
---------------------
There are 1 groups of distinct atoms

 Group   1 Type P   : 20s14p4d2f1g contracted to 9s6p4d2f1g pattern {1031111111/821111/1111/11/1}

Atom   0P    basis set group =>   1


           ************************************************************
           *        Program running with 10 parallel MPI-processes    *
           *              working on a common directory               *
           ************************************************************
------------------------------------------------------------------------------
                           ORCA GTO INTEGRAL CALCULATION
------------------------------------------------------------------------------

                         BASIS SET STATISTICS AND STARTUP INFO

 # of primitive gaussian shells          ...   41
 # of primitive gaussian functions       ...  105
 # of contracted shells                  ...   22
 # of contracted basis functions         ...   70
 Highest angular momentum                ...    4
 Maximum contraction depth               ...   10
 Integral package used                   ... LIBINT
 Integral threshhold            Thresh   ...  2.500e-11
 Primitive cut-off              TCut     ...  2.500e-12


------------------------------ INTEGRAL EVALUATION ----------------------------


 * One electron integrals 
 Pre-screening matrix                    ... done
 Shell pair data                         ... done (   0.000 sec)



           ************************************************************
           *        Program running with 10 parallel MPI-processes    *
           *              working on a common directory               *
           ************************************************************
-------------------------------------------------------------------------------
                                 ORCA SCF
-------------------------------------------------------------------------------

------------
SCF SETTINGS
------------
Hamiltonian:
 Ab initio Hamiltonian  Method          .... Hartree-Fock(GTOs)


General Settings:
 Integral files         IntName         .... 15_P
 Hartree-Fock type      HFTyp           .... UHF
 Total Charge           Charge          ....    0
 Multiplicity           Mult            ....    4
 Number of Electrons    NEL             ....   15
 Basis Dimension        Dim             ....   70
 Nuclear Repulsion      ENuc            ....      0.0000000000 Eh

Convergence Acceleration:
 DIIS                   CNVDIIS         .... on
   Start iteration      DIISMaxIt       ....    12
   Startup error        DIISStart       ....  0.200000
   # of expansion vecs  DIISMaxEq       ....     5
   Bias factor          DIISBfac        ....   1.050
   Max. coefficient     DIISMaxC        ....  10.000
 Newton-Raphson         CNVNR           .... off
 SOSCF                  CNVSOSCF        .... off
 Level Shifting         CNVShift        .... on
   Level shift para.    LevelShift      ....    0.2500
   Turn off err/grad.   ShiftErr        ....    0.0010
 Zerner damping         CNVZerner       .... off
 Static damping         CNVDamp         .... on
   Fraction old density DampFac         ....    0.7000
   Max. Damping (<1)    DampMax         ....    0.9800
   Min. Damping (>=0)   DampMin         ....    0.0000
   Turn off err/grad.   DampErr         ....    0.1000
 Fernandez-Rico         CNVRico         .... off

SCF Procedure:
 Maximum # iterations   MaxIter         ....   125
 SCF integral mode      SCFMode         .... Direct
   Integral package                     .... LIBINT
 Reset frequency        DirectResetFreq ....    20
 Integral Threshold     Thresh          ....  2.500e-11 Eh
 Primitive CutOff       TCut            ....  2.500e-12 Eh

Convergence Tolerance:
 Convergence Check Mode ConvCheckMode   .... Total+1el-Energy
 Convergence forced     ConvForced      .... 1
 Energy Change          TolE            ....  1.000e-08 Eh
 1-El. energy change                    ....  1.000e-05 Eh
 DIIS Error             TolErr          ....  5.000e-07


Diagonalization of the overlap matrix:
Smallest eigenvalue                        ... 2.319e-03
Time for diagonalization                   ...    0.002 sec
Threshold for overlap eigenvalues          ... 1.000e-08
Number of eigenvalues below threshold      ... 0
Time for construction of square roots      ...    0.006 sec
Total time needed                          ...    0.008 sec

-------------------
DFT GRID GENERATION
-------------------

General Integration Accuracy     IntAcc      ...  4.340
Radial Grid Type                 RadialGrid  ... Gauss-Chebyshev
Angular Grid (max. acc.)         AngularGrid ... Lebedev-110
Angular grid pruning method      GridPruning ... 3 (G Style)
Weight generation scheme         WeightScheme... Becke
Basis function cutoff            BFCut       ...    1.0000e-11
Integration weight cutoff        WCut        ...    1.0000e-14
Grids for H and He will be reduced by one unit

# of grid points (after initial pruning)     ...   1806 (   0.0 sec)
# of grid points (after weights+screening)   ...   1806 (   0.0 sec)
Grid point division into batches done        ...    0.0 sec
Reduced shell lists constructed in    0.0 sec

Total number of grid points                  ...     1806
Total number of batches                      ...       29
Average number of points per batch           ...       62
Average number of grid points per atom       ...     1806
Average number of shells per batch           ...     9.00 (40.91%)
Average number of basis functions per batch  ...    37.50 (53.57%)
Average number of large shells per batch     ...     6.75 (75.00%)
Average number of large basis fcns per batch ...    27.75 (74.00%)
Maximum spatial batch extension              ...  17.83, 32.81, 32.81 au
Average spatial batch extension              ...   1.71,  2.88,  3.39 au

Time for grid setup =    0.024 sec

------------------------------
INITIAL GUESS: MODEL POTENTIAL
------------------------------
Loading Hartree-Fock densities                     ... done
Calculating cut-offs                               ... done
Setting up the integral package                    ... done
Initializing the effective Hamiltonian             ... done
Starting the Coulomb interaction                   ... done (   0.0 sec)
Reading the grid                                   ... done
Mapping shells                                     ... done
Starting the XC term evaluation                    ... done (   0.0 sec)
Transforming the Hamiltonian                       ... done (   0.0 sec)
Diagonalizing the Hamiltonian                      ... done (   0.0 sec)
Back transforming the eigenvectors                 ... done (   0.0 sec)
Now organizing SCF variables                       ... done
                      ------------------
                      INITIAL GUESS DONE (   0.1 sec)
                      ------------------
--------------
SCF ITERATIONS
--------------
ITER       Energy         Delta-E        Max-DP      RMS-DP      [F,P]     Damp
               ***  Starting incremental Fock matrix formation  ***
  0   -340.6986679748   0.000000000000 0.00889528  0.00031502  0.5501025 0.7000
  1   -340.7042704173  -0.005602442483 0.00940535  0.00028208  0.3886601 0.7000
  2   -340.7084033984  -0.004132981157 0.00829221  0.00023224  0.2745212 0.7000
                               ***Turning on DIIS***
  3   -340.7114135014  -0.003010102931 0.00704251  0.00018802  0.1940443 0.7000
  4   -340.6838139287   0.027599572627 0.00693033  0.00017458  0.1372540 0.7000
  5   -340.6885433877  -0.004729458982 0.02085600  0.00049826  0.0966006 0.0000
  6   -340.7187378896  -0.030194501878 0.00377083  0.00007386  0.0013894 0.0000
  7   -340.7172542045   0.001483685058 0.00384156  0.00006883  0.0006071 0.0000
  8   -340.7182030687  -0.000948864215 0.00102358  0.00001747  0.0001354 0.0000
  9   -340.7189747705  -0.000771701713 0.00009890  0.00000202  0.0000144 0.0000
 10   -340.7190342598  -0.000059489322 0.00001742  0.00000061  0.0000036 0.0000
                            ***DIIS convergence achieved***

               *****************************************************
               *                     SUCCESS                       *
               *           SCF CONVERGED AFTER  11 CYCLES          *
               *****************************************************


----------------
TOTAL SCF ENERGY
----------------

Total Energy       :         -340.71904251 Eh           -9271.43650 eV

Components:
Nuclear Repulsion  :            0.00000000 Eh               0.00000 eV
Electronic Energy  :         -340.71904251 Eh           -9271.43650 eV
One Electron Energy:         -471.50651801 Eh          -12830.34464 eV
Two Electron Energy:          130.78747550 Eh            3558.90814 eV

Virial components:
Potential Energy   :         -681.43827690 Eh          -18542.87822 eV
Kinetic Energy     :          340.71923439 Eh            9271.44172 eV
Virial Ratio       :            1.99999944


---------------
SCF CONVERGENCE
---------------

  Last Energy change         ...   -8.2508e-06  Tolerance :   1.0000e-08
  Last MAX-Density change    ...    2.5421e-06  Tolerance :   1.0000e-07
  Last RMS-Density change    ...    8.5735e-08  Tolerance :   5.0000e-09
  Last DIIS Error            ...    4.4682e-07  Tolerance :   5.0000e-07

             **** THE GBW FILE WAS UPDATED (15_P.gbw) ****
             **** DENSITY FILE WAS UPDATED (15_P.scfp) ****
             **** ENERGY FILE WAS UPDATED (15_P.en.tmp) ****
----------------------
UHF SPIN CONTAMINATION
----------------------

Expectation value of <S**2>     :     3.750634
Ideal value S*(S+1) for S=1.5   :     3.750000
Deviation                       :     0.000634

             **** THE GBW FILE WAS UPDATED (15_P.gbw) ****
             **** DENSITY FILE WAS UPDATED (15_P.scfp) ****
----------------
ORBITAL ENERGIES
----------------
                 SPIN UP ORBITALS
  NO   OCC          E(Eh)            E(eV) 
   0   1.0000     -79.980072     -2176.3684 
   1   1.0000      -7.521597      -204.6731 
   2   1.0000      -5.421283      -147.5206 
   3   1.0000      -5.421283      -147.5206 
   4   1.0000      -5.421283      -147.5206 
   5   1.0000      -0.836126       -22.7521 
   6   1.0000      -0.392022       -10.6675 
   7   1.0000      -0.392022       -10.6675 
   8   1.0000      -0.392022       -10.6675 
   9   0.0000       0.228409         6.2153 
  10   0.0000       0.229192         6.2366 
  11   0.0000       0.229192         6.2366 
  12   0.0000       0.229192         6.2366 
  13   0.0000       0.298014         8.1094 
  14   0.0000       0.298014         8.1094 
  15   0.0000       0.298014         8.1094 
  16   0.0000       0.298014         8.1094 
  17   0.0000       0.298014         8.1094 
  18   0.0000       0.936052        25.4713 
  19   0.0000       0.936052        25.4713 
  20   0.0000       0.936052        25.4713 
  21   0.0000       0.936052        25.4713 
  22   0.0000       0.936052        25.4713 
  23   0.0000       1.004617        27.3370 
  24   0.0000       1.004617        27.3370 
  25   0.0000       1.004617        27.3370 
  26   0.0000       1.004617        27.3370 
  27   0.0000       1.004617        27.3370 
  28   0.0000       1.004617        27.3370 
  29   0.0000       1.004617        27.3370 
  30   0.0000       1.073371        29.2079 
  31   0.0000       1.073371        29.2079 
  32   0.0000       1.073371        29.2079 
  33   0.0000       1.354283        36.8519 
  34   0.0000       2.399402        65.2911 
  35   0.0000       2.399402        65.2911 
  36   0.0000       2.399402        65.2911 
  37   0.0000       2.399402        65.2911 
  38   0.0000       2.399402        65.2911 
  39   0.0000       2.821256        76.7703 
  40   0.0000       2.821256        76.7703 
  41   0.0000       2.821256        76.7703 
  42   0.0000       2.821256        76.7703 
  43   0.0000       2.821256        76.7703 
  44   0.0000       2.821256        76.7703 
  45   0.0000       2.821256        76.7703 
  46   0.0000       2.821256        76.7703 
  47   0.0000       2.821256        76.7703 
  48   0.0000       2.862362        77.8888 
  49   0.0000       2.862362        77.8888 
  50   0.0000       2.862362        77.8888 
  51   0.0000       2.862362        77.8888 
  52   0.0000       2.862362        77.8888 
  53   0.0000       2.862362        77.8888 
  54   0.0000       2.862362        77.8888 
  55   0.0000       3.740946       101.7963 
  56   0.0000       3.740946       101.7963 
  57   0.0000       3.740946       101.7963 
  58   0.0000       5.691163       154.8644 
  59   0.0000       7.531182       204.9339 
  60   0.0000       7.531182       204.9339 
  61   0.0000       7.531182       204.9339 
  62   0.0000       7.531182       204.9339 
  63   0.0000       7.531182       204.9339 
  64   0.0000      18.292113       497.7537 
  65   0.0000      18.292113       497.7537 
  66   0.0000      18.292113       497.7537 
  67   0.0000      20.417766       555.5957 
  68   0.0000      71.463336      1944.6162 
  69   0.0000     384.646183     10466.7548 

                 SPIN DOWN ORBITALS
  NO   OCC          E(Eh)            E(eV) 
   0   1.0000     -79.958465     -2175.7805 
   1   1.0000      -7.499731      -204.0780 
   2   1.0000      -5.379839      -146.3929 
   3   1.0000      -5.379839      -146.3929 
   4   1.0000      -5.379839      -146.3929 
   5   1.0000      -0.556147       -15.1335 
   6   0.0000       0.044152         1.2014 
   7   0.0000       0.044152         1.2014 
   8   0.0000       0.044152         1.2014 
   9   0.0000       0.270268         7.3544 
  10   0.0000       0.295814         8.0495 
  11   0.0000       0.295814         8.0495 
  12   0.0000       0.295814         8.0495 
  13   0.0000       0.390981        10.6391 
  14   0.0000       0.390981        10.6391 
  15   0.0000       0.390981        10.6391 
  16   0.0000       0.390981        10.6391 
  17   0.0000       0.390981        10.6391 
  18   0.0000       1.024334        27.8736 
  19   0.0000       1.024334        27.8736 
  20   0.0000       1.024334        27.8736 
  21   0.0000       1.024334        27.8736 
  22   0.0000       1.024334        27.8736 
  23   0.0000       1.062867        28.9221 
  24   0.0000       1.062867        28.9221 
  25   0.0000       1.062867        28.9221 
  26   0.0000       1.062867        28.9221 
  27   0.0000       1.062867        28.9221 
  28   0.0000       1.062867        28.9221 
  29   0.0000       1.062867        28.9221 
  30   0.0000       1.145190        31.1622 
  31   0.0000       1.145190        31.1622 
  32   0.0000       1.145190        31.1622 
  33   0.0000       1.410262        38.3752 
  34   0.0000       2.433670        66.2235 
  35   0.0000       2.433670        66.2235 
  36   0.0000       2.433670        66.2235 
  37   0.0000       2.433670        66.2235 
  38   0.0000       2.433670        66.2235 
  39   0.0000       2.874375        78.2157 
  40   0.0000       2.874375        78.2157 
  41   0.0000       2.874375        78.2157 
  42   0.0000       2.874375        78.2157 
  43   0.0000       2.874375        78.2157 
  44   0.0000       2.874375        78.2157 
  45   0.0000       2.874375        78.2157 
  46   0.0000       2.874375        78.2157 
  47   0.0000       2.874375        78.2157 
  48   0.0000       2.921478        79.4975 
  49   0.0000       2.921478        79.4975 
  50   0.0000       2.921478        79.4975 
  51   0.0000       2.921478        79.4975 
  52   0.0000       2.921478        79.4975 
  53   0.0000       2.921478        79.4975 
  54   0.0000       2.921478        79.4975 
  55   0.0000       3.788856       103.1000 
  56   0.0000       3.788856       103.1000 
  57   0.0000       3.788856       103.1000 
  58   0.0000       5.723946       155.7565 
  59   0.0000       7.549535       205.4333 
  60   0.0000       7.549535       205.4333 
  61   0.0000       7.549535       205.4333 
  62   0.0000       7.549535       205.4333 
  63   0.0000       7.549535       205.4333 
  64   0.0000      18.321175       498.5445 
  65   0.0000      18.321175       498.5445 
  66   0.0000      18.321175       498.5445 
  67   0.0000      20.435119       556.0679 
  68   0.0000      71.476002      1944.9609 
  69   0.0000     384.650913     10466.8835 

                    ********************************
                    * MULLIKEN POPULATION ANALYSIS *
                    ********************************

--------------------------------------------
MULLIKEN ATOMIC CHARGES AND SPIN POPULATIONS
--------------------------------------------
   0 P :   -0.000000    3.000000
Sum of atomic charges         :   -0.0000000
Sum of atomic spin populations:    3.0000000

-----------------------------------------------------
MULLIKEN REDUCED ORBITAL CHARGES AND SPIN POPULATIONS
-----------------------------------------------------
CHARGE
  0 P s       :     6.000000  s :     6.000000
      pz      :     3.000000  p :     9.000000
      px      :     3.000000
      py      :     3.000000
      dz2     :     0.000000  d :     0.000000
      dxz     :     0.000000
      dyz     :     0.000000
      dx2y2   :     0.000000
      dxy     :     0.000000
      f0      :     0.000000  f :     0.000000
      f+1     :     0.000000
      f-1     :     0.000000
      f+2     :     0.000000
      f-2     :     0.000000
      f+3     :     0.000000
      f-3     :     0.000000
      g0      :     0.000000  g :     0.000000
      g+1     :     0.000000
      g-1     :     0.000000
      g+2     :     0.000000
      g-2     :     0.000000
      g+3     :     0.000000
      g-3     :     0.000000
      g+4     :     0.000000
      g-4     :     0.000000

SPIN
  0 P s       :    -0.000000  s :    -0.000000
      pz      :     1.000000  p :     3.000000
      px      :     1.000000
      py      :     1.000000
      dz2     :     0.000000  d :     0.000000
      dxz     :     0.000000
      dyz     :     0.000000
      dx2y2   :     0.000000
      dxy     :     0.000000
      f0      :     0.000000  f :     0.000000
      f+1     :     0.000000
      f-1     :     0.000000
      f+2     :     0.000000
      f-2     :     0.000000
      f+3     :     0.000000
      f-3     :     0.000000
      g0      :     0.000000  g :     0.000000
      g+1     :     0.000000
      g-1     :    -0.000000
      g+2     :     0.000000
      g-2     :     0.000000
      g+3     :     0.000000
      g-3     :     0.000000
      g+4     :     0.000000
      g-4     :     0.000000


                     *******************************
                     * LOEWDIN POPULATION ANALYSIS *
                     *******************************

-------------------------------------------
LOEWDIN ATOMIC CHARGES AND SPIN POPULATIONS
-------------------------------------------
   0 P :   -0.000000    3.000000

----------------------------------------------------
LOEWDIN REDUCED ORBITAL CHARGES AND SPIN POPULATIONS
----------------------------------------------------
CHARGE
  0 P s       :     6.000000  s :     6.000000
      pz      :     3.000000  p :     9.000000
      px      :     3.000000
      py      :     3.000000
      dz2     :     0.000000  d :     0.000000
      dxz     :     0.000000
      dyz     :     0.000000
      dx2y2   :     0.000000
      dxy     :     0.000000
      f0      :     0.000000  f :     0.000000
      f+1     :     0.000000
      f-1     :     0.000000
      f+2     :     0.000000
      f-2     :     0.000000
      f+3     :     0.000000
      f-3     :     0.000000
      g0      :     0.000000  g :     0.000000
      g+1     :     0.000000
      g-1     :     0.000000
      g+2     :     0.000000
      g-2     :     0.000000
      g+3     :     0.000000
      g-3     :     0.000000
      g+4     :     0.000000
      g-4     :     0.000000

SPIN
  0 P s       :    -0.000000  s :    -0.000000
      pz      :     1.000000  p :     3.000000
      px      :     1.000000
      py      :     1.000000
      dz2     :     0.000000  d :     0.000000
      dxz     :     0.000000
      dyz     :     0.000000
      dx2y2   :     0.000000
      dxy     :     0.000000
      f0      :     0.000000  f :     0.000000
      f+1     :     0.000000
      f-1     :     0.000000
      f+2     :     0.000000
      f-2     :     0.000000
      f+3     :     0.000000
      f-3     :     0.000000
      g0      :     0.000000  g :     0.000000
      g+1     :     0.000000
      g-1     :    -0.000000
      g+2     :     0.000000
      g-2     :     0.000000
      g+3     :     0.000000
      g-3     :     0.000000
      g+4     :     0.000000
      g-4     :     0.000000


                      *****************************
                      * MAYER POPULATION ANALYSIS *
                      *****************************

  NA   - Mulliken gross atomic population
  ZA   - Total nuclear charge
  QA   - Mulliken gross atomic charge
  VA   - Mayer's total valence
  BVA  - Mayer's bonded valence
  FA   - Mayer's free valence

  ATOM       NA         ZA         QA         VA         BVA        FA
  0 P     15.0000    15.0000    -0.0000     3.0013     0.0000     3.0013

  Mayer bond orders larger than 0.100000


-------
TIMINGS
-------

Total SCF time: 0 days 0 hours 0 min 2 sec 

Total time                  ....       2.214 sec
Sum of individual times     ....       1.913 sec  ( 86.4%)

Fock matrix formation       ....       1.529 sec  ( 69.1%)
Diagonalization             ....       0.038 sec  (  1.7%)
Density matrix formation    ....       0.003 sec  (  0.1%)
Population analysis         ....       0.036 sec  (  1.6%)
Initial guess               ....       0.119 sec  (  5.4%)
Orbital Transformation      ....       0.000 sec  (  0.0%)
Orbital Orthonormalization  ....       0.000 sec  (  0.0%)
DIIS solution               ....       0.164 sec  (  7.4%)


           ************************************************************
           *        Program running with 10 parallel MPI-processes    *
           *              working on a common directory               *
           ************************************************************


------------------------------------------------------------------------------- 
                              ORCA-MATRIX DRIVEN CI                            
------------------------------------------------------------------------------- 

--------------------------------
AUTOMATIC CHOICE OF INCORE LEVEL
--------------------------------

Memory available                           ...   2500.00 MB
Memory needed for S+T                      ...      0.85 MB
Memory needed for J+K                      ...      1.71 MB
Memory needed for DIIS                     ...     11.92 MB
Memory needed for 3-ext                    ...      6.93 MB
Memory needed for 4-ext                    ...     53.68 MB
Memory needed for triples                  ...      8.66 MB
 -> Final InCoreLevel    ... 5
 -> check shows that triples correction can be computed


Wavefunction type
-----------------
Correlation treatment                      ...      CCSD     
Single excitations                         ... ON
Orbital optimization                       ... OFF
Calculation of Z vector                    ... OFF
Calculation of Brueckner orbitals          ... OFF
Perturbative triple excitations            ... ON
Calculation of F12 correction              ... OFF
Frozen core treatment                      ... chemical core (10 el)
Reference Wavefunction                     ... UHF
  Alpha-MOs occ    :     5 ...    8 (  4 MO's/  4 electrons)
  Beta-MOs occ     :     5 ...    5 (  1 MO's/  1 electrons)
  Alpha-MOs virt   :     9 ...   69 ( 61 MO's              )
  Beta-MOs virt    :     6 ...   69 ( 64 MO's              )
Number of AO's                             ...     70
Number of electrons                        ...     15
Number of correlated electrons             ...      5

Algorithmic settings
--------------------
Integral transformation                    ... AO direct full transformation
K(C) Formation                             ... FULL-MO TRAFO
Maximum number of iterations               ...        50
Convergence tolerance (max. residuum)      ... 1.000e-05
Level shift for amplitude update           ... 2.000e-01
Maximum number of DIIS vectors             ...         7
DIIS turned on at iteration                ...         0
Damping before turning on DIIS             ...     0.500
Damping after turning on DIIS              ...     0.000
Pair specific amplitude update             ... OFF
Natural orbital iterations                 ... OFF
Perturbative natural orbital generation    ... OFF
Printlevel                                 ... 2

Memory handling:
----------------
Maximum memory for working arrays          ...   2500 MB
Data storage in matrix containers          ... UNCOMPRESSED
Data type for integral storage             ... DOUBLE
In-Core Storage of quantities:
   Amplitudes+Sigma Vector      ... YES
   J+K operators                ... YES
   DIIS vectors                 ... YES
   3-external integrals         ... YES
   4-external integrals         ... YES


Initializing the integral package          ... done
Warning: reference  - re-canonicalizations have been set to INT 1 VIRT 1

--------------------------
UNRESTRICTED FOCK OPERATOR
--------------------------

<ss|ss>:         1035 b            0 skpd (  0.0%)    0.001 s ( 0.001 ms/b)
<ss|sp>:         2430 b            0 skpd (  0.0%)    0.002 s ( 0.001 ms/b)
<ss|sd>:         1620 b            0 skpd (  0.0%)    0.000 s ( 0.000 ms/b)
<ss|sf>:          810 b            0 skpd (  0.0%)    0.000 s ( 0.000 ms/b)
<ss|sg>:          405 b            0 skpd (  0.0%)    0.000 s ( 0.001 ms/b)
<ss|pp>:          945 b            0 skpd (  0.0%)    0.002 s ( 0.002 ms/b)
<ss|pd>:         1080 b            0 skpd (  0.0%)    0.000 s ( 0.000 ms/b)
<ss|pf>:          540 b            0 skpd (  0.0%)    0.000 s ( 0.001 ms/b)
<ss|pg>:          270 b            0 skpd (  0.0%)    0.001 s ( 0.002 ms/b)
<ss|dd>:          450 b            0 skpd (  0.0%)    0.000 s ( 0.000 ms/b)
<ss|df>:          360 b            0 skpd (  0.0%)    0.000 s ( 0.000 ms/b)
<ss|dg>:          180 b            0 skpd (  0.0%)    0.000 s ( 0.001 ms/b)
<ss|ff>:          135 b            0 skpd (  0.0%)    0.000 s ( 0.002 ms/b)
<ss|fg>:           90 b            0 skpd (  0.0%)    0.000 s ( 0.004 ms/b)
<ss|gg>:           45 b            0 skpd (  0.0%)    0.000 s ( 0.009 ms/b)
<sp|sp>:         1485 b            0 skpd (  0.0%)    0.002 s ( 0.001 ms/b)
<sp|sd>:         1944 b            0 skpd (  0.0%)    0.001 s ( 0.000 ms/b)
<sp|sf>:          972 b            0 skpd (  0.0%)    0.001 s ( 0.001 ms/b)
<sp|sg>:          486 b            0 skpd (  0.0%)    0.001 s ( 0.002 ms/b)
<sp|pp>:         1134 b            0 skpd (  0.0%)    0.003 s ( 0.003 ms/b)
<sp|pd>:         1296 b            0 skpd (  0.0%)    0.001 s ( 0.001 ms/b)
<sp|pf>:          648 b            0 skpd (  0.0%)    0.001 s ( 0.002 ms/b)
<sp|pg>:          324 b            0 skpd (  0.0%)    0.001 s ( 0.004 ms/b)
<sp|dd>: done
<sp|df>: done
<sp|dg>: done
<sp|ff>: done
<sp|fg>: done
<sp|gg>: done
<sd|sd>:          666 b            0 skpd (  0.0%)    0.000 s ( 0.000 ms/b)
<sd|sf>:          648 b            0 skpd (  0.0%)    0.000 s ( 0.001 ms/b)
<sd|sg>:          324 b            1 skpd (  0.3%)    0.001 s ( 0.002 ms/b)
<sd|pp>:          756 b            0 skpd (  0.0%)    0.002 s ( 0.002 ms/b)
<sd|pd>: done
<sd|pf>: done
<sd|pg>: done
<sd|dd>: done
<sd|df>: done
<sd|dg>: done
<sd|ff>: done
<sd|fg>: done
<sd|gg>: done
<sf|sf>:          171 b            2 skpd (  1.2%)    0.000 s ( 0.001 ms/b)
<sf|sg>:          162 b            3 skpd (  1.9%)    0.001 s ( 0.003 ms/b)
<sf|pp>:          378 b            0 skpd (  0.0%)    0.002 s ( 0.005 ms/b)
<sf|pd>: done
<sf|pf>: done
<sf|pg>: done
<sf|dd>: done
<sf|df>: done
<sf|dg>: done
<sf|ff>: done
<sf|fg>: done
<sf|gg>: done
<sg|sg>:           45 b            2 skpd (  4.4%)    0.000 s ( 0.006 ms/b)
<sg|pp>:          189 b            0 skpd (  0.0%)    0.002 s ( 0.009 ms/b)
<sg|pd>: done
<sg|pf>: done
<sg|pg>: done
<sg|dd>: done
<sg|df>: done
<sg|dg>: done
<sg|ff>: done
<sg|fg>: done
<sg|gg>: done
<pp|pp>:          231 b            0 skpd (  0.0%)    0.003 s ( 0.011 ms/b)
<pp|pd>:          504 b            0 skpd (  0.0%)    0.001 s ( 0.002 ms/b)
<pp|pf>:          252 b            0 skpd (  0.0%)    0.001 s ( 0.005 ms/b)
<pp|pg>:          126 b            0 skpd (  0.0%)    0.002 s ( 0.014 ms/b)
<pp|dd>:          210 b            0 skpd (  0.0%)    0.000 s ( 0.001 ms/b)
<pp|df>:          168 b            0 skpd (  0.0%)    0.001 s ( 0.003 ms/b)
<pp|dg>:           84 b            0 skpd (  0.0%)    0.001 s ( 0.009 ms/b)
<pp|ff>:           63 b            0 skpd (  0.0%)    0.001 s ( 0.012 ms/b)
<pp|fg>:           42 b            0 skpd (  0.0%)    0.001 s ( 0.027 ms/b)
<pp|gg>:           21 b            0 skpd (  0.0%)    0.002 s ( 0.073 ms/b)
<pd|pd>:          300 b            0 skpd (  0.0%)    0.001 s ( 0.003 ms/b)
<pd|pf>:          288 b            0 skpd (  0.0%)    0.002 s ( 0.005 ms/b)
<pd|pg>:          144 b            0 skpd (  0.0%)    0.002 s ( 0.014 ms/b)
<pd|dd>: done
<pd|df>: done
<pd|dg>: done
<pd|ff>: done
<pd|fg>: done
<pd|gg>: done
<pf|pf>:           78 b            0 skpd (  0.0%)    0.001 s ( 0.008 ms/b)
<pf|pg>:           72 b            0 skpd (  0.0%)    0.002 s ( 0.027 ms/b)
<pf|dd>: done
<pf|df>: done
<pf|dg>: done
<pf|ff>: done
<pf|fg>: done
<pf|gg>: done
<pg|pg>:           21 b            0 skpd (  0.0%)    0.001 s ( 0.046 ms/b)
<pg|dd>: done
<pg|df>: done
<pg|dg>: done
<pg|ff>: done
<pg|fg>: done
<pg|gg>: done
<dd|dd>: done
<dd|df>: done
<dd|dg>: done
<dd|ff>: done
<dd|fg>: done
<dd|gg>: done
<df|df>: done
<df|dg>: done
<df|ff>: done
<df|fg>: done
<df|gg>: done
<dg|dg>: done
<dg|ff>: done
<dg|fg>: done
<dg|gg>: done
<ff|ff>: done
<ff|fg>: done
<ff|gg>: done
<fg|fg>: done
<fg|gg>: done
<gg|gg>: done
Recanonicalizing the internal orbitals
Recanonicalizing the virtual orbitals
Time needed for Fock operator              ...            0.076 sec
Reference energy                           ...   -340.719044379
Warning: for UHF the TrafoType has to be JK
Warning: for UHF the K(C)-option cannot be MO but must be AOX

-------------------------------
PARTIAL EXCHANGE TRANSFORMATION
-------------------------------

Transformation type                        ... two-operators
Generation of integrals (i,mue|j,nue)      ... ON
Generation of integrals (mue,kappa|nue,tau)... ON
Generation of integrals (i,mue|a,nue)      ... ON
Dimension of the basis                     ...   70
Number of internal alpha-MOs               ...    4 (   5-   8)
Number of internal beta-MOs                ...    1 (   5-   5)
Number of external alpha-MOs               ...   61 (   9-  69)
Number of external beta-MOs                ...   64 (   6-  69)
Pair cutoff                                ... 0.000e+00 Eh
Number of AO pairs in the trafo            ... 2485
Total Number of distinct AO pairs          ... 2485
Memory devoted for trafo                   ... 2500.0 MB 
Max. Number of MO pairs treated together   ... 66873      
Number Format for Storage                  ... Double (8 Byte)
Integral package used                      ... LIBINT

Starting integral evaluation:
    ... done with AO integral generation
Closing buffer AOK[aa] ( 0.00 GB; CompressionRatio= 0.91)
Closing buffer AOK[bb] ( 0.00 GB; CompressionRatio= 0.40)
Closing buffer AOK[ab] ( 0.00 GB; CompressionRatio= 0.73)
Closing buffer AOK[ba] ( 0.00 GB; CompressionRatio= 0.73)
Collecting buffer AOK 
Closing buffer IAAO1[aa] ( 0.00 GB; CompressionRatio= 0.99)
Closing buffer IAAO1[bb] ( 0.00 GB; CompressionRatio= 0.98)
Closing buffer IAAO1[ab] ( 0.00 GB; CompressionRatio= 0.99)
Closing buffer IAAO1[ba] ( 0.00 GB; CompressionRatio= 0.98)
Closing buffer IAAO2[aa] ( 0.00 GB; CompressionRatio= 0.99)
Closing buffer IAAO2[bb] ( 0.00 GB; CompressionRatio= 0.98)
Closing buffer IAAO2[ab] ( 0.00 GB; CompressionRatio= 0.99)
Closing buffer IAAO2[ba] ( 0.00 GB; CompressionRatio= 0.98)
Collecting buffer IAAO 
Closing buffer PRQS    ( 0.01 GB; CompressionRatio= 1.00)
Collecting buffer PRQS 
Number of alpha/alpha MO pairs in trafo    ...   10
Number of beta /beta  MO pairs in trafo    ...    1
Number of alpha/ beta MO pairs in trafo    ...    4
------------------------
SORTING OF (i,mue|j,nue)
------------------------

SORTING OF ALPHA/ALPHA PAIRS
IBATCH = 1 of  1
Closing buffer KAO[aa] ( 0.00 GB; CompressionRatio= 1.00)
Collecting buffer KAO 
SORTING OF BETA /BETA  PAIRS
IBATCH = 1 of  1
Closing buffer KAO[bb] ( 0.00 GB; CompressionRatio= 1.00)
Collecting buffer KAO 
SORTING OF ALPHA/BETA  PAIRS
IBATCH = 1 of  1
Closing buffer KAO[ab] ( 0.00 GB; CompressionRatio= 0.999693971233)
Collecting buffer KAO[ab] 
------------------------
SORTING OF (i,mue|a,nue)
------------------------

Number of alpha/alpha (i,a) pairs in trafo  ...  244
Number of beta /beta  (i,a) pairs in trafo  ...   64
Number of alpha/ beta (i,a) pairs in trafo  ...  256
Number of beta /alpha (i,a) pairs in trafo  ...   61
Setting up the alpha/alpha list             ... done
Setting up the beta /beta  list             ... done
Setting up the alpha/beta  list             ... done
Setting up the beta /alpha list             ... done
    ... Now sorting (i,mue|a,nue)integrals
    ... Integrals (i,b|a,c) will be made on the fly
SORTING OF ALPHA/ALPHA PAIRS
IBATCH = 1 of  1
Closing buffer IPAQ[aa]  0.00 GB; CompressionRatio= 1.00)
SORTING OF BETA /BETA  PAIRS
IBATCH = 1 of  1
Closing buffer IPAQ[bb]( 0.00 GB; CompressionRatio= 1.00)
SORTING OF ALPHA/BETA  PAIRS (NMatSort_ab=26)
IBATCH = 1 of  1
Closing buffer IPAQ[ab]( 0.00 GB; CompressionRatio= 1.00)
SORTING OF BETA/ALPHA  PAIRS
IBATCH = 1 of  1
Closing buffer IPAQ[ba]( 0.00 GB; CompressionRatio= 1.00)
N(AO-Batches) Done                         ...      7744 
N(AO-Batches) Skipped                      ...         0 
N(IJ)-pairs Skipped                        ...         0 
TOTAL TIME for half transformation         ...     3.950 sec
AO-integral generation                     ...     0.148 sec
Half transformation                        ...     1.484 sec
K-integral sorting                         ...     0.443 sec
<ss|**>: 
------------------------------
PARTIAL COULOMB TRANSFORMATION
------------------------------

Transformation type                        ... two-operators
Dimension of the basis                     ...   70
Number of internal alpha-MOs               ...    4 (5-8)
Number of internal beta-MOs                ...    1 (5-5)
Pair cutoff                                ... 0.000e+00 Eh
Number of AO pairs included in the trafo   ... 2485
Total Number of distinct AO pairs          ... 2485
Memory devoted for trafo                   ... 2500.0 MB 
Max. Number of MO pairs treated together   ... 131863      
Max. Number of MOs treated per batch       ... 1883      
Number Format for Storage                  ... Double (8 Byte)
AO-integral source                         ... DIRECT
Integral package used                      ... LIBINT

Starting integral evaluation:
<sp|**>:        11385 b        0 skpd     0.016 s (  0.001 ms/b)
<sd|**>:        13662 b        0 skpd     0.039 s (  0.003 ms/b)
        9108 b        0 skpd     0.042 s (  0.005 ms/b)
<sf|**>:         4554 b        0 skpd     0.035 s (  0.008 ms/b)
<sg|**>:         2277 b        0 skpd     0.025 s (  0.011 ms/b)
<pp|**>:         5313 b        0 skpd     0.048 s (  0.009 ms/b)
<pd|**>:         6072 b        0 skpd     0.080 s (  0.013 ms/b)
<pf|**>:         3036 b        0 skpd     0.075 s (  0.025 ms/b)
<pg|**>:         1518 b        0 skpd     0.041 s (  0.027 ms/b)
<dd|**>:         2530 b        0 skpd     0.040 s (  0.016 ms/b)
<df|**>:         2024 b        0 skpd     0.058 s (  0.028 ms/b)
<dg|**>:         1012 b        0 skpd     0.054 s (  0.054 ms/b)
<ff|**>:          759 b        0 skpd     0.053 s (  0.070 ms/b)
<fg|**>:          506 b        0 skpd     0.058 s (  0.114 ms/b)
<gg|**>:          253 b        0 skpd     0.045 s (  0.178 ms/b)
Closing buffer AOJ[aa] ( 0.00 GB; CompressionRatio= 0.87)
Closing buffer AOJ[bb] ( 0.00 GB; CompressionRatio= 0.00)
Collecting buffer AOJ 
    ... done with AO integral generation
Number of Alpha-MO pairs included          ...   10
Number of Beta-MO pairs included           ...    1
    ... Now sorting integrals
SORTING ALPHA/ALPHA PAIRS
IBATCH = 1 of  1
Closing buffer JAO[aa] ( 0.00 GB; CompressionRatio= 1.00)
SORTING BETA/BETA PAIRS
IBATCH = 1 of  1
Closing buffer JAO[bb] ( 0.00 GB; CompressionRatio= 1.00)
Collecting buffer JAO 
TOTAL TIME for half transformation         ...     0.770 sec
AO-integral generation                     ...     0.420 sec
Half transformation                        ...     0.290 sec
J-integral sorting                         ...     0.044 sec

-------------------------- SECOND HALF TRANSFORMATION -------------------------
Formation of (ij|kl),(ij|ka), (ij|ab)      ... ok (     0.065 sec)
Formation of (ik|jl),(ik|ja), (ia|jb)      ... ok (     0.228 sec)


-----------------------
SPIN UNRESTRICTED GUESS
-----------------------

Entering MDCI_UHF_Guess, Tailored=0
Spin-components of the MP2 energy:
EMP2(aa)=     -0.023931590
EMP2(bb)=      0.000000000
EMP2(ab)=     -0.065713250

Initial guess performed in     0.001 sec
E(0)                                       ...   -340.719044379
E(MP2)                                     ...     -0.089644839
Initial E(tot)                             ...   -340.808689218
<T|T>                                      ...      0.045043703
Number of pairs included                   ... 10

------------------------------------------------
                  UHF COUPLED CLUSTER ITERATIONS
------------------------------------------------

Number of amplitudes to be optimized       ...        26930

Iter       E(tot)           E(Corr)          Delta-E          Residual     Time      <S|S>**1/2
  0   -340.808689218     -0.089644839     -0.000000000      0.009941193    0.21      0.000000272
                           *** Turning on DIIS ***
  1   -340.819378543     -0.100334163     -0.010689324      0.003972714    0.13      0.007770371
  2   -340.824126100     -0.105081721     -0.004747558      0.000742006    0.12      0.011884252
  3   -340.824391092     -0.105346713     -0.000264992      0.000230457    0.12      0.012340873
  4   -340.824433135     -0.105388756     -0.000042043      0.000075789    0.13      0.012346704
  5   -340.824440344     -0.105395965     -0.000007209      0.000021386    0.13      0.012316018
  6   -340.824439285     -0.105394906      0.000001059      0.000007553    0.12      0.012306579
               --- The Coupled-Cluster iterations have converged ---

----------------------
COUPLED CLUSTER ENERGY
----------------------

E(0)                                       ...   -340.719044379
E(CORR)                                    ...     -0.105394906
E(TOT)                                     ...   -340.824439285
Singles norm <S|S>**1/2                    ...      0.012306579 ( 0.010200817, 0.002105762)  
T1 diagnostic                              ...      0.005503670                              

------------------
LARGEST AMPLITUDES
------------------
   7a-> 16a   5b->  6b       0.049551
   7a-> 13a   5b->  7b       0.041596
   6a-> 15a   5b->  8b       0.041074
   7a-> 14a   5b->  8b       0.037359
   8a-> 17a   5b->  7b       0.036216
   6a-> 14a   5b->  7b       0.033520
   8a-> 15a   5b->  6b       0.033455
   8a-> 16a   5b->  8b       0.032348
   6a-> 17a   5b->  6b       0.031325
   8a-> 13a   5b->  8b       0.029972
   8a-> 17a   6a-> 15a       0.026920
   8a-> 15a   6a-> 17a       0.026920
   6a-> 13a   5b->  7b       0.026890
   8a-> 14a   5b->  6b       0.026190
   6a-> 13a   5b->  6b       0.026076
   8a-> 14a   7a-> 16a       0.025902

----------------------
UHF TRIPLES CORRECTION (Algorithm 1)
----------------------

Multiplier for the singles contribution    ...      1.000000000

SPIN-CASE Alpha-Alpha-Alpha:
10% done
20% done
30% done
40% done
50% done
60% done
70% done
80% done
90% done


SPIN-CASE Beta-Beta-Beta:

SPIN-CASE Alpha-Alpha-Beta:
10% done
20% done
30% done
40% done
50% done
60% done
70% done
80% done
90% done


SPIN-CASE Beta-Beta-Alpha:

Triples Correction (T)                     ...     -0.004607957
    alpha-alpha-alpha ... -0.000356929 (  7.7%)
    alpha-alpha-beta  ... -0.004251028 ( 92.3%)
    alpha-beta -beta  ...  0.000000000 ( -0.0%)
    beta -beta -beta  ...  0.000000000 ( -0.0%)
Scaling of triples based on CCSD energies (Peterson et al. Molecular Physics 113, 1551 (2015))
E(T*) = f*E(T) where f = E(F12-CCSD)/E(CCSD) 
f = CCSD (with F12)/ CCSD (without F12)    ...      1.000000000
Scaled triples correction (T)              ...     -0.004607957

Final correlation energy                   ...     -0.110002863
E(CCSD)                                    ...   -340.824439285
E(CCSD(T))                                 ...   -340.829047242



        !!!!!!!!!!!!!!!!!!!!!!!!!!!!!!!!!!!!!!!!!!!!!!!!!!!!!!!!!!!!!!!!!!!!!!!!!! 
        !  Warning: Densities are linearized densities                           !
        !!!!!!!!!!!!!!!!!!!!!!!!!!!!!!!!!!!!!!!!!!!!!!!!!!!!!!!!!!!!!!!!!!!!!!!!!! 

NORM  =      1.068121167 sqrt=     1.033499476
W(HF) =      0.936223371
------------------------------------------------------------------------------
                           ORCA POPULATION ANALYSIS
------------------------------------------------------------------------------
Input electron density              ... 15_P.mdcip
Input spin density                  ... 15_P.mdcir
BaseName (.gbw .S,...)              ... 15_P

                    ********************************
                    * MULLIKEN POPULATION ANALYSIS *
                    ********************************

------------------------------------------
MULLIKEN ATOMIC CHARGES AND SPIN DENSITIES
------------------------------------------
   0 P :   -0.000000    3.000000
Sum of atomic charges       :   -0.0000000
Sum of atomic spin densities:    3.0000000

---------------------------------------------------
MULLIKEN REDUCED ORBITAL CHARGES AND SPIN DENSITIES
---------------------------------------------------
CHARGE
  0 P s       :     5.942794  s :     5.942794
      pz      :     2.993455  p :     8.980366
      px      :     2.993455
      py      :     2.993455
      dz2     :     0.014256  d :     0.071282
      dxz     :     0.014256
      dyz     :     0.014256
      dx2y2   :     0.014256
      dxy     :     0.014256
      f0      :     0.000736  f :     0.005153
      f+1     :     0.000736
      f-1     :     0.000736
      f+2     :     0.000736
      f-2     :     0.000736
      f+3     :     0.000736
      f-3     :     0.000736
      g0      :     0.000045  g :     0.000405
      g+1     :     0.000045
      g-1     :     0.000045
      g+2     :     0.000045
      g-2     :     0.000045
      g+3     :     0.000045
      g-3     :     0.000045
      g+4     :     0.000045
      g-4     :     0.000045

SPIN
  0 P s       :     0.042842  s :     0.042842
      pz      :     0.965228  p :     2.895684
      px      :     0.965228
      py      :     0.965228
      dz2     :     0.011905  d :     0.059525
      dxz     :     0.011905
      dyz     :     0.011905
      dx2y2   :     0.011905
      dxy     :     0.011905
      f0      :     0.000255  f :     0.001782
      f+1     :     0.000255
      f-1     :     0.000255
      f+2     :     0.000255
      f-2     :     0.000255
      f+3     :     0.000255
      f-3     :     0.000255
      g0      :     0.000018  g :     0.000166
      g+1     :     0.000018
      g-1     :     0.000018
      g+2     :     0.000018
      g-2     :     0.000018
      g+3     :     0.000018
      g-3     :     0.000018
      g+4     :     0.000018
      g-4     :     0.000018


                     *******************************
                     * LOEWDIN POPULATION ANALYSIS *
                     *******************************

-----------------------------------------
LOEWDIN ATOMIC CHARGES AND SPIN DENSITIES
-----------------------------------------
   0 P :   -0.000000    3.000000

--------------------------------------------------
LOEWDIN REDUCED ORBITAL CHARGES AND SPIN DENSITIES
--------------------------------------------------
CHARGE
  0 P s       :     5.942794  s :     5.942794
      pz      :     2.993455  p :     8.980366
      px      :     2.993455
      py      :     2.993455
      dz2     :     0.014256  d :     0.071282
      dxz     :     0.014256
      dyz     :     0.014256
      dx2y2   :     0.014256
      dxy     :     0.014256
      f0      :     0.000736  f :     0.005153
      f+1     :     0.000736
      f-1     :     0.000736
      f+2     :     0.000736
      f-2     :     0.000736
      f+3     :     0.000736
      f-3     :     0.000736
      g0      :     0.000045  g :     0.000405
      g+1     :     0.000045
      g-1     :     0.000045
      g+2     :     0.000045
      g-2     :     0.000045
      g+3     :     0.000045
      g-3     :     0.000045
      g+4     :     0.000045
      g-4     :     0.000045

SPIN
  0 P s       :     0.042842  s :     0.042842
      pz      :     0.965228  p :     2.895684
      px      :     0.965228
      py      :     0.965228
      dz2     :     0.011905  d :     0.059525
      dxz     :     0.011905
      dyz     :     0.011905
      dx2y2   :     0.011905
      dxy     :     0.011905
      f0      :     0.000255  f :     0.001782
      f+1     :     0.000255
      f-1     :     0.000255
      f+2     :     0.000255
      f-2     :     0.000255
      f+3     :     0.000255
      f-3     :     0.000255
      g0      :     0.000018  g :     0.000166
      g+1     :     0.000018
      g-1     :     0.000018
      g+2     :     0.000018
      g-2     :     0.000018
      g+3     :     0.000018
      g-3     :     0.000018
      g+4     :     0.000018
      g-4     :     0.000018


                      *****************************
                      * MAYER POPULATION ANALYSIS *
                      *****************************

  NA   - Mulliken gross atomic population
  ZA   - Total nuclear charge
  QA   - Mulliken gross atomic charge
  VA   - Mayer's total valence
  BVA  - Mayer's bonded valence
  FA   - Mayer's free valence

  ATOM       NA         ZA         QA         VA         BVA        FA
  0 P     15.0000    15.0000    -0.0000     3.3128     0.0000     3.3128





------------------------------------------------------------------------------- 
                                     TIMINGS                                   
------------------------------------------------------------------------------- 


Total execution time                   ...        6.719 sec

Fock Matrix Formation                  ...        0.076 sec (  1.1%)
Initial Guess                          ...        0.001 sec (  0.0%)
DIIS Solver                            ...        0.012 sec (  0.2%)
State Vector Update                    ...        0.001 sec (  0.0%)
Sigma-vector construction              ...        0.952 sec ( 14.2%)
  <D|H|D>(2-ext)                       ...        0.002 sec (  0.3% of sigma)
  <D|H|D>(4-ext)                       ...        0.619 sec ( 65.0% of sigma)
  <S|H|0>                              ...        0.008 sec (  0.8% of sigma)
  <D|H|S>(1-ext)                       ...        0.003 sec (  0.3% of sigma)
  Fock-dressing                        ...        0.203 sec ( 21.4% of sigma)
  (ij|ab),(ia|jb)-dressing             ...        0.076 sec (  8.0% of sigma)
Total Time for computing (T)           ...        0.038 sec (  0.6% of ALL)
  I/O of integral and amplitudes       ...        0.015 sec ( 40.0% of (T))
  External N**7 contributions          ...        0.005 sec ( 13.4% of (T))
  Internal N**7 contributions          ...        0.002 sec (  4.2% of (T))
  N**6 triples energy contributions    ...        0.006 sec ( 15.4% of (T))


-------------------------   --------------------
FINAL SINGLE POINT ENERGY      -340.829047241763
-------------------------   --------------------


                            ***************************************
                            *     ORCA property calculations      *
                            ***************************************

                                    ---------------------
                                    Active property flags
                                    ---------------------
   (+) Dipole Moment


------------------------------------------------------------------------------
                       ORCA ELECTRIC PROPERTIES CALCULATION
------------------------------------------------------------------------------

Dipole Moment Calculation                       ... on
Quadrupole Moment Calculation                   ... off
Polarizability Calculation                      ... off
GBWName                                         ... 15_P.gbw
Electron density file                           ... 15_P.scfp
The origin for moment calculation is the CENTER OF MASS  = ( 0.000000,  0.000000  0.000000)

-------------
DIPOLE MOMENT
-------------
                                X             Y             Z
Electronic contribution:      0.00000       0.00000       0.00000
Nuclear contribution   :      0.00000       0.00000       0.00000
                        -----------------------------------------
Total Dipole Moment    :      0.00000       0.00000       0.00000
                        -----------------------------------------
Magnitude (a.u.)       :      0.00000
Magnitude (Debye)      :      0.00000



--------------------
Rotational spectrum 
--------------------
 
Rotational constants in cm-1:     0.000000     0.000000     0.000000 
Rotational constants in MHz :     0.000000     0.000000     0.000000 

 Dipole components along the rotational axes: 
x,y,z [a.u.] :     0.000000     0.000000     0.000000 
x,y,z [Debye]:     0.000000     0.000000     0.000000 

 

                           *** MDCI DENSITY ***

------------------------------------------------------------------------------
                       ORCA ELECTRIC PROPERTIES CALCULATION
------------------------------------------------------------------------------

Dipole Moment Calculation                       ... on
Quadrupole Moment Calculation                   ... off
Polarizability Calculation                      ... off
GBWName                                         ... 15_P.gbw
Electron density file                           ... 15_P.mdcip
The origin for moment calculation is the CENTER OF MASS  = ( 0.000000,  0.000000  0.000000)

-------------
DIPOLE MOMENT
-------------
                                X             Y             Z
Electronic contribution:     -0.00000      -0.00000      -0.00000
Nuclear contribution   :      0.00000       0.00000       0.00000
                        -----------------------------------------
Total Dipole Moment    :     -0.00000      -0.00000      -0.00000
                        -----------------------------------------
Magnitude (a.u.)       :      0.00000
Magnitude (Debye)      :      0.00000



--------------------
Rotational spectrum 
--------------------
 
Rotational constants in cm-1:     0.000000     0.000000     0.000000 
Rotational constants in MHz :     0.000000     0.000000     0.000000 

 Dipole components along the rotational axes: 
x,y,z [a.u.] :    -0.000000    -0.000000    -0.000000 
x,y,z [Debye]:    -0.000000    -0.000000    -0.000000 

 

Timings for individual modules:

Sum of individual times         ...       10.224 sec (=   0.170 min)
GTO integral calculation        ...        0.606 sec (=   0.010 min)   5.9 %
SCF iterations                  ...        2.519 sec (=   0.042 min)  24.6 %
MDCI module                     ...        7.098 sec (=   0.118 min)  69.4 %
                             ****ORCA TERMINATED NORMALLY****
TOTAL RUN TIME: 0 days 0 hours 0 minutes 10 seconds 852 msec
