
                                 *****************
                                 * O   R   C   A *
                                 *****************

           --- An Ab Initio, DFT and Semiempirical electronic structure package ---

                  #######################################################
                  #                        -***-                        #
                  #          Department of theory and spectroscopy      #
                  #               Directorship: Frank Neese             #
                  #        Max Planck Institute fuer Kohlenforschung    #
                  #                Kaiser Wilhelm Platz 1               #
                  #                 D-45470 Muelheim/Ruhr               #
                  #                      Germany                        #
                  #                                                     #
                  #                  All rights reserved                #
                  #                        -***-                        #
                  #######################################################


                         Program Version 4.2.0 -  RELEASE  -


 With contributions from (in alphabetic order):
   Daniel Aravena         : Magnetic Suceptibility
   Michael Atanasov       : Ab Initio Ligand Field Theory (pilot matlab implementation)
   Alexander A. Auer      : GIAO ZORA, VPT2
   Ute Becker             : Parallelization
   Giovanni Bistoni       : ED, misc. LED, open-shell LED, HFLED
   Martin Brehm           : Molecular dynamics
   Dmytro Bykov           : SCF Hessian
   Vijay G. Chilkuri      : MRCI spin determinant printing, contributions to CSF-ICE
   Dipayan Datta          : RHF DLPNO-CCSD density
   Achintya Kumar Dutta   : EOM-CC, STEOM-CC
   Dmitry Ganyushin       : Spin-Orbit,Spin-Spin,Magnetic field MRCI
   Miquel Garcia          : C-PCM Hessian, Gaussian charge scheme
   Yang Guo               : DLPNO-NEVPT2, CIM, IAO-localization
   Andreas Hansen         : Spin unrestricted coupled pair/coupled cluster methods
   Benjamin Helmich-Paris : CASSCF linear response (MC-RPA)
   Lee Huntington         : MR-EOM, pCC
   Robert Izsak           : Overlap fitted RIJCOSX, COSX-SCS-MP3, EOM
   Christian Kollmar      : KDIIS, OOCD, Brueckner-CCSD(T), CCSD density
   Simone Kossmann        : Meta GGA functionals, TD-DFT gradient, OOMP2, MP2 Hessian
   Martin Krupicka        : AUTO-CI
   Lucas Lang             : DCDCAS
   Dagmar Lenk            : GEPOL surface, SMD
   Dimitrios Liakos       : Extrapolation schemes; Compound Job, initial MDCI parallelization
   Dimitrios Manganas     : Further ROCIS development; embedding schemes
   Dimitrios Pantazis     : SARC Basis sets
   Taras Petrenko         : DFT Hessian,TD-DFT gradient, ASA, ECA, R-Raman, ABS, FL, XAS/XES, NRVS
   Peter Pinski           : DLPNO-MP2, DLPNO-MP2 Gradient
   Christoph Reimann      : Effective Core Potentials
   Marius Retegan         : Local ZFS, SOC
   Christoph Riplinger    : Optimizer, TS searches, QM/MM, DLPNO-CCSD(T), (RO)-DLPNO pert. Triples
   Tobias Risthaus        : Range-separated hybrids, TD-DFT gradient, RPA, STAB
   Michael Roemelt        : Original ROCIS implementation
   Masaaki Saitow         : Open-shell DLPNO-CCSD energy and density
   Barbara Sandhoefer     : DKH picture change effects
   Avijit Sen             : IP-ROCIS
   Kantharuban Sivalingam : CASSCF convergence, NEVPT2, FIC-MRCI
   Bernardo de Souza      : ESD, SOC TD-DFT
   Georgi Stoychev        : AutoAux, RI-MP2 NMR
   Willem Van den Heuvel  : Paramagnetic NMR
   Boris Wezisla          : Elementary symmetry handling
   Frank Wennmohs         : Technical directorship


 We gratefully acknowledge several colleagues who have allowed us to
 interface, adapt or use parts of their codes:
   Stefan Grimme, W. Hujo, H. Kruse,             : VdW corrections, initial TS optimization,
                  C. Bannwarth                     DFT functionals, gCP, sTDA/sTD-DF
   Ed Valeev, F. Pavosevic, A. Kumar             : LibInt (2-el integral package), F12 methods
   Garnet Chan, S. Sharma, J. Yang, R. Olivares  : DMRG
   Ulf Ekstrom                                   : XCFun DFT Library
   Mihaly Kallay                                 : mrcc  (arbitrary order and MRCC methods)
   Andreas Klamt, Michael Diedenhofen            : otool_cosmo (COSMO solvation model)
   Jiri Pittner, Ondrej Demel                    : Mk-CCSD
   Frank Weinhold                                : gennbo (NPA and NBO analysis)
   Christopher J. Cramer and Donald G. Truhlar   : smd solvation model
   Lars Goerigk                                  : TD-DFT with DH, B97 family of functionals
   V. Asgeirsson, H. Jonsson                     : NEB implementation
   FAccTs GmbH                                   : IRC, NEB, NEB-TS, Multilevel, MM, QM/MM, CI optimization
   S Lehtola, MJT Oliveira, MAL Marques          : LibXC Library


 Your calculation uses the libint2 library for the computation of 2-el integrals
 For citations please refer to: http://libint.valeyev.net

 Your ORCA version has been built with support for libXC version: 4.2.3
 For citations please refer to: https://tddft.org/programs/libxc/

 This ORCA versions uses:
   CBLAS   interface :  Fast vector & matrix operations
   LAPACKE interface :  Fast linear algebra routines
   SCALAPACK package :  Parallel linear algebra routines


----- Orbital basis set information -----
Your calculation utilizes the basis: def2-QZVP
   F. Weigend and R. Ahlrichs, Phys. Chem. Chem. Phys. 7, 3297 (2005).

================================================================================
                                        WARNINGS
                       Please study these warnings very carefully!
================================================================================


WARNING: your system is open-shell and RHF/RKS was chosen
  ===> : WILL SWITCH to UHF/UKS


WARNING: MDCI localization with Augmented Hessian Foster-Boys
  ===> : Switching off randomization!

WARNING: Post HF methods need fully converged wavefunctions
  ===> : Setting SCFConvForced true
         You can overwrite this default with %scf ConvForced false 


INFO   : the flag for use of LIBINT has been found!

================================================================================
                                       INPUT FILE
================================================================================
NAME = 19_K.in
|  1> #
|  2> # 19_K CCSD(T)/Def2-QZVP
|  3> #
|  4> ! CCSD(T) Def2-QZVP tightscf
|  5> 
|  6> *xyz 0 2
|  7>  K 0.0 0.0 0.0
|  8> *
|  9> 
| 10> %maxcore 5000 
| 11> 
| 12> %pal
| 13> nprocs 24
| 14> end
| 15> 
| 16> 
| 17>                          ****END OF INPUT****
================================================================================

                       ****************************
                       * Single Point Calculation *
                       ****************************

---------------------------------
CARTESIAN COORDINATES (ANGSTROEM)
---------------------------------
  K      0.000000    0.000000    0.000000

----------------------------
CARTESIAN COORDINATES (A.U.)
----------------------------
  NO LB      ZA    FRAG     MASS         X           Y           Z
   0 K    19.0000    0    39.100    0.000000    0.000000    0.000000

--------------------------------
INTERNAL COORDINATES (ANGSTROEM)
--------------------------------
 K      0   0   0     0.000000000000     0.00000000     0.00000000

---------------------------
INTERNAL COORDINATES (A.U.)
---------------------------
 K      0   0   0     0.000000000000     0.00000000     0.00000000

---------------------
BASIS SET INFORMATION
---------------------
There are 1 groups of distinct atoms

 Group   1 Type K   : 24s18p4d1f contracted to 11s6p4d1f pattern {114111111111/951111/1111/1}

Atom   0K    basis set group =>   1


           ************************************************************
           *        Program running with 24 parallel MPI-processes    *
           *              working on a common directory               *
           ************************************************************
------------------------------------------------------------------------------
                           ORCA GTO INTEGRAL CALCULATION
------------------------------------------------------------------------------

                         BASIS SET STATISTICS AND STARTUP INFO

 # of primitive gaussian shells          ...   47
 # of primitive gaussian functions       ...  105
 # of contracted shells                  ...   22
 # of contracted basis functions         ...   56
 Highest angular momentum                ...    3
 Maximum contraction depth               ...   11
 Integral package used                   ... LIBINT
 Integral threshhold            Thresh   ...  2.500e-11
 Primitive cut-off              TCut     ...  2.500e-12


------------------------------ INTEGRAL EVALUATION ----------------------------


 * One electron integrals 
 Pre-screening matrix                    ... done
 Shell pair data                         ... done (   0.000 sec)



           ************************************************************
           *        Program running with 24 parallel MPI-processes    *
           *              working on a common directory               *
           ************************************************************
-------------------------------------------------------------------------------
                                 ORCA SCF
-------------------------------------------------------------------------------

------------
SCF SETTINGS
------------
Hamiltonian:
 Ab initio Hamiltonian  Method          .... Hartree-Fock(GTOs)


General Settings:
 Integral files         IntName         .... 19_K
 Hartree-Fock type      HFTyp           .... UHF
 Total Charge           Charge          ....    0
 Multiplicity           Mult            ....    2
 Number of Electrons    NEL             ....   19
 Basis Dimension        Dim             ....   56
 Nuclear Repulsion      ENuc            ....      0.0000000000 Eh

Convergence Acceleration:
 DIIS                   CNVDIIS         .... on
   Start iteration      DIISMaxIt       ....    12
   Startup error        DIISStart       ....  0.200000
   # of expansion vecs  DIISMaxEq       ....     5
   Bias factor          DIISBfac        ....   1.050
   Max. coefficient     DIISMaxC        ....  10.000
 Newton-Raphson         CNVNR           .... off
 SOSCF                  CNVSOSCF        .... off
 Level Shifting         CNVShift        .... on
   Level shift para.    LevelShift      ....    0.2500
   Turn off err/grad.   ShiftErr        ....    0.0010
 Zerner damping         CNVZerner       .... off
 Static damping         CNVDamp         .... on
   Fraction old density DampFac         ....    0.7000
   Max. Damping (<1)    DampMax         ....    0.9800
   Min. Damping (>=0)   DampMin         ....    0.0000
   Turn off err/grad.   DampErr         ....    0.1000
 Fernandez-Rico         CNVRico         .... off

SCF Procedure:
 Maximum # iterations   MaxIter         ....   125
 SCF integral mode      SCFMode         .... Direct
   Integral package                     .... LIBINT
 Reset frequency        DirectResetFreq ....    20
 Integral Threshold     Thresh          ....  2.500e-11 Eh
 Primitive CutOff       TCut            ....  2.500e-12 Eh

Convergence Tolerance:
 Convergence Check Mode ConvCheckMode   .... Total+1el-Energy
 Convergence forced     ConvForced      .... 1
 Energy Change          TolE            ....  1.000e-08 Eh
 1-El. energy change                    ....  1.000e-05 Eh
 DIIS Error             TolErr          ....  5.000e-07


Diagonalization of the overlap matrix:
Smallest eigenvalue                        ... 1.365e-03
Time for diagonalization                   ...    0.002 sec
Threshold for overlap eigenvalues          ... 1.000e-08
Number of eigenvalues below threshold      ... 0
Time for construction of square roots      ...    0.012 sec
Total time needed                          ...    0.014 sec

-------------------
DFT GRID GENERATION
-------------------

General Integration Accuracy     IntAcc      ...  4.340
Radial Grid Type                 RadialGrid  ... Gauss-Chebyshev
Angular Grid (max. acc.)         AngularGrid ... Lebedev-110
Angular grid pruning method      GridPruning ... 3 (G Style)
Weight generation scheme         WeightScheme... Becke
Basis function cutoff            BFCut       ...    1.0000e-11
Integration weight cutoff        WCut        ...    1.0000e-14
Grids for H and He will be reduced by one unit

# of grid points (after initial pruning)     ...   2948 (   0.0 sec)
# of grid points (after weights+screening)   ...   2948 (   0.0 sec)
Grid point division into batches done        ...    0.0 sec
Reduced shell lists constructed in    0.0 sec

Total number of grid points                  ...     2948
Total number of batches                      ...       47
Average number of points per batch           ...       62
Average number of grid points per atom       ...     2948
Average number of shells per batch           ...     6.00 (27.27%)
Average number of basis functions per batch  ...    16.67 (29.76%)
Average number of large shells per batch     ...     4.67 (77.78%)
Average number of large basis fcns per batch ...    11.33 (68.00%)
Maximum spatial batch extension              ...  22.57, 27.87, 27.87 au
Average spatial batch extension              ...   0.96,  1.19,  1.19 au

Time for grid setup =    0.057 sec

------------------------------
INITIAL GUESS: MODEL POTENTIAL
------------------------------
Loading Hartree-Fock densities                     ... done
Calculating cut-offs                               ... done
Setting up the integral package                    ... done
Initializing the effective Hamiltonian             ... done
Starting the Coulomb interaction                   ... done (   0.0 sec)
Reading the grid                                   ... done
Mapping shells                                     ... done
Starting the XC term evaluation                    ... done (   0.0 sec)
Transforming the Hamiltonian                       ... done (   0.0 sec)
Diagonalizing the Hamiltonian                      ... done (   0.0 sec)
Back transforming the eigenvectors                 ... done (   0.0 sec)
Now organizing SCF variables                       ... done
                      ------------------
                      INITIAL GUESS DONE (   0.2 sec)
                      ------------------
--------------
SCF ITERATIONS
--------------
ITER       Energy         Delta-E        Max-DP      RMS-DP      [F,P]     Damp
               ***  Starting incremental Fock matrix formation  ***
  0   -599.1508852117   0.000000000000 0.01473704  0.00049105  0.4121265 0.7000
  1   -599.1546973747  -0.003812163002 0.01312551  0.00045598  0.2893126 0.7000
  2   -599.1574733386  -0.002775963878 0.01141849  0.00037487  0.2029779 0.7000
                               ***Turning on DIIS***
  3   -599.1594768100  -0.002003471429 0.00984676  0.00029948  0.1424134 0.7000
  4   -599.1515712237   0.007905586305 0.03460555  0.00090975  0.0999237 0.0000
  5   -599.1644512923  -0.012880068571 0.00999757  0.00021071  0.0020666 0.0000
  6   -599.1697012313  -0.005249939076 0.00802787  0.00018838  0.0014885 0.0000
  7   -599.1700094769  -0.000308245521 0.00937195  0.00017843  0.0010096 0.0000
  8   -599.1700202672  -0.000010790324 0.03186641  0.00047154  0.0006606 0.0000
  9   -599.1678936021   0.002126665084 0.01548587  0.00022634  0.0001846 0.0000
 10   -599.1648746502   0.003018951920 0.00303609  0.00004410  0.0000200 0.0000
 11   -599.1646998586   0.000174791534 0.00096596  0.00001404  0.0000052 0.0000
                            ***DIIS convergence achieved***

               *****************************************************
               *                     SUCCESS                       *
               *           SCF CONVERGED AFTER  12 CYCLES          *
               *****************************************************


----------------
TOTAL SCF ENERGY
----------------

Total Energy       :         -599.16460789 Eh          -16304.09786 eV

Components:
Nuclear Repulsion  :            0.00000000 Eh               0.00000 eV
Electronic Energy  :         -599.16460789 Eh          -16304.09786 eV
One Electron Energy:         -823.79290108 Eh          -22416.54447 eV
Two Electron Energy:          224.62829320 Eh            6112.44661 eV

Virial components:
Potential Energy   :        -1198.32486920 Eh          -32608.07745 eV
Kinetic Energy     :          599.16026131 Eh           16303.97959 eV
Virial Ratio       :            2.00000725


---------------
SCF CONVERGENCE
---------------

  Last Energy change         ...    9.1972e-05  Tolerance :   1.0000e-08
  Last MAX-Density change    ...    1.4010e-04  Tolerance :   1.0000e-07
  Last RMS-Density change    ...    2.0515e-06  Tolerance :   5.0000e-09
  Last DIIS Error            ...    6.2616e-07  Tolerance :   5.0000e-07

             **** THE GBW FILE WAS UPDATED (19_K.gbw) ****
             **** DENSITY FILE WAS UPDATED (19_K.scfp) ****
             **** ENERGY FILE WAS UPDATED (19_K.en.tmp) ****
----------------------
UHF SPIN CONTAMINATION
----------------------

Expectation value of <S**2>     :     0.750198
Ideal value S*(S+1) for S=0.5   :     0.750000
Deviation                       :     0.000198

             **** THE GBW FILE WAS UPDATED (19_K.gbw) ****
             **** DENSITY FILE WAS UPDATED (19_K.scfp) ****
----------------
ORBITAL ENERGIES
----------------
                 SPIN UP ORBITALS
  NO   OCC          E(Eh)            E(eV) 
   0   1.0000    -133.534044     -3633.6461 
   1   1.0000     -14.491227      -394.3263 
   2   1.0000     -11.519811      -313.4700 
   3   1.0000     -11.519811      -313.4700 
   4   1.0000     -11.519811      -313.4700 
   5   1.0000      -1.751166       -47.6517 
   6   1.0000      -0.955128       -25.9903 
   7   1.0000      -0.955128       -25.9903 
   8   1.0000      -0.955128       -25.9903 
   9   1.0000      -0.147642        -4.0175 
  10   0.0000       0.013302         0.3620 
  11   0.0000       0.013302         0.3620 
  12   0.0000       0.013302         0.3620 
  13   0.0000       0.062175         1.6919 
  14   0.0000       0.077438         2.1072 
  15   0.0000       0.077438         2.1072 
  16   0.0000       0.077438         2.1072 
  17   0.0000       0.128130         3.4866 
  18   0.0000       0.128130         3.4866 
  19   0.0000       0.128130         3.4866 
  20   0.0000       0.128130         3.4866 
  21   0.0000       0.128130         3.4866 
  22   0.0000       0.257065         6.9951 
  23   0.0000       0.257065         6.9951 
  24   0.0000       0.257065         6.9951 
  25   0.0000       0.309140         8.4121 
  26   0.0000       0.381805        10.3894 
  27   0.0000       0.381805        10.3894 
  28   0.0000       0.381805        10.3894 
  29   0.0000       0.381805        10.3894 
  30   0.0000       0.381805        10.3894 
  31   0.0000       0.815647        22.1949 
  32   0.0000       0.815647        22.1949 
  33   0.0000       0.815647        22.1949 
  34   0.0000       0.952546        25.9201 
  35   0.0000       0.952546        25.9201 
  36   0.0000       0.952546        25.9201 
  37   0.0000       0.952546        25.9201 
  38   0.0000       0.952546        25.9201 
  39   0.0000       0.952546        25.9201 
  40   0.0000       0.952546        25.9201 
  41   0.0000       1.042854        28.3775 
  42   0.0000       1.042854        28.3775 
  43   0.0000       1.042854        28.3775 
  44   0.0000       1.042854        28.3775 
  45   0.0000       1.042854        28.3775 
  46   0.0000       1.244266        33.8582 
  47   0.0000       3.315962        90.2319 
  48   0.0000       3.315962        90.2319 
  49   0.0000       3.315962        90.2319 
  50   0.0000       3.315962        90.2319 
  51   0.0000       3.315962        90.2319 
  52   0.0000       4.410702       120.0213 
  53   0.0000      14.970557       407.3696 
  54   0.0000      50.826145      1383.0497 
  55   0.0000     346.294554      9423.1539 

                 SPIN DOWN ORBITALS
  NO   OCC          E(Eh)            E(eV) 
   0   1.0000    -133.533021     -3633.6182 
   1   1.0000     -14.489316      -394.2743 
   2   1.0000     -11.519382      -313.4583 
   3   1.0000     -11.519382      -313.4583 
   4   1.0000     -11.519382      -313.4583 
   5   1.0000      -1.746285       -47.5188 
   6   1.0000      -0.953542       -25.9472 
   7   1.0000      -0.953542       -25.9472 
   8   1.0000      -0.953542       -25.9472 
   9   0.0000       0.011587         0.3153 
  10   0.0000       0.028285         0.7697 
  11   0.0000       0.028285         0.7697 
  12   0.0000       0.028285         0.7697 
  13   0.0000       0.086948         2.3660 
  14   0.0000       0.097802         2.6613 
  15   0.0000       0.097802         2.6613 
  16   0.0000       0.097802         2.6613 
  17   0.0000       0.146073         3.9749 
  18   0.0000       0.146073         3.9749 
  19   0.0000       0.146073         3.9749 
  20   0.0000       0.146073         3.9749 
  21   0.0000       0.146073         3.9749 
  22   0.0000       0.271640         7.3917 
  23   0.0000       0.271640         7.3917 
  24   0.0000       0.271640         7.3917 
  25   0.0000       0.326440         8.8829 
  26   0.0000       0.387112        10.5338 
  27   0.0000       0.387112        10.5338 
  28   0.0000       0.387112        10.5338 
  29   0.0000       0.387112        10.5338 
  30   0.0000       0.387112        10.5338 
  31   0.0000       0.822750        22.3882 
  32   0.0000       0.822750        22.3882 
  33   0.0000       0.822750        22.3882 
  34   0.0000       0.959487        26.1090 
  35   0.0000       0.959487        26.1090 
  36   0.0000       0.959487        26.1090 
  37   0.0000       0.959487        26.1090 
  38   0.0000       0.959487        26.1090 
  39   0.0000       0.959487        26.1090 
  40   0.0000       0.959487        26.1090 
  41   0.0000       1.047494        28.5038 
  42   0.0000       1.047494        28.5038 
  43   0.0000       1.047494        28.5038 
  44   0.0000       1.047494        28.5038 
  45   0.0000       1.047494        28.5038 
  46   0.0000       1.251789        34.0629 
  47   0.0000       3.317573        90.2758 
  48   0.0000       3.317573        90.2758 
  49   0.0000       3.317573        90.2758 
  50   0.0000       3.317573        90.2758 
  51   0.0000       3.317573        90.2758 
  52   0.0000       4.413742       120.1040 
  53   0.0000      14.972183       407.4138 
  54   0.0000      50.827208      1383.0786 
  55   0.0000     346.295600      9423.1823 

                    ********************************
                    * MULLIKEN POPULATION ANALYSIS *
                    ********************************

--------------------------------------------
MULLIKEN ATOMIC CHARGES AND SPIN POPULATIONS
--------------------------------------------
   0 K :    0.000000    1.000000
Sum of atomic charges         :    0.0000000
Sum of atomic spin populations:    1.0000000

-----------------------------------------------------
MULLIKEN REDUCED ORBITAL CHARGES AND SPIN POPULATIONS
-----------------------------------------------------
CHARGE
  0 K s       :     7.000000  s :     7.000000
      pz      :     4.000000  p :    12.000000
      px      :     4.000000
      py      :     4.000000
      dz2     :     0.000000  d :     0.000000
      dxz     :     0.000000
      dyz     :     0.000000
      dx2y2   :     0.000000
      dxy     :     0.000000
      f0      :     0.000000  f :     0.000000
      f+1     :     0.000000
      f-1     :     0.000000
      f+2     :     0.000000
      f-2     :     0.000000
      f+3     :     0.000000
      f-3     :     0.000000

SPIN
  0 K s       :     1.000000  s :     1.000000
      pz      :     0.000000  p :     0.000000
      px      :    -0.000000
      py      :     0.000000
      dz2     :    -0.000000  d :    -0.000000
      dxz     :    -0.000000
      dyz     :    -0.000000
      dx2y2   :    -0.000000
      dxy     :    -0.000000
      f0      :     0.000000  f :     0.000000
      f+1     :    -0.000000
      f-1     :    -0.000000
      f+2     :    -0.000000
      f-2     :    -0.000000
      f+3     :     0.000000
      f-3     :    -0.000000


                     *******************************
                     * LOEWDIN POPULATION ANALYSIS *
                     *******************************

-------------------------------------------
LOEWDIN ATOMIC CHARGES AND SPIN POPULATIONS
-------------------------------------------
   0 K :   -0.000000    1.000000

----------------------------------------------------
LOEWDIN REDUCED ORBITAL CHARGES AND SPIN POPULATIONS
----------------------------------------------------
CHARGE
  0 K s       :     7.000000  s :     7.000000
      pz      :     4.000000  p :    12.000000
      px      :     4.000000
      py      :     4.000000
      dz2     :     0.000000  d :     0.000000
      dxz     :     0.000000
      dyz     :     0.000000
      dx2y2   :     0.000000
      dxy     :     0.000000
      f0      :     0.000000  f :     0.000000
      f+1     :     0.000000
      f-1     :     0.000000
      f+2     :     0.000000
      f-2     :     0.000000
      f+3     :     0.000000
      f-3     :     0.000000

SPIN
  0 K s       :     1.000000  s :     1.000000
      pz      :     0.000000  p :     0.000000
      px      :    -0.000000
      py      :     0.000000
      dz2     :    -0.000000  d :    -0.000000
      dxz     :    -0.000000
      dyz     :    -0.000000
      dx2y2   :    -0.000000
      dxy     :    -0.000000
      f0      :     0.000000  f :     0.000000
      f+1     :    -0.000000
      f-1     :    -0.000000
      f+2     :    -0.000000
      f-2     :    -0.000000
      f+3     :     0.000000
      f-3     :    -0.000000


                      *****************************
                      * MAYER POPULATION ANALYSIS *
                      *****************************

  NA   - Mulliken gross atomic population
  ZA   - Total nuclear charge
  QA   - Mulliken gross atomic charge
  VA   - Mayer's total valence
  BVA  - Mayer's bonded valence
  FA   - Mayer's free valence

  ATOM       NA         ZA         QA         VA         BVA        FA
  0 K     19.0000    19.0000    -0.0000     1.0004     0.0000     1.0004

  Mayer bond orders larger than 0.100000


-------
TIMINGS
-------

Total SCF time: 0 days 0 hours 0 min 3 sec 

Total time                  ....       3.223 sec
Sum of individual times     ....       2.812 sec  ( 87.2%)

Fock matrix formation       ....       2.140 sec  ( 66.4%)
Diagonalization             ....       0.070 sec  (  2.2%)
Density matrix formation    ....       0.007 sec  (  0.2%)
Population analysis         ....       0.166 sec  (  5.1%)
Initial guess               ....       0.121 sec  (  3.7%)
Orbital Transformation      ....       0.000 sec  (  0.0%)
Orbital Orthonormalization  ....       0.000 sec  (  0.0%)
DIIS solution               ....       0.251 sec  (  7.8%)


           ************************************************************
           *        Program running with 24 parallel MPI-processes    *
           *              working on a common directory               *
           ************************************************************


------------------------------------------------------------------------------- 
                              ORCA-MATRIX DRIVEN CI                            
------------------------------------------------------------------------------- 

--------------------------------
AUTOMATIC CHOICE OF INCORE LEVEL
--------------------------------

Memory available                           ...   2500.00 MB
Memory needed for S+T                      ...      0.73 MB
Memory needed for J+K                      ...      1.46 MB
Memory needed for DIIS                     ...     10.17 MB
Memory needed for 3-ext                    ...      3.71 MB
Memory needed for 4-ext                    ...     17.45 MB
Memory needed for triples                  ...      3.71 MB
 -> Final InCoreLevel    ... 5
 -> check shows that triples correction can be computed


Wavefunction type
-----------------
Correlation treatment                      ...      CCSD     
Single excitations                         ... ON
Orbital optimization                       ... OFF
Calculation of Z vector                    ... OFF
Calculation of Brueckner orbitals          ... OFF
Perturbative triple excitations            ... ON
Calculation of F12 correction              ... OFF
Frozen core treatment                      ... chemical core (10 el)
Reference Wavefunction                     ... UHF
  Alpha-MOs occ    :     5 ...    9 (  5 MO's/  5 electrons)
  Beta-MOs occ     :     5 ...    8 (  4 MO's/  4 electrons)
  Alpha-MOs virt   :    10 ...   55 ( 46 MO's              )
  Beta-MOs virt    :     9 ...   55 ( 47 MO's              )
Number of AO's                             ...     56
Number of electrons                        ...     19
Number of correlated electrons             ...      9

Algorithmic settings
--------------------
Integral transformation                    ... AO direct full transformation
K(C) Formation                             ... FULL-MO TRAFO
Maximum number of iterations               ...        50
Convergence tolerance (max. residuum)      ... 1.000e-05
Level shift for amplitude update           ... 2.000e-01
Maximum number of DIIS vectors             ...         7
DIIS turned on at iteration                ...         0
Damping before turning on DIIS             ...     0.500
Damping after turning on DIIS              ...     0.000
Pair specific amplitude update             ... OFF
Natural orbital iterations                 ... OFF
Perturbative natural orbital generation    ... OFF
Printlevel                                 ... 2

Memory handling:
----------------
Maximum memory for working arrays          ...   2500 MB
Data storage in matrix containers          ... UNCOMPRESSED
Data type for integral storage             ... DOUBLE
In-Core Storage of quantities:
   Amplitudes+Sigma Vector      ... YES
   J+K operators                ... YES
   DIIS vectors                 ... YES
   3-external integrals         ... YES
   4-external integrals         ... YES


Initializing the integral package          ... done
Warning: reference  - re-canonicalizations have been set to INT 1 VIRT 1

--------------------------
UNRESTRICTED FOCK OPERATOR
--------------------------

<ss|ss>:         2211 b            0 skpd (  0.0%)    0.001 s ( 0.001 ms/b)
<ss|sp>:         4356 b            0 skpd (  0.0%)    0.005 s ( 0.001 ms/b)
<ss|sd>:         2904 b            0 skpd (  0.0%)    0.001 s ( 0.000 ms/b)
<ss|sf>:          726 b            0 skpd (  0.0%)    0.000 s ( 0.001 ms/b)
<ss|pp>:         1386 b            0 skpd (  0.0%)    0.003 s ( 0.002 ms/b)
<ss|pd>:         1584 b            0 skpd (  0.0%)    0.001 s ( 0.000 ms/b)
<ss|pf>:          396 b            0 skpd (  0.0%)    0.001 s ( 0.002 ms/b)
<ss|dd>:          660 b            0 skpd (  0.0%)    0.000 s ( 0.000 ms/b)
<ss|df>:          264 b            0 skpd (  0.0%)    0.000 s ( 0.001 ms/b)
<ss|ff>:           66 b            0 skpd (  0.0%)    0.000 s ( 0.004 ms/b)
<sp|sp>:         2211 b            0 skpd (  0.0%)    0.005 s ( 0.002 ms/b)
<sp|sd>:         2904 b            0 skpd (  0.0%)    0.001 s ( 0.000 ms/b)
<sp|sf>:          726 b            0 skpd (  0.0%)    0.001 s ( 0.001 ms/b)
<sp|pp>:         1386 b            0 skpd (  0.0%)    0.005 s ( 0.004 ms/b)
<sp|pd>:         1584 b           12 skpd (  0.8%)    0.001 s ( 0.001 ms/b)
<sp|pf>:          396 b            2 skpd (  0.5%)    0.002 s ( 0.006 ms/b)
<sp|dd>: done
<sp|df>: done
<sp|ff>: done
<sd|sd>:          990 b            2 skpd (  0.2%)    0.000 s ( 0.000 ms/b)
<sd|sf>:          484 b            3 skpd (  0.6%)    0.000 s ( 0.001 ms/b)
<sd|pp>:          924 b            3 skpd (  0.3%)    0.002 s ( 0.002 ms/b)
<sd|pd>: done
<sd|pf>: done
<sd|dd>: done
<sd|df>: done
<sd|ff>: done
<sf|sf>:           66 b            2 skpd (  3.0%)    0.000 s ( 0.002 ms/b)
<sf|pp>:          231 b            3 skpd (  1.3%)    0.001 s ( 0.005 ms/b)
<sf|pd>: done
<sf|pf>: done
<sf|dd>: done
<sf|df>: done
<sf|ff>: done
<pp|pp>:          231 b            0 skpd (  0.0%)    0.005 s ( 0.023 ms/b)
<pp|pd>:          504 b            0 skpd (  0.0%)    0.002 s ( 0.003 ms/b)
<pp|pf>:          126 b            0 skpd (  0.0%)    0.003 s ( 0.022 ms/b)
<pp|dd>:          210 b            0 skpd (  0.0%)    0.001 s ( 0.005 ms/b)
<pp|df>:           84 b            0 skpd (  0.0%)    0.001 s ( 0.011 ms/b)
<pp|ff>:           21 b            0 skpd (  0.0%)    0.001 s ( 0.047 ms/b)
<pd|pd>:          300 b            0 skpd (  0.0%)    0.001 s ( 0.004 ms/b)
<pd|pf>:          144 b            0 skpd (  0.0%)    0.002 s ( 0.017 ms/b)
<pd|dd>: done
<pd|df>: done
<pd|ff>: done
<pf|pf>:           21 b            0 skpd (  0.0%)    0.001 s ( 0.026 ms/b)
<pf|dd>: done
<pf|df>: done
<pf|ff>: done
<dd|dd>: done
<dd|df>: done
<dd|ff>: done
<df|df>: done
<df|ff>: done
<ff|ff>: done
Recanonicalizing the internal orbitals
Recanonicalizing the virtual orbitals
Time needed for Fock operator              ...            0.108 sec
Reference energy                           ...   -599.164594370
Warning: for UHF the TrafoType has to be JK
Warning: for UHF the K(C)-option cannot be MO but must be AOX

-------------------------------
PARTIAL EXCHANGE TRANSFORMATION
-------------------------------

Transformation type                        ... two-operators
Generation of integrals (i,mue|j,nue)      ... ON
Generation of integrals (mue,kappa|nue,tau)... ON
Generation of integrals (i,mue|a,nue)      ... ON
Dimension of the basis                     ...   56
Number of internal alpha-MOs               ...    5 (   5-   9)
Number of internal beta-MOs                ...    4 (   5-   8)
Number of external alpha-MOs               ...   46 (  10-  55)
Number of external beta-MOs                ...   47 (   9-  55)
Pair cutoff                                ... 0.000e+00 Eh
Number of AO pairs in the trafo            ... 1596
Total Number of distinct AO pairs          ... 1596
Memory devoted for trafo                   ... 2500.0 MB 
Max. Number of MO pairs treated together   ... 104489      
Number Format for Storage                  ... Double (8 Byte)
Integral package used                      ... LIBINT

Starting integral evaluation:
    ... done with AO integral generation
Closing buffer AOK[aa] ( 0.00 GB; CompressionRatio= 0.00)
Closing buffer AOK[bb] ( 0.00 GB; CompressionRatio= 0.00)
Closing buffer AOK[ab] ( 0.00 GB; CompressionRatio= 0.00)
Closing buffer AOK[ba] ( 0.00 GB; CompressionRatio= 0.00)
Collecting buffer AOK 
Closing buffer IAAO1[aa] ( 0.00 GB; CompressionRatio= 0.00)
Closing buffer IAAO1[bb] ( 0.00 GB; CompressionRatio= 0.00)
Closing buffer IAAO1[ab] ( 0.00 GB; CompressionRatio= 0.00)
Closing buffer IAAO1[ba] ( 0.00 GB; CompressionRatio= 0.00)
Closing buffer IAAO2[aa] ( 0.00 GB; CompressionRatio= 0.00)
Closing buffer IAAO2[bb] ( 0.00 GB; CompressionRatio= 0.00)
Closing buffer IAAO2[ab] ( 0.00 GB; CompressionRatio= 0.00)
Closing buffer IAAO2[ba] ( 0.00 GB; CompressionRatio= 0.00)
Collecting buffer IAAO 
Closing buffer PRQS    ( 0.00 GB; CompressionRatio= 0.00)
Collecting buffer PRQS 
Number of alpha/alpha MO pairs in trafo    ...   15
Number of beta /beta  MO pairs in trafo    ...   10
Number of alpha/ beta MO pairs in trafo    ...   20
------------------------
SORTING OF (i,mue|j,nue)
------------------------

SORTING OF ALPHA/ALPHA PAIRS
IBATCH = 1 of  1
Closing buffer KAO[aa] ( 0.00 GB; CompressionRatio= 1.00)
Collecting buffer KAO 
SORTING OF BETA /BETA  PAIRS
IBATCH = 1 of  1
Closing buffer KAO[bb] ( 0.00 GB; CompressionRatio= 1.00)
Collecting buffer KAO 
SORTING OF ALPHA/BETA  PAIRS
IBATCH = 1 of  1
Closing buffer KAO[ab] ( 0.00 GB; CompressionRatio= 0.999521912351)
Collecting buffer KAO[ab] 
------------------------
SORTING OF (i,mue|a,nue)
------------------------

Number of alpha/alpha (i,a) pairs in trafo  ...  230
Number of beta /beta  (i,a) pairs in trafo  ...  188
Number of alpha/ beta (i,a) pairs in trafo  ...  235
Number of beta /alpha (i,a) pairs in trafo  ...  184
Setting up the alpha/alpha list             ... done
Setting up the beta /beta  list             ... done
Setting up the alpha/beta  list             ... done
Setting up the beta /alpha list             ... done
    ... Now sorting (i,mue|a,nue)integrals
    ... Integrals (i,b|a,c) will be made on the fly
SORTING OF ALPHA/ALPHA PAIRS
IBATCH = 1 of  1
Closing buffer IPAQ[aa]  0.00 GB; CompressionRatio= 1.00)
SORTING OF BETA /BETA  PAIRS
IBATCH = 1 of  1
Closing buffer IPAQ[bb]( 0.00 GB; CompressionRatio= 1.00)
SORTING OF ALPHA/BETA  PAIRS (NMatSort_ab=10)
IBATCH = 1 of  1
Closing buffer IPAQ[ab]( 0.00 GB; CompressionRatio= 1.00)
SORTING OF BETA/ALPHA  PAIRS
IBATCH = 1 of  1
Closing buffer IPAQ[ba]( 0.00 GB; CompressionRatio= 1.00)
N(AO-Batches) Done                         ...         0 
N(AO-Batches) Skipped                      ...         0 
N(IJ)-pairs Skipped                        ...         0 
TOTAL TIME for half transformation         ...     3.033 sec
AO-integral generation                     ...     0.000 sec
Half transformation                        ...     0.000 sec
K-integral sorting                         ...     0.763 sec
<ss|**>: 
------------------------------
PARTIAL COULOMB TRANSFORMATION
------------------------------

Transformation type                        ... two-operators
Dimension of the basis                     ...   56
Number of internal alpha-MOs               ...    5 (5-9)
Number of internal beta-MOs                ...    4 (5-8)
Pair cutoff                                ... 0.000e+00 Eh
Number of AO pairs included in the trafo   ... 1596
Total Number of distinct AO pairs          ... 1596
Memory devoted for trafo                   ... 2500.0 MB 
Max. Number of MO pairs treated together   ... 205313      
Max. Number of MOs treated per batch       ... 3666      
Number Format for Storage                  ... Double (8 Byte)
AO-integral source                         ... DIRECT
Integral package used                      ... LIBINT

Starting integral evaluation:
       16698 b        0 skpd     0.014 s (  0.001 ms/b)
<sp|**>: <sd|**>:        16698 b        0 skpd     0.033 s (  0.002 ms/b)
       11132 b        0 skpd     0.040 s (  0.004 ms/b)
<sf|**>:         2783 b        0 skpd     0.019 s (  0.007 ms/b)
<pp|**>:         5313 b        0 skpd     0.032 s (  0.006 ms/b)
<pd|**>:         6072 b        0 skpd     0.059 s (  0.010 ms/b)
<pf|**>:         1518 b        0 skpd     0.036 s (  0.024 ms/b)
<dd|**>:         2530 b        0 skpd     0.038 s (  0.015 ms/b)
<df|**>:         1012 b        0 skpd     0.037 s (  0.037 ms/b)
<ff|**>:          253 b        0 skpd     0.021 s (  0.084 ms/b)
Closing buffer AOJ[aa] ( 0.00 GB; CompressionRatio= 0.91)
Closing buffer AOJ[bb] ( 0.00 GB; CompressionRatio= 0.00)
Collecting buffer AOJ 
    ... done with AO integral generation
Number of Alpha-MO pairs included          ...   15
Number of Beta-MO pairs included           ...   10
    ... Now sorting integrals
SORTING ALPHA/ALPHA PAIRS
IBATCH = 1 of  1
Closing buffer JAO[aa] ( 0.00 GB; CompressionRatio= 1.00)
SORTING BETA/BETA PAIRS
IBATCH = 1 of  1
Closing buffer JAO[bb] ( 0.00 GB; CompressionRatio= 1.00)
Collecting buffer JAO 
TOTAL TIME for half transformation         ...     0.478 sec
AO-integral generation                     ...     0.151 sec
Half transformation                        ...     0.179 sec
J-integral sorting                         ...     0.105 sec

-------------------------- SECOND HALF TRANSFORMATION -------------------------
Formation of (ij|kl),(ij|ka), (ij|ab)      ... ok (     0.168 sec)
Formation of (ik|jl),(ik|ja), (ia|jb)      ... ok (     0.234 sec)


-----------------------
SPIN UNRESTRICTED GUESS
-----------------------

Entering MDCI_UHF_Guess, Tailored=0
Spin-components of the MP2 energy:
EMP2(aa)=     -0.027033770
EMP2(bb)=     -0.022470719
EMP2(ab)=     -0.124589749

Initial guess performed in     0.003 sec
E(0)                                       ...   -599.164594370
E(MP2)                                     ...     -0.174094237
Initial E(tot)                             ...   -599.338688607
<T|T>                                      ...      0.052027641
Number of pairs included                   ... 36

------------------------------------------------
                  UHF COUPLED CLUSTER ITERATIONS
------------------------------------------------

Number of amplitudes to be optimized       ...        60653

Iter       E(tot)           E(Corr)          Delta-E          Residual     Time      <S|S>**1/2
  0   -599.338688607     -0.174094237     -0.000000000      0.008762606    0.15      0.000001172
                           *** Turning on DIIS ***
  1   -599.349767039     -0.185172669     -0.011078432      0.005214738    0.10      0.013277119
  2   -599.352740593     -0.188146224     -0.002973554      0.003043145    0.10      0.023142071
  3   -599.353066879     -0.188472509     -0.000326286      0.002104767    0.10      0.029943052
  4   -599.353203351     -0.188608981     -0.000136472      0.001220928    0.10      0.035386816
  5   -599.353302288     -0.188707918     -0.000098937      0.000337612    0.10      0.040285824
  6   -599.353314197     -0.188719827     -0.000011909      0.000092582    0.12      0.041404450
  7   -599.353317050     -0.188722680     -0.000002853      0.000019230    0.10      0.041673471
  8   -599.353317580     -0.188723211     -0.000000531      0.000001980    0.10      0.041729256
               --- The Coupled-Cluster iterations have converged ---

----------------------
COUPLED CLUSTER ENERGY
----------------------

E(0)                                       ...   -599.164594370
E(CORR)                                    ...     -0.188723211
E(TOT)                                     ...   -599.353317580
Singles norm <S|S>**1/2                    ...      0.041729256 ( 0.037922939, 0.003806318)  
T1 diagnostic                              ...      0.013909752                              

------------------
LARGEST AMPLITUDES
------------------
   9a-> 13a  -1a-> -1a       0.056659
   9a-> 25a  -1a-> -1a       0.036280
   8a-> 26a   8b-> 26b       0.022139
   8a-> 41a   8b-> 26b       0.018724
   8a-> 41a   8b-> 41b       0.018510
   8a-> 26a   8b-> 41b       0.018114
   6a-> 28a   7b-> 28b       0.017427
   6a-> 27a   7b-> 27b       0.017300
   7a-> 27a   6b-> 27b       0.016792
   7a-> 26a   6b-> 26b       0.015817
   7a-> 33a   6b-> 33b       0.015382
   8b-> 26b   6b-> 29b       0.015262
   8b-> 29b   6b-> 26b       0.015262
   6a-> 32a   7b-> 32b       0.015180
   8a-> 31a   8b-> 31b       0.015119
   7a-> 28a   6a-> 27a       0.014774

----------------------
UHF TRIPLES CORRECTION (Algorithm 1)
----------------------

Multiplier for the singles contribution    ...      1.000000000

SPIN-CASE Alpha-Alpha-Alpha:
10% done
20% done
30% done
40% done
50% done
60% done
70% done
80% done
90% done


SPIN-CASE Beta-Beta-Beta:
10% done
20% done
30% done
40% done
50% done
60% done
70% done
80% done
90% done


SPIN-CASE Alpha-Alpha-Beta:
10% done
20% done
30% done
40% done
50% done
60% done
70% done
80% done
90% done


SPIN-CASE Beta-Beta-Alpha:
10% done
20% done
30% done
40% done
50% done
60% done
70% done
80% done
90% done


Triples Correction (T)                     ...     -0.003675636
    alpha-alpha-alpha ... -0.000152477 (  4.1%)
    alpha-alpha-beta  ... -0.001920707 ( 52.3%)
    alpha-beta -beta  ... -0.001527843 ( 41.6%)
    beta -beta -beta  ... -0.000074610 (  2.0%)
Scaling of triples based on CCSD energies (Peterson et al. Molecular Physics 113, 1551 (2015))
E(T*) = f*E(T) where f = E(F12-CCSD)/E(CCSD) 
f = CCSD (with F12)/ CCSD (without F12)    ...      1.000000000
Scaled triples correction (T)              ...     -0.003675636

Final correlation energy                   ...     -0.192398846
E(CCSD)                                    ...   -599.353317580
E(CCSD(T))                                 ...   -599.356993216



        !!!!!!!!!!!!!!!!!!!!!!!!!!!!!!!!!!!!!!!!!!!!!!!!!!!!!!!!!!!!!!!!!!!!!!!!!! 
        !  Warning: Densities are linearized densities                           !
        !!!!!!!!!!!!!!!!!!!!!!!!!!!!!!!!!!!!!!!!!!!!!!!!!!!!!!!!!!!!!!!!!!!!!!!!!! 

NORM  =      1.066480082 sqrt=     1.032705225
W(HF) =      0.937664019
------------------------------------------------------------------------------
                           ORCA POPULATION ANALYSIS
------------------------------------------------------------------------------
Input electron density              ... 19_K.mdcip
Input spin density                  ... 19_K.mdcir
BaseName (.gbw .S,...)              ... 19_K

                    ********************************
                    * MULLIKEN POPULATION ANALYSIS *
                    ********************************

------------------------------------------
MULLIKEN ATOMIC CHARGES AND SPIN DENSITIES
------------------------------------------
   0 K :   -0.000000    1.000000
Sum of atomic charges       :   -0.0000000
Sum of atomic spin densities:    1.0000000

---------------------------------------------------
MULLIKEN REDUCED ORBITAL CHARGES AND SPIN DENSITIES
---------------------------------------------------
CHARGE
  0 K s       :     6.988278  s :     6.988278
      pz      :     3.971464  p :    11.914392
      px      :     3.971464
      py      :     3.971464
      dz2     :     0.019003  d :     0.095016
      dxz     :     0.019003
      dyz     :     0.019003
      dx2y2   :     0.019003
      dxy     :     0.019003
      f0      :     0.000331  f :     0.002314
      f+1     :     0.000331
      f-1     :     0.000331
      f+2     :     0.000331
      f-2     :     0.000331
      f+3     :     0.000331
      f-3     :     0.000331

SPIN
  0 K s       :     0.993134  s :     0.993134
      pz      :     0.002393  p :     0.007179
      px      :     0.002393
      py      :     0.002393
      dz2     :    -0.000058  d :    -0.000292
      dxz     :    -0.000058
      dyz     :    -0.000058
      dx2y2   :    -0.000058
      dxy     :    -0.000058
      f0      :    -0.000003  f :    -0.000022
      f+1     :    -0.000003
      f-1     :    -0.000003
      f+2     :    -0.000003
      f-2     :    -0.000003
      f+3     :    -0.000003
      f-3     :    -0.000003


                     *******************************
                     * LOEWDIN POPULATION ANALYSIS *
                     *******************************

-----------------------------------------
LOEWDIN ATOMIC CHARGES AND SPIN DENSITIES
-----------------------------------------
   0 K :    0.000000    1.000000

--------------------------------------------------
LOEWDIN REDUCED ORBITAL CHARGES AND SPIN DENSITIES
--------------------------------------------------
CHARGE
  0 K s       :     6.988278  s :     6.988278
      pz      :     3.971464  p :    11.914392
      px      :     3.971464
      py      :     3.971464
      dz2     :     0.019003  d :     0.095016
      dxz     :     0.019003
      dyz     :     0.019003
      dx2y2   :     0.019003
      dxy     :     0.019003
      f0      :     0.000331  f :     0.002314
      f+1     :     0.000331
      f-1     :     0.000331
      f+2     :     0.000331
      f-2     :     0.000331
      f+3     :     0.000331
      f-3     :     0.000331

SPIN
  0 K s       :     0.993134  s :     0.993134
      pz      :     0.002393  p :     0.007179
      px      :     0.002393
      py      :     0.002393
      dz2     :    -0.000058  d :    -0.000292
      dxz     :    -0.000058
      dyz     :    -0.000058
      dx2y2   :    -0.000058
      dxy     :    -0.000058
      f0      :    -0.000003  f :    -0.000022
      f+1     :    -0.000003
      f-1     :    -0.000003
      f+2     :    -0.000003
      f-2     :    -0.000003
      f+3     :    -0.000003
      f-3     :    -0.000003


                      *****************************
                      * MAYER POPULATION ANALYSIS *
                      *****************************

  NA   - Mulliken gross atomic population
  ZA   - Total nuclear charge
  QA   - Mulliken gross atomic charge
  VA   - Mayer's total valence
  BVA  - Mayer's bonded valence
  FA   - Mayer's free valence

  ATOM       NA         ZA         QA         VA         BVA        FA
  0 K     19.0000    19.0000    -0.0000     1.4728     0.0000     1.4728





------------------------------------------------------------------------------- 
                                     TIMINGS                                   
------------------------------------------------------------------------------- 


Total execution time                   ...        6.332 sec

Fock Matrix Formation                  ...        0.108 sec (  1.7%)
Initial Guess                          ...        0.003 sec (  0.0%)
DIIS Solver                            ...        0.046 sec (  0.7%)
State Vector Update                    ...        0.003 sec (  0.0%)
Sigma-vector construction              ...        0.923 sec ( 14.6%)
  <D|H|D>(2-ext)                       ...        0.008 sec (  0.8% of sigma)
  <D|H|D>(4-ext)                       ...        0.451 sec ( 48.8% of sigma)
  <S|H|0>                              ...        0.017 sec (  1.8% of sigma)
  <D|H|S>(1-ext)                       ...        0.005 sec (  0.5% of sigma)
  Fock-dressing                        ...        0.247 sec ( 26.8% of sigma)
  (ik|jl)-dressing                     ...        0.001 sec (  0.1% of sigma)
  (ij|ab),(ia|jb)-dressing             ...        0.141 sec ( 15.3% of sigma)
Total Time for computing (T)           ...        0.049 sec (  0.8% of ALL)
  I/O of integral and amplitudes       ...        0.015 sec ( 31.5% of (T))
  External N**7 contributions          ...        0.011 sec ( 22.6% of (T))
  Internal N**7 contributions          ...        0.003 sec (  6.3% of (T))
  N**6 triples energy contributions    ...        0.016 sec ( 33.2% of (T))


-------------------------   --------------------
FINAL SINGLE POINT ENERGY      -599.356993216201
-------------------------   --------------------


                            ***************************************
                            *     ORCA property calculations      *
                            ***************************************

                                    ---------------------
                                    Active property flags
                                    ---------------------
   (+) Dipole Moment


------------------------------------------------------------------------------
                       ORCA ELECTRIC PROPERTIES CALCULATION
------------------------------------------------------------------------------

Dipole Moment Calculation                       ... on
Quadrupole Moment Calculation                   ... off
Polarizability Calculation                      ... off
GBWName                                         ... 19_K.gbw
Electron density file                           ... 19_K.scfp
The origin for moment calculation is the CENTER OF MASS  = ( 0.000000,  0.000000  0.000000)

-------------
DIPOLE MOMENT
-------------
                                X             Y             Z
Electronic contribution:      0.00000      -0.00000       0.00000
Nuclear contribution   :      0.00000       0.00000       0.00000
                        -----------------------------------------
Total Dipole Moment    :      0.00000      -0.00000       0.00000
                        -----------------------------------------
Magnitude (a.u.)       :      0.00000
Magnitude (Debye)      :      0.00000



--------------------
Rotational spectrum 
--------------------
 
Rotational constants in cm-1:     0.000000     0.000000     0.000000 
Rotational constants in MHz :     0.000000     0.000000     0.000000 

 Dipole components along the rotational axes: 
x,y,z [a.u.] :     0.000000    -0.000000     0.000000 
x,y,z [Debye]:     0.000000    -0.000000     0.000000 

 

                           *** MDCI DENSITY ***

------------------------------------------------------------------------------
                       ORCA ELECTRIC PROPERTIES CALCULATION
------------------------------------------------------------------------------

Dipole Moment Calculation                       ... on
Quadrupole Moment Calculation                   ... off
Polarizability Calculation                      ... off
GBWName                                         ... 19_K.gbw
Electron density file                           ... 19_K.mdcip
The origin for moment calculation is the CENTER OF MASS  = ( 0.000000,  0.000000  0.000000)

-------------
DIPOLE MOMENT
-------------
                                X             Y             Z
Electronic contribution:      0.00000      -0.00000       0.00000
Nuclear contribution   :      0.00000       0.00000       0.00000
                        -----------------------------------------
Total Dipole Moment    :      0.00000      -0.00000       0.00000
                        -----------------------------------------
Magnitude (a.u.)       :      0.00000
Magnitude (Debye)      :      0.00000



--------------------
Rotational spectrum 
--------------------
 
Rotational constants in cm-1:     0.000000     0.000000     0.000000 
Rotational constants in MHz :     0.000000     0.000000     0.000000 

 Dipole components along the rotational axes: 
x,y,z [a.u.] :     0.000000    -0.000000     0.000000 
x,y,z [Debye]:     0.000000    -0.000000     0.000000 

 

Timings for individual modules:

Sum of individual times         ...       11.263 sec (=   0.188 min)
GTO integral calculation        ...        0.831 sec (=   0.014 min)   7.4 %
SCF iterations                  ...        3.605 sec (=   0.060 min)  32.0 %
MDCI module                     ...        6.827 sec (=   0.114 min)  60.6 %
                             ****ORCA TERMINATED NORMALLY****
TOTAL RUN TIME: 0 days 0 hours 0 minutes 12 seconds 24 msec
