
                                 *****************
                                 * O   R   C   A *
                                 *****************

           --- An Ab Initio, DFT and Semiempirical electronic structure package ---

                  #######################################################
                  #                        -***-                        #
                  #          Department of theory and spectroscopy      #
                  #               Directorship: Frank Neese             #
                  #        Max Planck Institute fuer Kohlenforschung    #
                  #                Kaiser Wilhelm Platz 1               #
                  #                 D-45470 Muelheim/Ruhr               #
                  #                      Germany                        #
                  #                                                     #
                  #                  All rights reserved                #
                  #                        -***-                        #
                  #######################################################


                         Program Version 4.2.0 -  RELEASE  -


 With contributions from (in alphabetic order):
   Daniel Aravena         : Magnetic Suceptibility
   Michael Atanasov       : Ab Initio Ligand Field Theory (pilot matlab implementation)
   Alexander A. Auer      : GIAO ZORA, VPT2
   Ute Becker             : Parallelization
   Giovanni Bistoni       : ED, misc. LED, open-shell LED, HFLED
   Martin Brehm           : Molecular dynamics
   Dmytro Bykov           : SCF Hessian
   Vijay G. Chilkuri      : MRCI spin determinant printing, contributions to CSF-ICE
   Dipayan Datta          : RHF DLPNO-CCSD density
   Achintya Kumar Dutta   : EOM-CC, STEOM-CC
   Dmitry Ganyushin       : Spin-Orbit,Spin-Spin,Magnetic field MRCI
   Miquel Garcia          : C-PCM Hessian, Gaussian charge scheme
   Yang Guo               : DLPNO-NEVPT2, CIM, IAO-localization
   Andreas Hansen         : Spin unrestricted coupled pair/coupled cluster methods
   Benjamin Helmich-Paris : CASSCF linear response (MC-RPA)
   Lee Huntington         : MR-EOM, pCC
   Robert Izsak           : Overlap fitted RIJCOSX, COSX-SCS-MP3, EOM
   Christian Kollmar      : KDIIS, OOCD, Brueckner-CCSD(T), CCSD density
   Simone Kossmann        : Meta GGA functionals, TD-DFT gradient, OOMP2, MP2 Hessian
   Martin Krupicka        : AUTO-CI
   Lucas Lang             : DCDCAS
   Dagmar Lenk            : GEPOL surface, SMD
   Dimitrios Liakos       : Extrapolation schemes; Compound Job, initial MDCI parallelization
   Dimitrios Manganas     : Further ROCIS development; embedding schemes
   Dimitrios Pantazis     : SARC Basis sets
   Taras Petrenko         : DFT Hessian,TD-DFT gradient, ASA, ECA, R-Raman, ABS, FL, XAS/XES, NRVS
   Peter Pinski           : DLPNO-MP2, DLPNO-MP2 Gradient
   Christoph Reimann      : Effective Core Potentials
   Marius Retegan         : Local ZFS, SOC
   Christoph Riplinger    : Optimizer, TS searches, QM/MM, DLPNO-CCSD(T), (RO)-DLPNO pert. Triples
   Tobias Risthaus        : Range-separated hybrids, TD-DFT gradient, RPA, STAB
   Michael Roemelt        : Original ROCIS implementation
   Masaaki Saitow         : Open-shell DLPNO-CCSD energy and density
   Barbara Sandhoefer     : DKH picture change effects
   Avijit Sen             : IP-ROCIS
   Kantharuban Sivalingam : CASSCF convergence, NEVPT2, FIC-MRCI
   Bernardo de Souza      : ESD, SOC TD-DFT
   Georgi Stoychev        : AutoAux, RI-MP2 NMR
   Willem Van den Heuvel  : Paramagnetic NMR
   Boris Wezisla          : Elementary symmetry handling
   Frank Wennmohs         : Technical directorship


 We gratefully acknowledge several colleagues who have allowed us to
 interface, adapt or use parts of their codes:
   Stefan Grimme, W. Hujo, H. Kruse,             : VdW corrections, initial TS optimization,
                  C. Bannwarth                     DFT functionals, gCP, sTDA/sTD-DF
   Ed Valeev, F. Pavosevic, A. Kumar             : LibInt (2-el integral package), F12 methods
   Garnet Chan, S. Sharma, J. Yang, R. Olivares  : DMRG
   Ulf Ekstrom                                   : XCFun DFT Library
   Mihaly Kallay                                 : mrcc  (arbitrary order and MRCC methods)
   Andreas Klamt, Michael Diedenhofen            : otool_cosmo (COSMO solvation model)
   Jiri Pittner, Ondrej Demel                    : Mk-CCSD
   Frank Weinhold                                : gennbo (NPA and NBO analysis)
   Christopher J. Cramer and Donald G. Truhlar   : smd solvation model
   Lars Goerigk                                  : TD-DFT with DH, B97 family of functionals
   V. Asgeirsson, H. Jonsson                     : NEB implementation
   FAccTs GmbH                                   : IRC, NEB, NEB-TS, Multilevel, MM, QM/MM, CI optimization
   S Lehtola, MJT Oliveira, MAL Marques          : LibXC Library


 Your calculation uses the libint2 library for the computation of 2-el integrals
 For citations please refer to: http://libint.valeyev.net

 Your ORCA version has been built with support for libXC version: 4.2.3
 For citations please refer to: https://tddft.org/programs/libxc/

 This ORCA versions uses:
   CBLAS   interface :  Fast vector & matrix operations
   LAPACKE interface :  Fast linear algebra routines
   SCALAPACK package :  Parallel linear algebra routines


----- Orbital basis set information -----
Your calculation utilizes the basis: def2-QZVP
   F. Weigend and R. Ahlrichs, Phys. Chem. Chem. Phys. 7, 3297 (2005).

================================================================================
                                        WARNINGS
                       Please study these warnings very carefully!
================================================================================


WARNING: your system is open-shell and RHF/RKS was chosen
  ===> : WILL SWITCH to UHF/UKS


WARNING: MDCI localization with Augmented Hessian Foster-Boys
  ===> : Switching off randomization!

WARNING: Post HF methods need fully converged wavefunctions
  ===> : Setting SCFConvForced true
         You can overwrite this default with %scf ConvForced false 


INFO   : the flag for use of LIBINT has been found!

================================================================================
                                       INPUT FILE
================================================================================
NAME = 21_Sc.in
|  1> #
|  2> # 21_Sc CCSD(T)/Def2-QZVP
|  3> #
|  4> ! CCSD(T) Def2-QZVP tightscf
|  5> 
|  6> *xyz 0 2
|  7>  Sc 0.0 0.0 0.0
|  8> *
|  9> 
| 10> %maxcore 5000 
| 11> 
| 12> %pal
| 13> nprocs 24
| 14> end
| 15> 
| 16> 
| 17>                          ****END OF INPUT****
================================================================================

                       ****************************
                       * Single Point Calculation *
                       ****************************

---------------------------------
CARTESIAN COORDINATES (ANGSTROEM)
---------------------------------
  Sc     0.000000    0.000000    0.000000

----------------------------
CARTESIAN COORDINATES (A.U.)
----------------------------
  NO LB      ZA    FRAG     MASS         X           Y           Z
   0 Sc   21.0000    0    44.960    0.000000    0.000000    0.000000

--------------------------------
INTERNAL COORDINATES (ANGSTROEM)
--------------------------------
 Sc     0   0   0     0.000000000000     0.00000000     0.00000000

---------------------------
INTERNAL COORDINATES (A.U.)
---------------------------
 Sc     0   0   0     0.000000000000     0.00000000     0.00000000

---------------------
BASIS SET INFORMATION
---------------------
There are 1 groups of distinct atoms

 Group   1 Type Sc  : 24s18p9d3f1g contracted to 11s6p5d3f1g pattern {114111111111/951111/51111/111/1}

Atom   0Sc   basis set group =>   1


           ************************************************************
           *        Program running with 24 parallel MPI-processes    *
           *              working on a common directory               *
           ************************************************************
------------------------------------------------------------------------------
                           ORCA GTO INTEGRAL CALCULATION
------------------------------------------------------------------------------

                         BASIS SET STATISTICS AND STARTUP INFO

 # of primitive gaussian shells          ...   55
 # of primitive gaussian functions       ...  153
 # of contracted shells                  ...   26
 # of contracted basis functions         ...   84
 Highest angular momentum                ...    4
 Maximum contraction depth               ...   11
 Integral package used                   ... LIBINT
 Integral threshhold            Thresh   ...  2.500e-11
 Primitive cut-off              TCut     ...  2.500e-12


------------------------------ INTEGRAL EVALUATION ----------------------------


 * One electron integrals 
 Pre-screening matrix                    ... done
 Shell pair data                         ... done (   0.000 sec)



           ************************************************************
           *        Program running with 24 parallel MPI-processes    *
           *              working on a common directory               *
           ************************************************************
-------------------------------------------------------------------------------
                                 ORCA SCF
-------------------------------------------------------------------------------

------------
SCF SETTINGS
------------
Hamiltonian:
 Ab initio Hamiltonian  Method          .... Hartree-Fock(GTOs)


General Settings:
 Integral files         IntName         .... 21_Sc
 Hartree-Fock type      HFTyp           .... UHF
 Total Charge           Charge          ....    0
 Multiplicity           Mult            ....    2
 Number of Electrons    NEL             ....   21
 Basis Dimension        Dim             ....   84
 Nuclear Repulsion      ENuc            ....      0.0000000000 Eh

Convergence Acceleration:
 DIIS                   CNVDIIS         .... on
   Start iteration      DIISMaxIt       ....    12
   Startup error        DIISStart       ....  0.200000
   # of expansion vecs  DIISMaxEq       ....     5
   Bias factor          DIISBfac        ....   1.050
   Max. coefficient     DIISMaxC        ....  10.000
 Newton-Raphson         CNVNR           .... off
 SOSCF                  CNVSOSCF        .... off
 Level Shifting         CNVShift        .... on
   Level shift para.    LevelShift      ....    0.2500
   Turn off err/grad.   ShiftErr        ....    0.0010
 Zerner damping         CNVZerner       .... off
 Static damping         CNVDamp         .... on
   Fraction old density DampFac         ....    0.7000
   Max. Damping (<1)    DampMax         ....    0.9800
   Min. Damping (>=0)   DampMin         ....    0.0000
   Turn off err/grad.   DampErr         ....    0.1000
 Fernandez-Rico         CNVRico         .... off

SCF Procedure:
 Maximum # iterations   MaxIter         ....   125
 SCF integral mode      SCFMode         .... Direct
   Integral package                     .... LIBINT
 Reset frequency        DirectResetFreq ....    20
 Integral Threshold     Thresh          ....  2.500e-11 Eh
 Primitive CutOff       TCut            ....  2.500e-12 Eh

Convergence Tolerance:
 Convergence Check Mode ConvCheckMode   .... Total+1el-Energy
 Convergence forced     ConvForced      .... 1
 Energy Change          TolE            ....  1.000e-08 Eh
 1-El. energy change                    ....  1.000e-05 Eh
 DIIS Error             TolErr          ....  5.000e-07


Diagonalization of the overlap matrix:
Smallest eigenvalue                        ... 1.169e-03
Time for diagonalization                   ...    0.003 sec
Threshold for overlap eigenvalues          ... 1.000e-08
Number of eigenvalues below threshold      ... 0
Time for construction of square roots      ...    0.019 sec
Total time needed                          ...    0.022 sec

-------------------
DFT GRID GENERATION
-------------------

General Integration Accuracy     IntAcc      ...  4.340
Radial Grid Type                 RadialGrid  ... Gauss-Chebyshev
Angular Grid (max. acc.)         AngularGrid ... Lebedev-110
Angular grid pruning method      GridPruning ... 3 (G Style)
Weight generation scheme         WeightScheme... Becke
Basis function cutoff            BFCut       ...    1.0000e-11
Integration weight cutoff        WCut        ...    1.0000e-14
Grids for H and He will be reduced by one unit

# of grid points (after initial pruning)     ...   2972 (   0.0 sec)
# of grid points (after weights+screening)   ...   2972 (   0.0 sec)
Grid point division into batches done        ...    0.0 sec
Reduced shell lists constructed in    0.0 sec

Total number of grid points                  ...     2972
Total number of batches                      ...       47
Average number of points per batch           ...       63
Average number of grid points per atom       ...     2972
Average number of shells per batch           ...     8.67 (33.33%)
Average number of basis functions per batch  ...    35.33 (42.06%)
Average number of large shells per batch     ...     8.00 (92.31%)
Average number of large basis fcns per batch ...    30.67 (86.79%)
Maximum spatial batch extension              ...  20.27, 31.13, 31.13 au
Average spatial batch extension              ...   0.86,  1.32,  1.32 au

Time for grid setup =    0.061 sec

------------------------------
INITIAL GUESS: MODEL POTENTIAL
------------------------------
Loading Hartree-Fock densities                     ... done
Calculating cut-offs                               ... done
Setting up the integral package                    ... done
Initializing the effective Hamiltonian             ... done
Starting the Coulomb interaction                   ... done (   0.0 sec)
Reading the grid                                   ... done
Mapping shells                                     ... done
Starting the XC term evaluation                    ... done (   0.0 sec)
Transforming the Hamiltonian                       ... done (   0.0 sec)
Diagonalizing the Hamiltonian                      ... done (   0.0 sec)
Back transforming the eigenvectors                 ... done (   0.0 sec)
Now organizing SCF variables                       ... done
                      ------------------
                      INITIAL GUESS DONE (   0.2 sec)
                      ------------------
--------------
SCF ITERATIONS
--------------
ITER       Energy         Delta-E        Max-DP      RMS-DP      [F,P]     Damp
               ***  Starting incremental Fock matrix formation  ***
  0   -759.7163585507   0.000000000000 0.01751566  0.00038138  0.5110017 0.7000
  1   -759.7221500887  -0.005791538042 0.01763040  0.00037536  0.3585158 0.7000
  2   -759.7266284575  -0.004478368808 0.01495412  0.00031447  0.2514199 0.7000
                               ***Turning on DIIS***
  3   -759.7300192810  -0.003390823526 0.01201710  0.00025631  0.1763289 0.7000
  4   -759.7262209249   0.003798356123 0.01082323  0.00023990  0.1236750 0.7000
  5   -759.7311505935  -0.004929668586 0.03084753  0.00070277  0.0866490 0.0000
  6   -759.7398491568  -0.008698563265 0.00741930  0.00014938  0.0047500 0.0000
  7   -759.7435450604  -0.003695903610 0.00815817  0.00015845  0.0030851 0.0000
  8   -759.7414570892   0.002087971201 0.00813474  0.00011128  0.0012086 0.0000
  9   -759.7405248085   0.000932280642 0.01471895  0.00016401  0.0005805 0.0000
 10   -759.7412895231  -0.000764714593 0.00632278  0.00006938  0.0002032 0.0000
 11   -759.7406848955   0.000604627665 0.00153170  0.00002488  0.0001066 0.0000
 12   -759.7400276614   0.000657234099 0.00044404  0.00001178  0.0000454 0.0000
 13   -759.7399783585   0.000049302860 0.00022591  0.00000710  0.0000330 0.0000
 14   -759.7399676237   0.000010734799 0.00018882  0.00000767  0.0000309 0.0000
 15   -759.7400373947  -0.000069771015 0.00008373  0.00000341  0.0000310 0.0000
 16   -759.7400182576   0.000019137175 0.00015586  0.00000632  0.0000296 0.0000
 17   -759.7399211328   0.000097124732 0.00040438  0.00001629  0.0000249 0.0000
 18   -759.7399760289  -0.000054896049 0.00016515  0.00000656  0.0000089 0.0000
 19   -759.7400948967  -0.000118867782 0.00010910  0.00000446  0.0000036 0.0000
               *** Restarting incremental Fock matrix formation ***
                                   *** Resetting DIIS ***
 20   -759.7400510913   0.000043805336 0.00000284  0.00000012  0.0000034 0.0000
 21   -759.7400493852   0.000001706150 0.00000297  0.00000013  0.0000034 0.0000
 22   -759.7400503689  -0.000000983719 0.00000309  0.00000014  0.0000034 0.0000
 23   -759.7400509555  -0.000000586647 0.00000277  0.00000012  0.0000033 0.0000
 24   -759.7400514075  -0.000000452003 0.00000304  0.00000011  0.0000033 0.0000
 25   -759.7400519934  -0.000000585889 0.00000421  0.00000014  0.0000033 0.0000
 26   -759.7400526352  -0.000000641803 0.00000694  0.00000022  0.0000033 0.0000
 27   -759.7400537455  -0.000001110296 0.00001196  0.00000034  0.0000033 0.0000
 28   -759.7400545226  -0.000000777094 0.00001832  0.00000048  0.0000032 0.0000
 29   -759.7400541822   0.000000340418 0.00002059  0.00000050  0.0000031 0.0000
 30   -759.7400532746   0.000000907625 0.00001985  0.00000046  0.0000030 0.0000
 31   -759.7400528872   0.000000387399 0.00002571  0.00000058  0.0000030 0.0000
 32   -759.7400527363   0.000000150848 0.00004824  0.00000109  0.0000028 0.0000
 33   -759.7400522350   0.000000501362 0.00011145  0.00000252  0.0000026 0.0000
 34   -759.7400506661   0.000001568868 0.00020091  0.00000454  0.0000022 0.0000
 35   -759.7400490309   0.000001635231 0.00018212  0.00000412  0.0000013 0.0000
 36   -759.7400488457   0.000000185124 0.00012943  0.00000294  0.0000010 0.0000
                            ***DIIS convergence achieved***

               *****************************************************
               *                     SUCCESS                       *
               *           SCF CONVERGED AFTER  37 CYCLES          *
               *****************************************************


----------------
TOTAL SCF ENERGY
----------------

Total Energy       :         -759.74005059 Eh          -20673.57780 eV

Components:
Nuclear Repulsion  :            0.00000000 Eh               0.00000 eV
Electronic Energy  :         -759.74005059 Eh          -20673.57780 eV
One Electron Energy:        -1040.17296856 Eh          -28304.54545 eV
Two Electron Energy:          280.43291798 Eh            7630.96765 eV

Virial components:
Potential Energy   :        -1519.46953157 Eh          -41346.86799 eV
Kinetic Energy     :          759.72948098 Eh           20673.29019 eV
Virial Ratio       :            2.00001391


---------------
SCF CONVERGENCE
---------------

  Last Energy change         ...   -1.7417e-06  Tolerance :   1.0000e-08
  Last MAX-Density change    ...    2.4056e-05  Tolerance :   1.0000e-07
  Last RMS-Density change    ...    5.6026e-07  Tolerance :   5.0000e-09
  Last DIIS Error            ...    4.7182e-07  Tolerance :   5.0000e-07

             **** THE GBW FILE WAS UPDATED (21_Sc.gbw) ****
             **** DENSITY FILE WAS UPDATED (21_Sc.scfp) ****
             **** ENERGY FILE WAS UPDATED (21_Sc.en.tmp) ****
----------------------
UHF SPIN CONTAMINATION
----------------------

Expectation value of <S**2>     :     0.761470
Ideal value S*(S+1) for S=0.5   :     0.750000
Deviation                       :     0.011470

             **** THE GBW FILE WAS UPDATED (21_Sc.gbw) ****
             **** DENSITY FILE WAS UPDATED (21_Sc.scfp) ****
----------------
ORBITAL ENERGIES
----------------
                 SPIN UP ORBITALS
  NO   OCC          E(Eh)            E(eV) 
   0   1.0000    -165.899259     -4514.3483 
   1   1.0000     -19.085743      -519.3495 
   2   1.0000     -15.674934      -426.5366 
   3   1.0000     -15.672794      -426.4784 
   4   1.0000     -15.672793      -426.4784 
   5   1.0000      -2.593309       -70.5675 
   6   1.0000      -1.621090       -44.1121 
   7   1.0000      -1.621085       -44.1120 
   8   1.0000      -1.581947       -43.0470 
   9   1.0000      -0.352787        -9.5998 
  10   1.0000      -0.216081        -5.8799 
  11   0.0000       0.020180         0.5491 
  12   0.0000       0.020180         0.5491 
  13   0.0000       0.020710         0.5635 
  14   0.0000       0.077107         2.0982 
  15   0.0000       0.084889         2.3100 
  16   0.0000       0.086365         2.3501 
  17   0.0000       0.086366         2.3501 
  18   0.0000       0.089981         2.4485 
  19   0.0000       0.103852         2.8259 
  20   0.0000       0.105167         2.8617 
  21   0.0000       0.105167         2.8617 
  22   0.0000       0.105798         2.8789 
  23   0.0000       0.154814         4.2127 
  24   0.0000       0.160191         4.3590 
  25   0.0000       0.160194         4.3591 
  26   0.0000       0.176457         4.8016 
  27   0.0000       0.341664         9.2972 
  28   0.0000       0.348217         9.4755 
  29   0.0000       0.348635         9.4868 
  30   0.0000       0.348635         9.4868 
  31   0.0000       0.379347        10.3225 
  32   0.0000       0.390849        10.6355 
  33   0.0000       0.394413        10.7325 
  34   0.0000       0.394414        10.7326 
  35   0.0000       0.406111        11.0508 
  36   0.0000       0.413304        11.2466 
  37   0.0000       0.413304        11.2466 
  38   0.0000       0.413440        11.2503 
  39   0.0000       0.414797        11.2872 
  40   0.0000       0.415521        11.3069 
  41   0.0000       0.415521        11.3069 
  42   0.0000       0.416047        11.3212 
  43   0.0000       1.036140        28.1948 
  44   0.0000       1.068632        29.0789 
  45   0.0000       1.074347        29.2345 
  46   0.0000       1.074348        29.2345 
  47   0.0000       1.080817        29.4105 
  48   0.0000       1.085304        29.5326 
  49   0.0000       1.085306        29.5327 
  50   0.0000       1.099172        29.9100 
  51   0.0000       1.182869        32.1875 
  52   0.0000       1.183080        32.1933 
  53   0.0000       1.183081        32.1933 
  54   0.0000       1.183419        32.2025 
  55   0.0000       1.184523        32.2325 
  56   0.0000       1.185361        32.2553 
  57   0.0000       1.185361        32.2553 
  58   0.0000       1.186859        32.2961 
  59   0.0000       1.186976        32.2993 
  60   0.0000       1.278702        34.7952 
  61   0.0000       1.278703        34.7953 
  62   0.0000       1.281770        34.8787 
  63   0.0000       1.294284        35.2193 
  64   0.0000       1.298502        35.3340 
  65   0.0000       1.298504        35.3341 
  66   0.0000       1.302770        35.4502 
  67   0.0000       1.747421        47.5497 
  68   0.0000       3.043733        82.8242 
  69   0.0000       3.072064        83.5951 
  70   0.0000       3.077993        83.7564 
  71   0.0000       3.077995        83.7565 
  72   0.0000       3.096193        84.2517 
  73   0.0000       4.431352       120.5832 
  74   0.0000       4.431354       120.5833 
  75   0.0000       4.434673       120.6736 
  76   0.0000       4.452185       121.1501 
  77   0.0000       4.461410       121.4011 
  78   0.0000       4.461414       121.4012 
  79   0.0000       4.469642       121.6252 
  80   0.0000       6.798388       184.9935 
  81   0.0000      23.030620       626.6950 
  82   0.0000      77.166724      2099.8133 
  83   0.0000     480.579242     13077.2260 

                 SPIN DOWN ORBITALS
  NO   OCC          E(Eh)            E(eV) 
   0   1.0000    -165.899394     -4514.3520 
   1   1.0000     -19.073052      -519.0041 
   2   1.0000     -15.672560      -426.4720 
   3   1.0000     -15.654683      -425.9856 
   4   1.0000     -15.654681      -425.9855 
   5   1.0000      -2.538826       -69.0850 
   6   1.0000      -1.575258       -42.8649 
   7   1.0000      -1.521167       -41.3931 
   8   1.0000      -1.521160       -41.3929 
   9   1.0000      -0.204531        -5.5656 
  10   0.0000       0.017397         0.4734 
  11   0.0000       0.023537         0.6405 
  12   0.0000       0.023537         0.6405 
  13   0.0000       0.078759         2.1432 
  14   0.0000       0.088363         2.4045 
  15   0.0000       0.088364         2.4045 
  16   0.0000       0.088437         2.4065 
  17   0.0000       0.091222         2.4823 
  18   0.0000       0.093632         2.5479 
  19   0.0000       0.104245         2.8366 
  20   0.0000       0.111551         3.0355 
  21   0.0000       0.111552         3.0355 
  22   0.0000       0.168504         4.5852 
  23   0.0000       0.171925         4.6783 
  24   0.0000       0.171927         4.6784 
  25   0.0000       0.182923         4.9776 
  26   0.0000       0.199205         5.4206 
  27   0.0000       0.348019         9.4701 
  28   0.0000       0.358854         9.7649 
  29   0.0000       0.358855         9.7649 
  30   0.0000       0.387441        10.5428 
  31   0.0000       0.399405        10.8684 
  32   0.0000       0.401563        10.9271 
  33   0.0000       0.401564        10.9271 
  34   0.0000       0.409884        11.1535 
  35   0.0000       0.415068        11.2946 
  36   0.0000       0.415505        11.3065 
  37   0.0000       0.415506        11.3065 
  38   0.0000       0.416304        11.3282 
  39   0.0000       0.418532        11.3888 
  40   0.0000       0.421594        11.4721 
  41   0.0000       0.421594        11.4722 
  42   0.0000       0.423887        11.5345 
  43   0.0000       1.070796        29.1378 
  44   0.0000       1.090080        29.6626 
  45   0.0000       1.093610        29.7586 
  46   0.0000       1.093611        29.7587 
  47   0.0000       1.094662        29.7873 
  48   0.0000       1.094665        29.7873 
  49   0.0000       1.104960        30.0675 
  50   0.0000       1.122107        30.5341 
  51   0.0000       1.184989        32.2452 
  52   0.0000       1.185204        32.2510 
  53   0.0000       1.185204        32.2510 
  54   0.0000       1.185506        32.2593 
  55   0.0000       1.190737        32.4016 
  56   0.0000       1.192890        32.4602 
  57   0.0000       1.192891        32.4602 
  58   0.0000       1.199223        32.6325 
  59   0.0000       1.199661        32.6444 
  60   0.0000       1.302200        35.4347 
  61   0.0000       1.303408        35.4675 
  62   0.0000       1.303409        35.4676 
  63   0.0000       1.305590        35.5269 
  64   0.0000       1.316581        35.8260 
  65   0.0000       1.327912        36.1343 
  66   0.0000       1.327913        36.1344 
  67   0.0000       1.762883        47.9705 
  68   0.0000       3.083501        83.9063 
  69   0.0000       3.088194        84.0340 
  70   0.0000       3.088196        84.0341 
  71   0.0000       3.103359        84.4467 
  72   0.0000       3.126537        85.0774 
  73   0.0000       4.467024       121.5539 
  74   0.0000       4.469138       121.6114 
  75   0.0000       4.469139       121.6115 
  76   0.0000       4.473159       121.7208 
  77   0.0000       4.495094       122.3177 
  78   0.0000       4.515579       122.8751 
  79   0.0000       4.515580       122.8752 
  80   0.0000       6.812714       185.3834 
  81   0.0000      23.038898       626.9203 
  82   0.0000      77.169514      2099.8892 
  83   0.0000     480.579718     13077.2390 

                    ********************************
                    * MULLIKEN POPULATION ANALYSIS *
                    ********************************

--------------------------------------------
MULLIKEN ATOMIC CHARGES AND SPIN POPULATIONS
--------------------------------------------
   0 Sc:   -0.000000    1.000000
Sum of atomic charges         :   -0.0000000
Sum of atomic spin populations:    1.0000000

-----------------------------------------------------
MULLIKEN REDUCED ORBITAL CHARGES AND SPIN POPULATIONS
-----------------------------------------------------
CHARGE
  0 Scs       :     7.994119  s :     7.994119
      pz      :     3.999526  p :    11.998985
      px      :     3.999541
      py      :     3.999918
      dz2     :     0.001466  d :     1.005846
      dxz     :     0.962176
      dyz     :     0.037647
      dx2y2   :     0.003763
      dxy     :     0.000793
      f0      :     0.000191  f :     0.001015
      f+1     :     0.000417
      f-1     :     0.000040
      f+2     :     0.000243
      f-2     :     0.000041
      f+3     :     0.000042
      f-3     :     0.000042
      g0      :     0.000016  g :     0.000034
      g+1     :     0.000000
      g-1     :     0.000000
      g+2     :     0.000014
      g-2     :     0.000002
      g+3     :     0.000001
      g-3     :     0.000001
      g+4     :     0.000000
      g-4     :     0.000000

SPIN
  0 Scs       :     0.004989  s :     0.004989
      pz      :    -0.000332  p :    -0.000613
      px      :    -0.000318
      py      :     0.000037
      dz2     :    -0.001243  d :     0.995000
      dxz     :     0.962176
      dyz     :     0.037642
      dx2y2   :    -0.003189
      dxy     :    -0.000386
      f0      :     0.000187  f :     0.000613
      f+1     :     0.000351
      f-1     :    -0.000005
      f+2     :     0.000124
      f-2     :     0.000021
      f+3     :    -0.000033
      f-3     :    -0.000032
      g0      :     0.000003  g :     0.000011
      g+1     :     0.000000
      g-1     :     0.000000
      g+2     :     0.000005
      g-2     :     0.000001
      g+3     :     0.000001
      g-3     :     0.000001
      g+4     :    -0.000000
      g-4     :    -0.000000


                     *******************************
                     * LOEWDIN POPULATION ANALYSIS *
                     *******************************

-------------------------------------------
LOEWDIN ATOMIC CHARGES AND SPIN POPULATIONS
-------------------------------------------
   0 Sc:   -0.000000    1.000000

----------------------------------------------------
LOEWDIN REDUCED ORBITAL CHARGES AND SPIN POPULATIONS
----------------------------------------------------
CHARGE
  0 Scs       :     7.994119  s :     7.994119
      pz      :     3.999526  p :    11.998985
      px      :     3.999541
      py      :     3.999918
      dz2     :     0.001466  d :     1.005846
      dxz     :     0.962176
      dyz     :     0.037647
      dx2y2   :     0.003763
      dxy     :     0.000793
      f0      :     0.000191  f :     0.001015
      f+1     :     0.000417
      f-1     :     0.000040
      f+2     :     0.000243
      f-2     :     0.000041
      f+3     :     0.000042
      f-3     :     0.000042
      g0      :     0.000016  g :     0.000034
      g+1     :     0.000000
      g-1     :     0.000000
      g+2     :     0.000014
      g-2     :     0.000002
      g+3     :     0.000001
      g-3     :     0.000001
      g+4     :     0.000000
      g-4     :     0.000000

SPIN
  0 Scs       :     0.004989  s :     0.004989
      pz      :    -0.000332  p :    -0.000613
      px      :    -0.000318
      py      :     0.000037
      dz2     :    -0.001243  d :     0.995000
      dxz     :     0.962176
      dyz     :     0.037642
      dx2y2   :    -0.003189
      dxy     :    -0.000386
      f0      :     0.000187  f :     0.000613
      f+1     :     0.000351
      f-1     :    -0.000005
      f+2     :     0.000124
      f-2     :     0.000021
      f+3     :    -0.000033
      f-3     :    -0.000032
      g0      :     0.000003  g :     0.000011
      g+1     :     0.000000
      g-1     :     0.000000
      g+2     :     0.000005
      g-2     :     0.000001
      g+3     :     0.000001
      g-3     :     0.000001
      g+4     :    -0.000000
      g-4     :    -0.000000


                      *****************************
                      * MAYER POPULATION ANALYSIS *
                      *****************************

  NA   - Mulliken gross atomic population
  ZA   - Total nuclear charge
  QA   - Mulliken gross atomic charge
  VA   - Mayer's total valence
  BVA  - Mayer's bonded valence
  FA   - Mayer's free valence

  ATOM       NA         ZA         QA         VA         BVA        FA
  0 Sc    21.0000    21.0000    -0.0000     1.0229     0.0000     1.0229

  Mayer bond orders larger than 0.100000


-------
TIMINGS
-------

Total SCF time: 0 days 0 hours 0 min 9 sec 

Total time                  ....       9.940 sec
Sum of individual times     ....       9.168 sec  ( 92.2%)

Fock matrix formation       ....       7.886 sec  ( 79.3%)
Diagonalization             ....       0.288 sec  (  2.9%)
Density matrix formation    ....       0.027 sec  (  0.3%)
Population analysis         ....       0.113 sec  (  1.1%)
Initial guess               ....       0.125 sec  (  1.3%)
Orbital Transformation      ....       0.000 sec  (  0.0%)
Orbital Orthonormalization  ....       0.000 sec  (  0.0%)
DIIS solution               ....       0.669 sec  (  6.7%)


           ************************************************************
           *        Program running with 24 parallel MPI-processes    *
           *              working on a common directory               *
           ************************************************************


------------------------------------------------------------------------------- 
                              ORCA-MATRIX DRIVEN CI                            
------------------------------------------------------------------------------- 

--------------------------------
AUTOMATIC CHOICE OF INCORE LEVEL
--------------------------------

Memory available                           ...   2500.00 MB
Memory needed for S+T                      ...      2.56 MB
Memory needed for J+K                      ...      5.15 MB
Memory needed for DIIS                     ...     35.86 MB
Memory needed for 3-ext                    ...     17.81 MB
Memory needed for 4-ext                    ...    109.81 MB
Memory needed for triples                  ...     14.84 MB
 -> Final InCoreLevel    ... 5
 -> check shows that triples correction can be computed


Wavefunction type
-----------------
Correlation treatment                      ...      CCSD     
Single excitations                         ... ON
Orbital optimization                       ... OFF
Calculation of Z vector                    ... OFF
Calculation of Brueckner orbitals          ... OFF
Perturbative triple excitations            ... ON
Calculation of F12 correction              ... OFF
Frozen core treatment                      ... chemical core (10 el)
Reference Wavefunction                     ... UHF
  Alpha-MOs occ    :     5 ...   10 (  6 MO's/  6 electrons)
  Beta-MOs occ     :     5 ...    9 (  5 MO's/  5 electrons)
  Alpha-MOs virt   :    11 ...   83 ( 73 MO's              )
  Beta-MOs virt    :    10 ...   83 ( 74 MO's              )
Number of AO's                             ...     84
Number of electrons                        ...     21
Number of correlated electrons             ...     11

Algorithmic settings
--------------------
Integral transformation                    ... AO direct full transformation
K(C) Formation                             ... FULL-MO TRAFO
Maximum number of iterations               ...        50
Convergence tolerance (max. residuum)      ... 1.000e-05
Level shift for amplitude update           ... 2.000e-01
Maximum number of DIIS vectors             ...         7
DIIS turned on at iteration                ...         0
Damping before turning on DIIS             ...     0.500
Damping after turning on DIIS              ...     0.000
Pair specific amplitude update             ... OFF
Natural orbital iterations                 ... OFF
Perturbative natural orbital generation    ... OFF
Printlevel                                 ... 2

Memory handling:
----------------
Maximum memory for working arrays          ...   2500 MB
Data storage in matrix containers          ... UNCOMPRESSED
Data type for integral storage             ... DOUBLE
In-Core Storage of quantities:
   Amplitudes+Sigma Vector      ... YES
   J+K operators                ... YES
   DIIS vectors                 ... YES
   3-external integrals         ... YES
   4-external integrals         ... YES


Initializing the integral package          ... done
Warning: reference  - re-canonicalizations have been set to INT 1 VIRT 1

--------------------------
UNRESTRICTED FOCK OPERATOR
--------------------------

<ss|ss>:         2211 b            0 skpd (  0.0%)    0.001 s ( 0.001 ms/b)
<ss|sp>:         4356 b            0 skpd (  0.0%)    0.004 s ( 0.001 ms/b)
<ss|sd>:         3630 b            0 skpd (  0.0%)    0.002 s ( 0.001 ms/b)
<ss|sf>:         2178 b            0 skpd (  0.0%)    0.001 s ( 0.000 ms/b)
<ss|sg>:          726 b            0 skpd (  0.0%)    0.001 s ( 0.001 ms/b)
<ss|pp>:         1386 b            0 skpd (  0.0%)    0.003 s ( 0.002 ms/b)
<ss|pd>:         1980 b            0 skpd (  0.0%)    0.003 s ( 0.001 ms/b)
<ss|pf>:         1188 b            0 skpd (  0.0%)    0.001 s ( 0.001 ms/b)
<ss|pg>:          396 b            0 skpd (  0.0%)    0.001 s ( 0.002 ms/b)
<ss|dd>:          990 b            0 skpd (  0.0%)    0.002 s ( 0.002 ms/b)
<ss|df>:          990 b            0 skpd (  0.0%)    0.001 s ( 0.001 ms/b)
<ss|dg>:          330 b            0 skpd (  0.0%)    0.001 s ( 0.003 ms/b)
<ss|ff>:          396 b            0 skpd (  0.0%)    0.001 s ( 0.002 ms/b)
<ss|fg>:          198 b            0 skpd (  0.0%)    0.001 s ( 0.005 ms/b)
<ss|gg>:           66 b            0 skpd (  0.0%)    0.001 s ( 0.009 ms/b)
<sp|sp>:         2211 b            0 skpd (  0.0%)    0.004 s ( 0.002 ms/b)
<sp|sd>:         3630 b            0 skpd (  0.0%)    0.004 s ( 0.001 ms/b)
<sp|sf>:         2178 b            6 skpd (  0.3%)    0.002 s ( 0.001 ms/b)
<sp|sg>:          726 b           11 skpd (  1.5%)    0.002 s ( 0.003 ms/b)
<sp|pp>:         1386 b            0 skpd (  0.0%)    0.005 s ( 0.004 ms/b)
<sp|pd>:         1980 b            0 skpd (  0.0%)    0.005 s ( 0.003 ms/b)
<sp|pf>:         1188 b            1 skpd (  0.1%)    0.002 s ( 0.001 ms/b)
<sp|pg>:          396 b            0 skpd (  0.0%)    0.002 s ( 0.006 ms/b)
<sp|dd>:          990 b            0 skpd (  0.0%)    0.004 s ( 0.004 ms/b)
<sp|df>:          990 b            0 skpd (  0.0%)    0.002 s ( 0.002 ms/b)
<sp|dg>:          330 b            0 skpd (  0.0%)    0.002 s ( 0.007 ms/b)
<sp|ff>:          396 b            1 skpd (  0.3%)    0.001 s ( 0.002 ms/b)
<sp|fg>:          198 b            0 skpd (  0.0%)    0.001 s ( 0.006 ms/b)
<sp|gg>:           66 b            0 skpd (  0.0%)    0.002 s ( 0.023 ms/b)
<sd|sd>:         1540 b           11 skpd (  0.7%)    0.002 s ( 0.001 ms/b)
<sd|sf>:         1815 b           30 skpd (  1.7%)    0.001 s ( 0.001 ms/b)
<sd|sg>:          605 b           34 skpd (  5.6%)    0.001 s ( 0.002 ms/b)
<sd|pp>:         1155 b            2 skpd (  0.2%)    0.005 s ( 0.004 ms/b)
<sd|pd>:         1650 b           13 skpd (  0.8%)    0.006 s ( 0.004 ms/b)
<sd|pf>:          990 b           10 skpd (  1.0%)    0.002 s ( 0.002 ms/b)
<sd|pg>:          330 b            8 skpd (  2.4%)    0.003 s ( 0.008 ms/b)
<sd|dd>:          825 b            0 skpd (  0.0%)    0.005 s ( 0.006 ms/b)
<sd|df>:          825 b            3 skpd (  0.4%)    0.002 s ( 0.003 ms/b)
<sd|dg>:          275 b            0 skpd (  0.0%)    0.003 s ( 0.012 ms/b)
<sd|ff>:          330 b            0 skpd (  0.0%)    0.001 s ( 0.004 ms/b)
<sd|fg>:          165 b            0 skpd (  0.0%)    0.002 s ( 0.011 ms/b)
<sd|gg>:           55 b            0 skpd (  0.0%)    0.002 s ( 0.044 ms/b)
<sf|sf>:          561 b           20 skpd (  3.6%)    0.001 s ( 0.001 ms/b)
<sf|sg>:          363 b           31 skpd (  8.5%)    0.001 s ( 0.002 ms/b)
<sf|pp>:          693 b           16 skpd (  2.3%)    0.004 s ( 0.005 ms/b)
<sf|pd>:          990 b           23 skpd (  2.3%)    0.004 s ( 0.004 ms/b)
<sf|pf>:          594 b           40 skpd (  6.7%)    0.001 s ( 0.002 ms/b)
<sf|pg>:          198 b           15 skpd (  7.6%)    0.002 s ( 0.010 ms/b)
<sf|dd>:          495 b            1 skpd (  0.2%)    0.004 s ( 0.008 ms/b)
<sf|df>:          495 b           12 skpd (  2.4%)    0.002 s ( 0.004 ms/b)
<sf|dg>:          165 b            5 skpd (  3.0%)    0.002 s ( 0.014 ms/b)
<sf|ff>:          198 b           12 skpd (  6.1%)    0.001 s ( 0.006 ms/b)
<sf|fg>:           99 b            4 skpd (  4.0%)    0.002 s ( 0.017 ms/b)
<sf|gg>:           33 b            0 skpd (  0.0%)    0.002 s ( 0.064 ms/b)
<sg|sg>:           66 b           10 skpd ( 15.2%)    0.000 s ( 0.003 ms/b)
<sg|pp>:          231 b           18 skpd (  7.8%)    0.002 s ( 0.011 ms/b)
<sg|pd>:          330 b           35 skpd ( 10.6%)    0.003 s ( 0.009 ms/b)
<sg|pf>:          198 b           34 skpd ( 17.2%)    0.001 s ( 0.005 ms/b)
<sg|pg>:           66 b           19 skpd ( 28.8%)    0.001 s ( 0.012 ms/b)
<sg|dd>:          165 b            3 skpd (  1.8%)    0.003 s ( 0.016 ms/b)
<sg|df>:          165 b           15 skpd (  9.1%)    0.001 s ( 0.008 ms/b)
<sg|dg>:           55 b            7 skpd ( 12.7%)    0.001 s ( 0.017 ms/b)
<sg|ff>:           66 b            7 skpd ( 10.6%)    0.001 s ( 0.012 ms/b)
<sg|fg>:           33 b            8 skpd ( 24.2%)    0.001 s ( 0.022 ms/b)
<sg|gg>:           11 b            1 skpd (  9.1%)    0.001 s ( 0.089 ms/b)
<pp|pp>:          231 b            0 skpd (  0.0%)    0.005 s ( 0.024 ms/b)
<pp|pd>:          630 b            0 skpd (  0.0%)    0.006 s ( 0.010 ms/b)
<pp|pf>:          378 b            0 skpd (  0.0%)    0.002 s ( 0.005 ms/b)
<pp|pg>:          126 b            0 skpd (  0.0%)    0.003 s ( 0.024 ms/b)
<pp|dd>:          315 b            0 skpd (  0.0%)    0.005 s ( 0.017 ms/b)
<pp|df>:          315 b            0 skpd (  0.0%)    0.002 s ( 0.007 ms/b)
<pp|dg>:          105 b            0 skpd (  0.0%)    0.003 s ( 0.031 ms/b)
<pp|ff>:          126 b            0 skpd (  0.0%)    0.001 s ( 0.008 ms/b)
<pp|fg>:           63 b            0 skpd (  0.0%)    0.001 s ( 0.024 ms/b)
<pp|gg>:           21 b            0 skpd (  0.0%)    0.002 s ( 0.097 ms/b)
<pd|pd>:          465 b            0 skpd (  0.0%)    0.007 s ( 0.015 ms/b)
<pd|pf>:          540 b            0 skpd (  0.0%)    0.003 s ( 0.006 ms/b)
<pd|pg>:          180 b            0 skpd (  0.0%)    0.006 s ( 0.031 ms/b)
<pd|dd>:          450 b            0 skpd (  0.0%)    0.009 s ( 0.020 ms/b)
<pd|df>:          450 b            0 skpd (  0.0%)    0.004 s ( 0.009 ms/b)
<pd|dg>:          150 b            0 skpd (  0.0%)    0.006 s ( 0.041 ms/b)
<pd|ff>:          180 b            0 skpd (  0.0%)    0.002 s ( 0.012 ms/b)
<pd|fg>:           90 b            0 skpd (  0.0%)    0.003 s ( 0.036 ms/b)
<pd|gg>:           30 b            0 skpd (  0.0%)    0.004 s ( 0.149 ms/b)
<pf|pf>:          171 b            0 skpd (  0.0%)    0.001 s ( 0.008 ms/b)
<pf|pg>:          108 b            0 skpd (  0.0%)    0.004 s ( 0.037 ms/b)
<pf|dd>:          270 b            0 skpd (  0.0%)    0.006 s ( 0.022 ms/b)
<pf|df>:          270 b            0 skpd (  0.0%)    0.003 s ( 0.011 ms/b)
<pf|dg>:           90 b            0 skpd (  0.0%)    0.004 s ( 0.050 ms/b)
<pf|ff>:          108 b            0 skpd (  0.0%)    0.002 s ( 0.018 ms/b)
<pf|fg>:           54 b            0 skpd (  0.0%)    0.003 s ( 0.050 ms/b)
<pf|gg>:           18 b            0 skpd (  0.0%)    0.003 s ( 0.193 ms/b)
<pg|pg>:           21 b            0 skpd (  0.0%)    0.001 s ( 0.058 ms/b)
<pg|dd>:           90 b            0 skpd (  0.0%)    0.004 s ( 0.046 ms/b)
<pg|df>:           90 b            0 skpd (  0.0%)    0.002 s ( 0.020 ms/b)
<pg|dg>:           30 b            0 skpd (  0.0%)    0.003 s ( 0.096 ms/b)
<pg|ff>:           36 b            0 skpd (  0.0%)    0.001 s ( 0.025 ms/b)
<pg|fg>:           18 b            0 skpd (  0.0%)    0.002 s ( 0.088 ms/b)
<pg|gg>:            6 b            0 skpd (  0.0%)    0.002 s ( 0.327 ms/b)
<dd|dd>:          120 b            0 skpd (  0.0%)    0.006 s ( 0.052 ms/b)
<dd|df>:          225 b            0 skpd (  0.0%)    0.003 s ( 0.013 ms/b)
<dd|dg>:           75 b            0 skpd (  0.0%)    0.005 s ( 0.062 ms/b)
<dd|ff>:           90 b            0 skpd (  0.0%)    0.002 s ( 0.020 ms/b)
<dd|fg>:           45 b            0 skpd (  0.0%)    0.003 s ( 0.057 ms/b)
<dd|gg>:           15 b            0 skpd (  0.0%)    0.004 s ( 0.236 ms/b)
<df|df>:          120 b            0 skpd (  0.0%)    0.003 s ( 0.027 ms/b)
<df|dg>:           75 b            0 skpd (  0.0%)    0.005 s ( 0.066 ms/b)
<df|ff>:           90 b            0 skpd (  0.0%)    0.003 s ( 0.029 ms/b)
<df|fg>:           45 b            0 skpd (  0.0%)    0.003 s ( 0.078 ms/b)
<df|gg>:           15 b            0 skpd (  0.0%)    0.005 s ( 0.304 ms/b)
<dg|dg>:           15 b            0 skpd (  0.0%)    0.001 s ( 0.088 ms/b)
<dg|ff>:           30 b            0 skpd (  0.0%)    0.001 s ( 0.050 ms/b)
<dg|fg>:           15 b            0 skpd (  0.0%)    0.002 s ( 0.124 ms/b)
<dg|gg>:            5 b            0 skpd (  0.0%)    0.002 s ( 0.468 ms/b)
<ff|ff>:           21 b            0 skpd (  0.0%)    0.001 s ( 0.052 ms/b)
<ff|fg>:           18 b            0 skpd (  0.0%)    0.002 s ( 0.112 ms/b)
<ff|gg>:            6 b            0 skpd (  0.0%)    0.003 s ( 0.496 ms/b)
<fg|fg>:            6 b            0 skpd (  0.0%)    0.001 s ( 0.244 ms/b)
<fg|gg>:            3 b            0 skpd (  0.0%)    0.002 s ( 0.689 ms/b)
<gg|gg>:            1 b            0 skpd (  0.0%)    0.001 s ( 1.160 ms/b)
Recanonicalizing the internal orbitals
Recanonicalizing the virtual orbitals
Time needed for Fock operator              ...            0.462 sec
Reference energy                           ...   -759.740051116
Warning: for UHF the TrafoType has to be JK
Warning: for UHF the K(C)-option cannot be MO but must be AOX

-------------------------------
PARTIAL EXCHANGE TRANSFORMATION
-------------------------------

Transformation type                        ... two-operators
Generation of integrals (i,mue|j,nue)      ... ON
Generation of integrals (mue,kappa|nue,tau)... ON
Generation of integrals (i,mue|a,nue)      ... ON
Dimension of the basis                     ...   84
Number of internal alpha-MOs               ...    6 (   5-  10)
Number of internal beta-MOs                ...    5 (   5-   9)
Number of external alpha-MOs               ...   73 (  11-  83)
Number of external beta-MOs                ...   74 (  10-  83)
Pair cutoff                                ... 0.000e+00 Eh
Number of AO pairs in the trafo            ... 3570
Total Number of distinct AO pairs          ... 3570
Memory devoted for trafo                   ... 2500.0 MB 
Max. Number of MO pairs treated together   ... 46439      
Number Format for Storage                  ... Double (8 Byte)
Integral package used                      ... LIBINT

Starting integral evaluation:
    ... done with AO integral generation
Closing buffer AOK[aa] ( 0.00 GB; CompressionRatio= 0.96)
Closing buffer AOK[bb] ( 0.00 GB; CompressionRatio= 0.94)
Closing buffer AOK[ab] ( 0.00 GB; CompressionRatio= 0.95)
Closing buffer AOK[ba] ( 0.00 GB; CompressionRatio= 0.95)
Collecting buffer AOK 
Closing buffer IAAO1[aa] ( 0.00 GB; CompressionRatio= 1.00)
Closing buffer IAAO1[bb] ( 0.00 GB; CompressionRatio= 1.00)
Closing buffer IAAO1[ab] ( 0.00 GB; CompressionRatio= 1.00)
Closing buffer IAAO1[ba] ( 0.00 GB; CompressionRatio= 1.00)
Closing buffer IAAO2[aa] ( 0.00 GB; CompressionRatio= 1.00)
Closing buffer IAAO2[bb] ( 0.00 GB; CompressionRatio= 1.00)
Closing buffer IAAO2[ab] ( 0.00 GB; CompressionRatio= 1.00)
Closing buffer IAAO2[ba] ( 0.00 GB; CompressionRatio= 1.00)
Collecting buffer IAAO 
Closing buffer PRQS    ( 0.00 GB; CompressionRatio= 1.00)
Collecting buffer PRQS 
Number of alpha/alpha MO pairs in trafo    ...   21
Number of beta /beta  MO pairs in trafo    ...   15
Number of alpha/ beta MO pairs in trafo    ...   30
------------------------
SORTING OF (i,mue|j,nue)
------------------------

SORTING OF ALPHA/ALPHA PAIRS
IBATCH = 1 of  1
Closing buffer KAO[aa] ( 0.00 GB; CompressionRatio= 1.00)
Collecting buffer KAO 
SORTING OF BETA /BETA  PAIRS
IBATCH = 1 of  1
Closing buffer KAO[bb] ( 0.00 GB; CompressionRatio= 1.00)
Collecting buffer KAO 
SORTING OF ALPHA/BETA  PAIRS
IBATCH = 1 of  1
Closing buffer KAO[ab] ( 0.00 GB; CompressionRatio= 0.999787460149)
Collecting buffer KAO[ab] 
------------------------
SORTING OF (i,mue|a,nue)
------------------------

Number of alpha/alpha (i,a) pairs in trafo  ...  438
Number of beta /beta  (i,a) pairs in trafo  ...  370
Number of alpha/ beta (i,a) pairs in trafo  ...  444
Number of beta /alpha (i,a) pairs in trafo  ...  365
Setting up the alpha/alpha list             ... done
Setting up the beta /beta  list             ... done
Setting up the alpha/beta  list             ... done
Setting up the beta /alpha list             ... done
    ... Now sorting (i,mue|a,nue)integrals
    ... Integrals (i,b|a,c) will be made on the fly
SORTING OF ALPHA/ALPHA PAIRS
IBATCH = 1 of  1
Closing buffer IPAQ[aa]  0.00 GB; CompressionRatio= 1.00)
SORTING OF BETA /BETA  PAIRS
IBATCH = 1 of  1
Closing buffer IPAQ[bb]( 0.00 GB; CompressionRatio= 1.00)
SORTING OF ALPHA/BETA  PAIRS (NMatSort_ab=19)
IBATCH = 1 of  1
Closing buffer IPAQ[ab]( 0.00 GB; CompressionRatio= 1.00)
SORTING OF BETA/ALPHA  PAIRS
IBATCH = 1 of  1
Closing buffer IPAQ[ba]( 0.00 GB; CompressionRatio= 1.00)
N(AO-Batches) Done                         ...      2028 
N(AO-Batches) Skipped                      ...         0 
N(IJ)-pairs Skipped                        ...         0 
TOTAL TIME for half transformation         ...     5.851 sec
AO-integral generation                     ...     0.054 sec
Half transformation                        ...     0.568 sec
K-integral sorting                         ...     1.153 sec
<ss|**>: 
------------------------------
PARTIAL COULOMB TRANSFORMATION
------------------------------

Transformation type                        ... two-operators
Dimension of the basis                     ...   84
Number of internal alpha-MOs               ...    6 (5-10)
Number of internal beta-MOs                ...    5 (5-9)
Pair cutoff                                ... 0.000e+00 Eh
Number of AO pairs included in the trafo   ... 3570
Total Number of distinct AO pairs          ... 3570
Memory devoted for trafo                   ... 2500.0 MB 
Max. Number of MO pairs treated together   ... 91787      
Max. Number of MOs treated per batch       ... 1092      
Number Format for Storage                  ... Double (8 Byte)
AO-integral source                         ... DIRECT
Integral package used                      ... LIBINT

Starting integral evaluation:
       23166 b        0 skpd     0.018 s (  0.001 ms/b)
<sp|**>: <sd|**>:        23166 b        0 skpd     0.035 s (  0.002 ms/b)
<sf|**>:        19305 b        0 skpd     0.060 s (  0.003 ms/b)
       11583 b        0 skpd     0.054 s (  0.005 ms/b)
<sg|**>:         3861 b        0 skpd     0.030 s (  0.008 ms/b)
<pp|**>:         7371 b        0 skpd     0.057 s (  0.008 ms/b)
<pd|**>:        10530 b        0 skpd     0.095 s (  0.009 ms/b)
<pf|**>:         6318 b        0 skpd     0.069 s (  0.011 ms/b)
<pg|**>:         2106 b        0 skpd     0.065 s (  0.031 ms/b)
<dd|**>:         5265 b        0 skpd     0.072 s (  0.014 ms/b)
<df|**>:         5265 b        0 skpd     0.099 s (  0.019 ms/b)
<dg|**>:         1755 b        0 skpd     0.078 s (  0.044 ms/b)
<ff|**>:         2106 b        0 skpd     0.066 s (  0.031 ms/b)
<fg|**>:         1053 b        0 skpd     0.066 s (  0.063 ms/b)
<gg|**>:          351 b        0 skpd     0.053 s (  0.152 ms/b)
Closing buffer AOJ[aa] ( 0.00 GB; CompressionRatio= 0.93)
Closing buffer AOJ[bb] ( 0.00 GB; CompressionRatio= 0.00)
Collecting buffer AOJ 
    ... done with AO integral generation
Number of Alpha-MO pairs included          ...   21
Number of Beta-MO pairs included           ...   15
    ... Now sorting integrals
SORTING ALPHA/ALPHA PAIRS
IBATCH = 1 of  1
Closing buffer JAO[aa] ( 0.00 GB; CompressionRatio= 1.00)
SORTING BETA/BETA PAIRS
IBATCH = 1 of  1
Closing buffer JAO[bb] ( 0.00 GB; CompressionRatio= 1.00)
Collecting buffer JAO 
TOTAL TIME for half transformation         ...     1.185 sec
AO-integral generation                     ...     0.616 sec
Half transformation                        ...     0.311 sec
J-integral sorting                         ...     0.107 sec

-------------------------- SECOND HALF TRANSFORMATION -------------------------
Formation of (ij|kl),(ij|ka), (ij|ab)      ... ok (     0.172 sec)
Formation of (ik|jl),(ik|ja), (ia|jb)      ... ok (     0.319 sec)


-----------------------
SPIN UNRESTRICTED GUESS
-----------------------

Entering MDCI_UHF_Guess, Tailored=0
Spin-components of the MP2 energy:
EMP2(aa)=     -0.039932406
EMP2(bb)=     -0.031774773
EMP2(ab)=     -0.198826761

Initial guess performed in     0.007 sec
E(0)                                       ...   -759.740051116
E(MP2)                                     ...     -0.270533940
Initial E(tot)                             ...   -760.010585056
<T|T>                                      ...      0.091689751
Number of pairs included                   ... 55

------------------------------------------------
                  UHF COUPLED CLUSTER ITERATIONS
------------------------------------------------

Number of amplitudes to be optimized       ...       229804

Iter       E(tot)           E(Corr)          Delta-E          Residual     Time      <S|S>**1/2
  0   -760.010585056     -0.270533940     -0.000000000      0.013190375    0.62      0.000002121
                           *** Turning on DIIS ***
  1   -760.027168523     -0.287117407     -0.016583467      0.005985135    0.54      0.029012854
  2   -760.034392348     -0.294341232     -0.007223825      0.003648674    0.55      0.046895042
  3   -760.036193874     -0.296142758     -0.001801526      0.001883869    0.55      0.059312443
  4   -760.037094202     -0.297043086     -0.000900328      0.000652496    0.55      0.068105744
  5   -760.037349991     -0.297298875     -0.000255789      0.000394803    0.56      0.071886014
  6   -760.037370099     -0.297318983     -0.000020108      0.000299700    0.55      0.072680037
  7   -760.037372157     -0.297321041     -0.000002058      0.000210580    0.56      0.073096704
  8   -760.037366559     -0.297315443      0.000005598      0.000133707    0.54      0.073191006
  9   -760.037374554     -0.297323439     -0.000007995      0.000074849    0.57      0.073330524
 10   -760.037376352     -0.297325237     -0.000001798      0.000040882    0.56      0.073438419
 11   -760.037378011     -0.297326895     -0.000001659      0.000017835    0.55      0.073570336
 12   -760.037377743     -0.297326627      0.000000268      0.000007104    0.55      0.073644344
               --- The Coupled-Cluster iterations have converged ---

----------------------
COUPLED CLUSTER ENERGY
----------------------

E(0)                                       ...   -759.740051116
E(CORR)                                    ...     -0.297326627
E(TOT)                                     ...   -760.037377743
Singles norm <S|S>**1/2                    ...      0.073644344 ( 0.039383871, 0.034260473)  
T1 diagnostic                              ...      0.022204605                              

------------------
LARGEST AMPLITUDES
------------------
  10a-> 13a   9b-> 10b       0.083491
  10a-> 11a   9b-> 11b       0.069435
  10a-> 12a   9b-> 12b       0.069433
  10a-> 22a   9b-> 10b       0.064528
  10a-> 13a   9b-> 19b       0.060932
   9b-> 13b  -1b-> -1b       0.059013
  10a-> 11a   9b-> 20b       0.057771
  10a-> 12a   9b-> 21b       0.057771
  10a-> 20a   9b-> 11b       0.053020
  10a-> 21a   9b-> 12b       0.053019
  10a-> 22a   9b-> 19b       0.048630
  10a-> 14a  -1a-> -1a       0.046645
  10a-> 20a   9b-> 20b       0.045659
  10a-> 21a   9b-> 21b       0.045658
   9b-> 30b  -1b-> -1b       0.035134
   9b-> 16b  -1b-> -1b       0.028844

----------------------
UHF TRIPLES CORRECTION (Algorithm 1)
----------------------

Multiplier for the singles contribution    ...      1.000000000

SPIN-CASE Alpha-Alpha-Alpha:
10% done
20% done
30% done
40% done
50% done
60% done
70% done
80% done
90% done


SPIN-CASE Beta-Beta-Beta:
10% done
20% done
30% done
40% done
50% done
60% done
70% done
80% done
90% done


SPIN-CASE Alpha-Alpha-Beta:
10% done
20% done
30% done
40% done
50% done
60% done
70% done
80% done
90% done


SPIN-CASE Beta-Beta-Alpha:
10% done
20% done
30% done
40% done
50% done
60% done
70% done
80% done
90% done


Triples Correction (T)                     ...     -0.010094804
    alpha-alpha-alpha ... -0.000323457 (  3.2%)
    alpha-alpha-beta  ... -0.005339529 ( 52.9%)
    alpha-beta -beta  ... -0.004221203 ( 41.8%)
    beta -beta -beta  ... -0.000210616 (  2.1%)
Scaling of triples based on CCSD energies (Peterson et al. Molecular Physics 113, 1551 (2015))
E(T*) = f*E(T) where f = E(F12-CCSD)/E(CCSD) 
f = CCSD (with F12)/ CCSD (without F12)    ...      1.000000000
Scaled triples correction (T)              ...     -0.010094804

Final correlation energy                   ...     -0.307421431
E(CCSD)                                    ...   -760.037377743
E(CCSD(T))                                 ...   -760.047472547



        !!!!!!!!!!!!!!!!!!!!!!!!!!!!!!!!!!!!!!!!!!!!!!!!!!!!!!!!!!!!!!!!!!!!!!!!!! 
        !  Warning: Densities are linearized densities                           !
        !!!!!!!!!!!!!!!!!!!!!!!!!!!!!!!!!!!!!!!!!!!!!!!!!!!!!!!!!!!!!!!!!!!!!!!!!! 

NORM  =      1.141954282 sqrt=     1.068622610
W(HF) =      0.875691799
------------------------------------------------------------------------------
                           ORCA POPULATION ANALYSIS
------------------------------------------------------------------------------
Input electron density              ... 21_Sc.mdcip
Input spin density                  ... 21_Sc.mdcir
BaseName (.gbw .S,...)              ... 21_Sc

                    ********************************
                    * MULLIKEN POPULATION ANALYSIS *
                    ********************************

------------------------------------------
MULLIKEN ATOMIC CHARGES AND SPIN DENSITIES
------------------------------------------
   0 Sc:   -0.000000    1.000000
Sum of atomic charges       :   -0.0000000
Sum of atomic spin densities:    1.0000000

---------------------------------------------------
MULLIKEN REDUCED ORBITAL CHARGES AND SPIN DENSITIES
---------------------------------------------------
CHARGE
  0 Scs       :     7.860120  s :     7.860120
      pz      :     4.010963  p :    12.034930
      px      :     4.011039
      py      :     4.012928
      dz2     :     0.021501  d :     1.087621
      dxz     :     0.958649
      dyz     :     0.059481
      dx2y2   :     0.024665
      dxy     :     0.023323
      f0      :     0.002295  f :     0.016783
      f+1     :     0.004008
      f-1     :     0.001405
      f+2     :     0.003178
      f-2     :     0.003172
      f+3     :     0.001362
      f-3     :     0.001362
      g0      :     0.000065  g :     0.000546
      g+1     :     0.000109
      g-1     :     0.000030
      g+2     :     0.000078
      g-2     :     0.000079
      g+3     :     0.000073
      g-3     :     0.000073
      g+4     :     0.000020
      g-4     :     0.000020

SPIN
  0 Scs       :     0.011605  s :     0.011605
      pz      :     0.003693  p :     0.006856
      px      :     0.003534
      py      :    -0.000371
      dz2     :    -0.001138  d :     0.974271
      dxz     :     0.939918
      dyz     :     0.037009
      dx2y2   :    -0.001602
      dxy     :     0.000084
      f0      :     0.001009  f :     0.006952
      f+1     :     0.002642
      f-1     :     0.000058
      f+2     :     0.001680
      f-2     :     0.001676
      f+3     :    -0.000056
      f-3     :    -0.000057
      g0      :     0.000041  g :     0.000317
      g+1     :     0.000078
      g-1     :     0.000009
      g+2     :     0.000051
      g-2     :     0.000051
      g+3     :     0.000044
      g-3     :     0.000044
      g+4     :    -0.000001
      g-4     :    -0.000001


                     *******************************
                     * LOEWDIN POPULATION ANALYSIS *
                     *******************************

-----------------------------------------
LOEWDIN ATOMIC CHARGES AND SPIN DENSITIES
-----------------------------------------
   0 Sc:   -0.000000    1.000000

--------------------------------------------------
LOEWDIN REDUCED ORBITAL CHARGES AND SPIN DENSITIES
--------------------------------------------------
CHARGE
  0 Scs       :     7.860120  s :     7.860120
      pz      :     4.010963  p :    12.034930
      px      :     4.011039
      py      :     4.012928
      dz2     :     0.021501  d :     1.087621
      dxz     :     0.958649
      dyz     :     0.059481
      dx2y2   :     0.024665
      dxy     :     0.023323
      f0      :     0.002295  f :     0.016783
      f+1     :     0.004008
      f-1     :     0.001405
      f+2     :     0.003178
      f-2     :     0.003172
      f+3     :     0.001362
      f-3     :     0.001362
      g0      :     0.000065  g :     0.000546
      g+1     :     0.000109
      g-1     :     0.000030
      g+2     :     0.000078
      g-2     :     0.000079
      g+3     :     0.000073
      g-3     :     0.000073
      g+4     :     0.000020
      g-4     :     0.000020

SPIN
  0 Scs       :     0.011605  s :     0.011605
      pz      :     0.003693  p :     0.006856
      px      :     0.003534
      py      :    -0.000371
      dz2     :    -0.001138  d :     0.974271
      dxz     :     0.939918
      dyz     :     0.037009
      dx2y2   :    -0.001602
      dxy     :     0.000084
      f0      :     0.001009  f :     0.006952
      f+1     :     0.002642
      f-1     :     0.000058
      f+2     :     0.001680
      f-2     :     0.001676
      f+3     :    -0.000056
      f-3     :    -0.000057
      g0      :     0.000041  g :     0.000317
      g+1     :     0.000078
      g-1     :     0.000009
      g+2     :     0.000051
      g-2     :     0.000051
      g+3     :     0.000044
      g-3     :     0.000044
      g+4     :    -0.000001
      g-4     :    -0.000001


                      *****************************
                      * MAYER POPULATION ANALYSIS *
                      *****************************

  NA   - Mulliken gross atomic population
  ZA   - Total nuclear charge
  QA   - Mulliken gross atomic charge
  VA   - Mayer's total valence
  BVA  - Mayer's bonded valence
  FA   - Mayer's free valence

  ATOM       NA         ZA         QA         VA         BVA        FA
  0 Sc    21.0000    21.0000    -0.0000     1.9697     0.0000     1.9697





------------------------------------------------------------------------------- 
                                     TIMINGS                                   
------------------------------------------------------------------------------- 


Total execution time                   ...       16.725 sec

Fock Matrix Formation                  ...        0.462 sec (  2.8%)
Initial Guess                          ...        0.007 sec (  0.0%)
DIIS Solver                            ...        0.265 sec (  1.6%)
State Vector Update                    ...        0.011 sec (  0.1%)
Sigma-vector construction              ...        6.968 sec ( 41.7%)
  <0|H|D>                              ...        0.001 sec (  0.0% of sigma)
  <D|H|D>(0-ext Fock)                  ...        0.003 sec (  0.0% of sigma)
  <D|H|D>(0-ext)                       ...        0.006 sec (  0.1% of sigma)
  <D|H|D>(2-ext Fock)                  ...        0.002 sec (  0.0% of sigma)
  <D|H|D>(2-ext)                       ...        0.044 sec (  0.6% of sigma)
  <D|H|D>(4-ext)                       ...        3.275 sec ( 47.0% of sigma)
  <S|H|0>                              ...        0.147 sec (  2.1% of sigma)
  <S|H|D>(1-ext)                       ...        0.001 sec (  0.0% of sigma)
  <D|H|S>(1-ext)                       ...        0.023 sec (  0.3% of sigma)
  Fock-dressing                        ...        2.586 sec ( 37.1% of sigma)
  (ik|jl)-dressing                     ...        0.008 sec (  0.1% of sigma)
  (ij|ab),(ia|jb)-dressing             ...        0.660 sec (  9.5% of sigma)
  Pair energies                        ...        0.002 sec (  0.0% of sigma)
Total Time for computing (T)           ...        0.367 sec (  2.2% of ALL)
  I/O of integral and amplitudes       ...        0.111 sec ( 30.1% of (T))
  External N**7 contributions          ...        0.084 sec ( 22.8% of (T))
  Internal N**7 contributions          ...        0.041 sec ( 11.3% of (T))
  N**6 triples energy contributions    ...        0.112 sec ( 30.5% of (T))


-------------------------   --------------------
FINAL SINGLE POINT ENERGY      -760.047472546626
-------------------------   --------------------


                            ***************************************
                            *     ORCA property calculations      *
                            ***************************************

                                    ---------------------
                                    Active property flags
                                    ---------------------
   (+) Dipole Moment


------------------------------------------------------------------------------
                       ORCA ELECTRIC PROPERTIES CALCULATION
------------------------------------------------------------------------------

Dipole Moment Calculation                       ... on
Quadrupole Moment Calculation                   ... off
Polarizability Calculation                      ... off
GBWName                                         ... 21_Sc.gbw
Electron density file                           ... 21_Sc.scfp
The origin for moment calculation is the CENTER OF MASS  = ( 0.000000,  0.000000  0.000000)

-------------
DIPOLE MOMENT
-------------
                                X             Y             Z
Electronic contribution:     -0.00000      -0.00000      -0.00000
Nuclear contribution   :      0.00000       0.00000       0.00000
                        -----------------------------------------
Total Dipole Moment    :     -0.00000      -0.00000      -0.00000
                        -----------------------------------------
Magnitude (a.u.)       :      0.00000
Magnitude (Debye)      :      0.00000



--------------------
Rotational spectrum 
--------------------
 
Rotational constants in cm-1:     0.000000     0.000000     0.000000 
Rotational constants in MHz :     0.000000     0.000000     0.000000 

 Dipole components along the rotational axes: 
x,y,z [a.u.] :    -0.000000    -0.000000    -0.000000 
x,y,z [Debye]:    -0.000000    -0.000000    -0.000000 

 

                           *** MDCI DENSITY ***

------------------------------------------------------------------------------
                       ORCA ELECTRIC PROPERTIES CALCULATION
------------------------------------------------------------------------------

Dipole Moment Calculation                       ... on
Quadrupole Moment Calculation                   ... off
Polarizability Calculation                      ... off
GBWName                                         ... 21_Sc.gbw
Electron density file                           ... 21_Sc.mdcip
The origin for moment calculation is the CENTER OF MASS  = ( 0.000000,  0.000000  0.000000)

-------------
DIPOLE MOMENT
-------------
                                X             Y             Z
Electronic contribution:      0.00000       0.00000      -0.00000
Nuclear contribution   :      0.00000       0.00000       0.00000
                        -----------------------------------------
Total Dipole Moment    :      0.00000       0.00000      -0.00000
                        -----------------------------------------
Magnitude (a.u.)       :      0.00000
Magnitude (Debye)      :      0.00000



--------------------
Rotational spectrum 
--------------------
 
Rotational constants in cm-1:     0.000000     0.000000     0.000000 
Rotational constants in MHz :     0.000000     0.000000     0.000000 

 Dipole components along the rotational axes: 
x,y,z [a.u.] :     0.000000     0.000000    -0.000000 
x,y,z [Debye]:     0.000000     0.000000    -0.000000 

 

Timings for individual modules:

Sum of individual times         ...       28.557 sec (=   0.476 min)
GTO integral calculation        ...        0.888 sec (=   0.015 min)   3.1 %
SCF iterations                  ...       10.324 sec (=   0.172 min)  36.2 %
MDCI module                     ...       17.345 sec (=   0.289 min)  60.7 %
                             ****ORCA TERMINATED NORMALLY****
TOTAL RUN TIME: 0 days 0 hours 0 minutes 29 seconds 354 msec
