
                                 *****************
                                 * O   R   C   A *
                                 *****************

           --- An Ab Initio, DFT and Semiempirical electronic structure package ---

                  #######################################################
                  #                        -***-                        #
                  #          Department of theory and spectroscopy      #
                  #               Directorship: Frank Neese             #
                  #        Max Planck Institute fuer Kohlenforschung    #
                  #                Kaiser Wilhelm Platz 1               #
                  #                 D-45470 Muelheim/Ruhr               #
                  #                      Germany                        #
                  #                                                     #
                  #                  All rights reserved                #
                  #                        -***-                        #
                  #######################################################


                         Program Version 4.2.0 -  RELEASE  -


 With contributions from (in alphabetic order):
   Daniel Aravena         : Magnetic Suceptibility
   Michael Atanasov       : Ab Initio Ligand Field Theory (pilot matlab implementation)
   Alexander A. Auer      : GIAO ZORA, VPT2
   Ute Becker             : Parallelization
   Giovanni Bistoni       : ED, misc. LED, open-shell LED, HFLED
   Martin Brehm           : Molecular dynamics
   Dmytro Bykov           : SCF Hessian
   Vijay G. Chilkuri      : MRCI spin determinant printing, contributions to CSF-ICE
   Dipayan Datta          : RHF DLPNO-CCSD density
   Achintya Kumar Dutta   : EOM-CC, STEOM-CC
   Dmitry Ganyushin       : Spin-Orbit,Spin-Spin,Magnetic field MRCI
   Miquel Garcia          : C-PCM Hessian, Gaussian charge scheme
   Yang Guo               : DLPNO-NEVPT2, CIM, IAO-localization
   Andreas Hansen         : Spin unrestricted coupled pair/coupled cluster methods
   Benjamin Helmich-Paris : CASSCF linear response (MC-RPA)
   Lee Huntington         : MR-EOM, pCC
   Robert Izsak           : Overlap fitted RIJCOSX, COSX-SCS-MP3, EOM
   Christian Kollmar      : KDIIS, OOCD, Brueckner-CCSD(T), CCSD density
   Simone Kossmann        : Meta GGA functionals, TD-DFT gradient, OOMP2, MP2 Hessian
   Martin Krupicka        : AUTO-CI
   Lucas Lang             : DCDCAS
   Dagmar Lenk            : GEPOL surface, SMD
   Dimitrios Liakos       : Extrapolation schemes; Compound Job, initial MDCI parallelization
   Dimitrios Manganas     : Further ROCIS development; embedding schemes
   Dimitrios Pantazis     : SARC Basis sets
   Taras Petrenko         : DFT Hessian,TD-DFT gradient, ASA, ECA, R-Raman, ABS, FL, XAS/XES, NRVS
   Peter Pinski           : DLPNO-MP2, DLPNO-MP2 Gradient
   Christoph Reimann      : Effective Core Potentials
   Marius Retegan         : Local ZFS, SOC
   Christoph Riplinger    : Optimizer, TS searches, QM/MM, DLPNO-CCSD(T), (RO)-DLPNO pert. Triples
   Tobias Risthaus        : Range-separated hybrids, TD-DFT gradient, RPA, STAB
   Michael Roemelt        : Original ROCIS implementation
   Masaaki Saitow         : Open-shell DLPNO-CCSD energy and density
   Barbara Sandhoefer     : DKH picture change effects
   Avijit Sen             : IP-ROCIS
   Kantharuban Sivalingam : CASSCF convergence, NEVPT2, FIC-MRCI
   Bernardo de Souza      : ESD, SOC TD-DFT
   Georgi Stoychev        : AutoAux, RI-MP2 NMR
   Willem Van den Heuvel  : Paramagnetic NMR
   Boris Wezisla          : Elementary symmetry handling
   Frank Wennmohs         : Technical directorship


 We gratefully acknowledge several colleagues who have allowed us to
 interface, adapt or use parts of their codes:
   Stefan Grimme, W. Hujo, H. Kruse,             : VdW corrections, initial TS optimization,
                  C. Bannwarth                     DFT functionals, gCP, sTDA/sTD-DF
   Ed Valeev, F. Pavosevic, A. Kumar             : LibInt (2-el integral package), F12 methods
   Garnet Chan, S. Sharma, J. Yang, R. Olivares  : DMRG
   Ulf Ekstrom                                   : XCFun DFT Library
   Mihaly Kallay                                 : mrcc  (arbitrary order and MRCC methods)
   Andreas Klamt, Michael Diedenhofen            : otool_cosmo (COSMO solvation model)
   Jiri Pittner, Ondrej Demel                    : Mk-CCSD
   Frank Weinhold                                : gennbo (NPA and NBO analysis)
   Christopher J. Cramer and Donald G. Truhlar   : smd solvation model
   Lars Goerigk                                  : TD-DFT with DH, B97 family of functionals
   V. Asgeirsson, H. Jonsson                     : NEB implementation
   FAccTs GmbH                                   : IRC, NEB, NEB-TS, Multilevel, MM, QM/MM, CI optimization
   S Lehtola, MJT Oliveira, MAL Marques          : LibXC Library


 Your calculation uses the libint2 library for the computation of 2-el integrals
 For citations please refer to: http://libint.valeyev.net

 Your ORCA version has been built with support for libXC version: 4.2.3
 For citations please refer to: https://tddft.org/programs/libxc/

 This ORCA versions uses:
   CBLAS   interface :  Fast vector & matrix operations
   LAPACKE interface :  Fast linear algebra routines
   SCALAPACK package :  Parallel linear algebra routines


----- Orbital basis set information -----
Your calculation utilizes the basis: def2-QZVP
   F. Weigend and R. Ahlrichs, Phys. Chem. Chem. Phys. 7, 3297 (2005).

================================================================================
                                        WARNINGS
                       Please study these warnings very carefully!
================================================================================


WARNING: your system is open-shell and RHF/RKS was chosen
  ===> : WILL SWITCH to UHF/UKS


WARNING: MDCI localization with Augmented Hessian Foster-Boys
  ===> : Switching off randomization!

WARNING: Post HF methods need fully converged wavefunctions
  ===> : Setting SCFConvForced true
         You can overwrite this default with %scf ConvForced false 


INFO   : the flag for use of LIBINT has been found!

================================================================================
                                       INPUT FILE
================================================================================
NAME = 22_Ti.in
|  1> #
|  2> # 22_Ti CCSD(T)/Def2-QZVP
|  3> #
|  4> ! CCSD(T) Def2-QZVP tightscf
|  5> 
|  6> *xyz 0 3
|  7>  Ti 0.0 0.0 0.0
|  8> *
|  9> 
| 10> %maxcore 5000 
| 11> 
| 12> %pal
| 13> nprocs 24
| 14> end
| 15> 
| 16> 
| 17>                          ****END OF INPUT****
================================================================================

                       ****************************
                       * Single Point Calculation *
                       ****************************

---------------------------------
CARTESIAN COORDINATES (ANGSTROEM)
---------------------------------
  Ti     0.000000    0.000000    0.000000

----------------------------
CARTESIAN COORDINATES (A.U.)
----------------------------
  NO LB      ZA    FRAG     MASS         X           Y           Z
   0 Ti   22.0000    0    47.900    0.000000    0.000000    0.000000

--------------------------------
INTERNAL COORDINATES (ANGSTROEM)
--------------------------------
 Ti     0   0   0     0.000000000000     0.00000000     0.00000000

---------------------------
INTERNAL COORDINATES (A.U.)
---------------------------
 Ti     0   0   0     0.000000000000     0.00000000     0.00000000

---------------------
BASIS SET INFORMATION
---------------------
There are 1 groups of distinct atoms

 Group   1 Type Ti  : 24s18p9d3f1g contracted to 11s6p5d3f1g pattern {114111111111/951111/51111/111/1}

Atom   0Ti   basis set group =>   1


           ************************************************************
           *        Program running with 24 parallel MPI-processes    *
           *              working on a common directory               *
           ************************************************************
------------------------------------------------------------------------------
                           ORCA GTO INTEGRAL CALCULATION
------------------------------------------------------------------------------

                         BASIS SET STATISTICS AND STARTUP INFO

 # of primitive gaussian shells          ...   55
 # of primitive gaussian functions       ...  153
 # of contracted shells                  ...   26
 # of contracted basis functions         ...   84
 Highest angular momentum                ...    4
 Maximum contraction depth               ...   11
 Integral package used                   ... LIBINT
 Integral threshhold            Thresh   ...  2.500e-11
 Primitive cut-off              TCut     ...  2.500e-12


------------------------------ INTEGRAL EVALUATION ----------------------------


 * One electron integrals 
 Pre-screening matrix                    ... done
 Shell pair data                         ... done (   0.000 sec)



           ************************************************************
           *        Program running with 24 parallel MPI-processes    *
           *              working on a common directory               *
           ************************************************************
-------------------------------------------------------------------------------
                                 ORCA SCF
-------------------------------------------------------------------------------

------------
SCF SETTINGS
------------
Hamiltonian:
 Ab initio Hamiltonian  Method          .... Hartree-Fock(GTOs)


General Settings:
 Integral files         IntName         .... 22_Ti
 Hartree-Fock type      HFTyp           .... UHF
 Total Charge           Charge          ....    0
 Multiplicity           Mult            ....    3
 Number of Electrons    NEL             ....   22
 Basis Dimension        Dim             ....   84
 Nuclear Repulsion      ENuc            ....      0.0000000000 Eh

Convergence Acceleration:
 DIIS                   CNVDIIS         .... on
   Start iteration      DIISMaxIt       ....    12
   Startup error        DIISStart       ....  0.200000
   # of expansion vecs  DIISMaxEq       ....     5
   Bias factor          DIISBfac        ....   1.050
   Max. coefficient     DIISMaxC        ....  10.000
 Newton-Raphson         CNVNR           .... off
 SOSCF                  CNVSOSCF        .... off
 Level Shifting         CNVShift        .... on
   Level shift para.    LevelShift      ....    0.2500
   Turn off err/grad.   ShiftErr        ....    0.0010
 Zerner damping         CNVZerner       .... off
 Static damping         CNVDamp         .... on
   Fraction old density DampFac         ....    0.7000
   Max. Damping (<1)    DampMax         ....    0.9800
   Min. Damping (>=0)   DampMin         ....    0.0000
   Turn off err/grad.   DampErr         ....    0.1000
 Fernandez-Rico         CNVRico         .... off

SCF Procedure:
 Maximum # iterations   MaxIter         ....   125
 SCF integral mode      SCFMode         .... Direct
   Integral package                     .... LIBINT
 Reset frequency        DirectResetFreq ....    20
 Integral Threshold     Thresh          ....  2.500e-11 Eh
 Primitive CutOff       TCut            ....  2.500e-12 Eh

Convergence Tolerance:
 Convergence Check Mode ConvCheckMode   .... Total+1el-Energy
 Convergence forced     ConvForced      .... 1
 Energy Change          TolE            ....  1.000e-08 Eh
 1-El. energy change                    ....  1.000e-05 Eh
 DIIS Error             TolErr          ....  5.000e-07


Diagonalization of the overlap matrix:
Smallest eigenvalue                        ... 1.203e-03
Time for diagonalization                   ...    0.002 sec
Threshold for overlap eigenvalues          ... 1.000e-08
Number of eigenvalues below threshold      ... 0
Time for construction of square roots      ...    0.012 sec
Total time needed                          ...    0.015 sec

-------------------
DFT GRID GENERATION
-------------------

General Integration Accuracy     IntAcc      ...  4.340
Radial Grid Type                 RadialGrid  ... Gauss-Chebyshev
Angular Grid (max. acc.)         AngularGrid ... Lebedev-110
Angular grid pruning method      GridPruning ... 3 (G Style)
Weight generation scheme         WeightScheme... Becke
Basis function cutoff            BFCut       ...    1.0000e-11
Integration weight cutoff        WCut        ...    1.0000e-14
Grids for H and He will be reduced by one unit

# of grid points (after initial pruning)     ...   2972 (   0.0 sec)
# of grid points (after weights+screening)   ...   2972 (   0.0 sec)
Grid point division into batches done        ...    0.0 sec
Reduced shell lists constructed in    0.0 sec

Total number of grid points                  ...     2972
Total number of batches                      ...       47
Average number of points per batch           ...       63
Average number of grid points per atom       ...     2972
Average number of shells per batch           ...     7.33 (28.21%)
Average number of basis functions per batch  ...    24.67 (29.37%)
Average number of large shells per batch     ...     6.67 (90.91%)
Average number of large basis fcns per batch ...    21.33 (86.49%)
Maximum spatial batch extension              ...  18.71, 28.73, 28.73 au
Average spatial batch extension              ...   0.80,  1.22,  1.22 au

Time for grid setup =    0.059 sec

------------------------------
INITIAL GUESS: MODEL POTENTIAL
------------------------------
Loading Hartree-Fock densities                     ... done
Calculating cut-offs                               ... done
Setting up the integral package                    ... done
Initializing the effective Hamiltonian             ... done
Starting the Coulomb interaction                   ... done (   0.0 sec)
Reading the grid                                   ... done
Mapping shells                                     ... done
Starting the XC term evaluation                    ... done (   0.0 sec)
Transforming the Hamiltonian                       ... done (   0.0 sec)
Diagonalizing the Hamiltonian                      ... done (   0.0 sec)
Back transforming the eigenvectors                 ... done (   0.0 sec)
Now organizing SCF variables                       ... done
                      ------------------
                      INITIAL GUESS DONE (   0.2 sec)
                      ------------------
--------------
SCF ITERATIONS
--------------
ITER       Energy         Delta-E        Max-DP      RMS-DP      [F,P]     Damp
               ***  Starting incremental Fock matrix formation  ***
  0   -848.3684629545   0.000000000000 0.02044026  0.00037720  0.5204316 0.7000
  1   -848.3763135145  -0.007850560064 0.02309935  0.00038059  0.3649032 0.7000
  2   -848.3824955771  -0.006182062520 0.02080970  0.00033379  0.2557761 0.7000
                               ***Turning on DIIS***
  3   -848.3872444511  -0.004748874077 0.01768813  0.00028368  0.1793314 0.7000
  4   -848.3274961606   0.059748290532 0.01710177  0.00028382  0.1257700 0.7000
  5   -848.3422218602  -0.014725699563 0.05008569  0.00085075  0.0881571 0.0000
  6   -848.4003677856  -0.058145925430 0.00891761  0.00017113  0.0042857 0.0000
  7   -848.4038526719  -0.003484886286 0.00799225  0.00015914  0.0025975 0.0000
  8   -848.4034141622   0.000438509633 0.00756425  0.00010594  0.0014105 0.0000
  9   -848.4027612945   0.000652867721 0.01585642  0.00017124  0.0007787 0.0000
 10   -848.4039704786  -0.001209184038 0.00720983  0.00007666  0.0001666 0.0000
 11   -848.4020625981   0.001907880434 0.00123933  0.00001553  0.0000573 0.0000
 12   -848.4017305891   0.000332009066 0.00017229  0.00000552  0.0000204 0.0000
 13   -848.4016347277   0.000095861402 0.00012899  0.00000229  0.0000193 0.0000
 14   -848.4016668757  -0.000032148048 0.00000968  0.00000032  0.0000200 0.0000
 15   -848.4017010328  -0.000034157057 0.00004290  0.00000051  0.0000202 0.0000
 16   -848.4016042879   0.000096744890 0.00006466  0.00000081  0.0000201 0.0000
 17   -848.4015922678   0.000012020083 0.00001575  0.00000042  0.0000204 0.0000
 18   -848.4015851761   0.000007091667 0.00002577  0.00000084  0.0000204 0.0000
 19   -848.4016008411  -0.000015664966 0.00002245  0.00000073  0.0000209 0.0000
               *** Restarting incremental Fock matrix formation ***
                                   *** Resetting DIIS ***
 20   -848.4015953616   0.000005479474 0.00003745  0.00000120  0.0000204 0.0000
 21   -848.4016018666  -0.000006504938 0.00000352  0.00000011  0.0000212 0.0000
 22   -848.4016024495  -0.000000582956 0.00000295  0.00000010  0.0000213 0.0000
 23   -848.4016025147  -0.000000065223 0.00000017  0.00000001  0.0000212 0.0000
 24   -848.4016025021   0.000000012608 0.00000019  0.00000001  0.0000212 0.0000
 25   -848.4015954564   0.000007045685 0.00003091  0.00000101  0.0000212 0.0000
 26   -848.4015934168   0.000002039651 0.00004712  0.00000159  0.0000222 0.0000
 27   -848.4015939413  -0.000000524521 0.00002668  0.00000098  0.0000202 0.0000
 28   -848.4015929696   0.000000971736 0.00004181  0.00000168  0.0000182 0.0000
 29   -848.4015929442   0.000000025402 0.00003694  0.00000092  0.0000138 0.0000
 30   -848.4015949705  -0.000002026293 0.00004238  0.00000141  0.0000096 0.0000
 31   -848.4015981638  -0.000003193308 0.00007040  0.00000230  0.0000091 0.0000
 32   -848.4016003947  -0.000002230967 0.00013122  0.00000430  0.0000074 0.0000
 33   -848.4015954577   0.000004937054 0.00002988  0.00000095  0.0000028 0.0000
 34   -848.4015956409  -0.000000183253 0.00001293  0.00000041  0.0000015 0.0000
 35   -848.4015951558   0.000000485171 0.00000751  0.00000024  0.0000016 0.0000
 36   -848.4015947348   0.000000420987 0.00000743  0.00000024  0.0000015 0.0000
 37   -848.4015950024  -0.000000267658 0.00001702  0.00000055  0.0000013 0.0000
                            ***DIIS convergence achieved***

               *****************************************************
               *                     SUCCESS                       *
               *           SCF CONVERGED AFTER  38 CYCLES          *
               *****************************************************


----------------
TOTAL SCF ENERGY
----------------

Total Energy       :         -848.40159545 Eh          -23086.18109 eV

Components:
Nuclear Repulsion  :            0.00000000 Eh               0.00000 eV
Electronic Energy  :         -848.40159545 Eh          -23086.18109 eV
One Electron Energy:        -1162.78370105 Eh          -31640.95310 eV
Two Electron Energy:          314.38210560 Eh            8554.77201 eV

Virial components:
Potential Energy   :        -1696.78868250 Eh          -46171.96739 eV
Kinetic Energy     :          848.38708705 Eh           23085.78630 eV
Virial Ratio       :            2.00001710


---------------
SCF CONVERGENCE
---------------

  Last Energy change         ...   -4.4747e-07  Tolerance :   1.0000e-08
  Last MAX-Density change    ...    5.0019e-06  Tolerance :   1.0000e-07
  Last RMS-Density change    ...    1.6493e-07  Tolerance :   5.0000e-09
  Last DIIS Error            ...    8.2470e-07  Tolerance :   5.0000e-07

             **** THE GBW FILE WAS UPDATED (22_Ti.gbw) ****
             **** DENSITY FILE WAS UPDATED (22_Ti.scfp) ****
             **** ENERGY FILE WAS UPDATED (22_Ti.en.tmp) ****
----------------------
UHF SPIN CONTAMINATION
----------------------

Expectation value of <S**2>     :     2.009995
Ideal value S*(S+1) for S=1.0   :     2.000000
Deviation                       :     0.009995

             **** THE GBW FILE WAS UPDATED (22_Ti.gbw) ****
             **** DENSITY FILE WAS UPDATED (22_Ti.scfp) ****
----------------
ORBITAL ENERGIES
----------------
                 SPIN UP ORBITALS
  NO   OCC          E(Eh)            E(eV) 
   0   1.0000    -183.276110     -4987.1965 
   1   1.0000     -21.442373      -583.4766 
   2   1.0000     -17.811433      -484.6737 
   3   1.0000     -17.811433      -484.6737 
   4   1.0000     -17.809665      -484.6256 
   5   1.0000      -2.938466       -79.9597 
   6   1.0000      -1.905752       -51.8582 
   7   1.0000      -1.860756       -50.6337 
   8   1.0000      -1.860756       -50.6337 
   9   1.0000      -0.436747       -11.8845 
  10   1.0000      -0.436747       -11.8845 
  11   1.0000      -0.232444        -6.3251 
  12   0.0000       0.021405         0.5825 
  13   0.0000       0.021405         0.5825 
  14   0.0000       0.021961         0.5976 
  15   0.0000       0.072003         1.9593 
  16   0.0000       0.094465         2.5705 
  17   0.0000       0.094465         2.5705 
  18   0.0000       0.105725         2.8769 
  19   0.0000       0.105725         2.8769 
  20   0.0000       0.106236         2.8908 
  21   0.0000       0.106619         2.9012 
  22   0.0000       0.131099         3.5674 
  23   0.0000       0.131099         3.5674 
  24   0.0000       0.172445         4.6925 
  25   0.0000       0.172445         4.6925 
  26   0.0000       0.195598         5.3225 
  27   0.0000       0.360019         9.7966 
  28   0.0000       0.360019         9.7966 
  29   0.0000       0.361490         9.8366 
  30   0.0000       0.367856        10.0099 
  31   0.0000       0.433378        11.7928 
  32   0.0000       0.433378        11.7928 
  33   0.0000       0.483988        13.1700 
  34   0.0000       0.483988        13.1700 
  35   0.0000       0.499525        13.5928 
  36   0.0000       0.670114        18.2347 
  37   0.0000       0.670114        18.2347 
  38   0.0000       0.675156        18.3719 
  39   0.0000       0.675156        18.3719 
  40   0.0000       0.677806        18.4440 
  41   0.0000       0.677806        18.4440 
  42   0.0000       0.678393        18.4600 
  43   0.0000       1.157398        31.4944 
  44   0.0000       1.157398        31.4944 
  45   0.0000       1.164012        31.6744 
  46   0.0000       1.317478        35.8504 
  47   0.0000       1.317478        35.8504 
  48   0.0000       1.369192        37.2576 
  49   0.0000       1.369192        37.2576 
  50   0.0000       1.389991        37.8236 
  51   0.0000       1.787184        48.6317 
  52   0.0000       2.005800        54.5806 
  53   0.0000       2.005800        54.5806 
  54   0.0000       2.028153        55.1889 
  55   0.0000       2.028153        55.1889 
  56   0.0000       2.043320        55.6016 
  57   0.0000       2.047715        55.7212 
  58   0.0000       2.047715        55.7212 
  59   0.0000       2.844195        77.3945 
  60   0.0000       2.844195        77.3945 
  61   0.0000       2.846649        77.4613 
  62   0.0000       2.846649        77.4613 
  63   0.0000       2.849028        77.5260 
  64   0.0000       2.849028        77.5260 
  65   0.0000       2.854105        77.6641 
  66   0.0000       2.854105        77.6641 
  67   0.0000       2.856482        77.7288 
  68   0.0000       3.846113       104.6580 
  69   0.0000       3.846113       104.6580 
  70   0.0000       3.882850       105.6577 
  71   0.0000       3.882850       105.6577 
  72   0.0000       3.910896       106.4209 
  73   0.0000       6.364035       173.1742 
  74   0.0000       6.364035       173.1742 
  75   0.0000       6.392380       173.9455 
  76   0.0000       6.392380       173.9455 
  77   0.0000       6.408864       174.3941 
  78   0.0000       6.408864       174.3941 
  79   0.0000       6.411466       174.4649 
  80   0.0000       7.097284       193.1269 
  81   0.0000      24.263074       660.2318 
  82   0.0000      82.108386      2234.2828 
  83   0.0000     517.977651     14094.8885 

                 SPIN DOWN ORBITALS
  NO   OCC          E(Eh)            E(eV) 
   0   1.0000    -183.276023     -4987.1941 
   1   1.0000     -21.409364      -582.5784 
   2   1.0000     -17.784876      -483.9511 
   3   1.0000     -17.784876      -483.9511 
   4   1.0000     -17.762736      -483.3486 
   5   1.0000      -2.811999       -76.5184 
   6   1.0000      -1.739390       -47.3312 
   7   1.0000      -1.739390       -47.3312 
   8   1.0000      -1.677570       -45.6490 
   9   1.0000      -0.210583        -5.7302 
  10   0.0000       0.021737         0.5915 
  11   0.0000       0.021737         0.5915 
  12   0.0000       0.025999         0.7075 
  13   0.0000       0.076283         2.0758 
  14   0.0000       0.105543         2.8720 
  15   0.0000       0.105543         2.8720 
  16   0.0000       0.110188         2.9984 
  17   0.0000       0.110188         2.9984 
  18   0.0000       0.111379         3.0308 
  19   0.0000       0.113945         3.1006 
  20   0.0000       0.113945         3.1006 
  21   0.0000       0.116365         3.1665 
  22   0.0000       0.196910         5.3582 
  23   0.0000       0.196910         5.3582 
  24   0.0000       0.212975         5.7953 
  25   0.0000       0.228158         6.2085 
  26   0.0000       0.228158         6.2085 
  27   0.0000       0.370099        10.0709 
  28   0.0000       0.370099        10.0709 
  29   0.0000       0.380419        10.3517 
  30   0.0000       0.383788        10.4434 
  31   0.0000       0.498397        13.5621 
  32   0.0000       0.498397        13.5621 
  33   0.0000       0.510330        13.8868 
  34   0.0000       0.521356        14.1868 
  35   0.0000       0.521356        14.1868 
  36   0.0000       0.681188        18.5361 
  37   0.0000       0.681188        18.5361 
  38   0.0000       0.690633        18.7931 
  39   0.0000       0.691657        18.8209 
  40   0.0000       0.691657        18.8209 
  41   0.0000       0.691805        18.8250 
  42   0.0000       0.691805        18.8250 
  43   0.0000       1.182303        32.1721 
  44   0.0000       1.182303        32.1721 
  45   0.0000       1.208144        32.8753 
  46   0.0000       1.388473        37.7823 
  47   0.0000       1.388473        37.7823 
  48   0.0000       1.405228        38.2382 
  49   0.0000       1.420146        38.6441 
  50   0.0000       1.420146        38.6441 
  51   0.0000       1.820778        49.5459 
  52   0.0000       2.063811        56.1592 
  53   0.0000       2.063811        56.1592 
  54   0.0000       2.092725        56.9460 
  55   0.0000       2.098027        57.0902 
  56   0.0000       2.098027        57.0902 
  57   0.0000       2.100347        57.1533 
  58   0.0000       2.100347        57.1533 
  59   0.0000       2.855412        77.6997 
  60   0.0000       2.855412        77.6997 
  61   0.0000       2.885702        78.5239 
  62   0.0000       2.885702        78.5239 
  63   0.0000       2.885793        78.5264 
  64   0.0000       2.887780        78.5805 
  65   0.0000       2.887780        78.5805 
  66   0.0000       2.891072        78.6701 
  67   0.0000       2.891072        78.6701 
  68   0.0000       3.905991       106.2874 
  69   0.0000       3.905991       106.2874 
  70   0.0000       3.929103       106.9163 
  71   0.0000       3.949551       107.4728 
  72   0.0000       3.949551       107.4728 
  73   0.0000       6.432362       175.0335 
  74   0.0000       6.432362       175.0335 
  75   0.0000       6.478771       176.2963 
  76   0.0000       6.486964       176.5193 
  77   0.0000       6.486964       176.5193 
  78   0.0000       6.490946       176.6276 
  79   0.0000       6.490946       176.6276 
  80   0.0000       7.131144       194.0483 
  81   0.0000      24.284253       660.8081 
  82   0.0000      82.115976      2234.4893 
  83   0.0000     517.979051     14094.9266 

                    ********************************
                    * MULLIKEN POPULATION ANALYSIS *
                    ********************************

--------------------------------------------
MULLIKEN ATOMIC CHARGES AND SPIN POPULATIONS
--------------------------------------------
   0 Ti:   -0.000000    2.000000
Sum of atomic charges         :   -0.0000000
Sum of atomic spin populations:    2.0000000

-----------------------------------------------------
MULLIKEN REDUCED ORBITAL CHARGES AND SPIN POPULATIONS
-----------------------------------------------------
CHARGE
  0 Tis       :     7.997587  s :     7.997587
      pz      :     3.999299  p :    11.998479
      px      :     3.999590
      py      :     3.999590
      dz2     :     0.002365  d :     2.002344
      dxz     :     0.999990
      dyz     :     0.999990
      dx2y2   :     0.000000
      dxy     :     0.000000
      f0      :     0.000701  f :     0.001521
      f+1     :     0.000410
      f-1     :     0.000410
      f+2     :     0.000000
      f-2     :     0.000000
      f+3     :     0.000000
      f-3     :     0.000000
      g0      :     0.000048  g :     0.000068
      g+1     :     0.000010
      g-1     :     0.000010
      g+2     :     0.000000
      g-2     :     0.000000
      g+3     :     0.000000
      g-3     :     0.000000
      g+4     :     0.000000
      g-4     :     0.000000

SPIN
  0 Tis       :     0.002237  s :     0.002237
      pz      :    -0.000690  p :    -0.001092
      px      :    -0.000201
      py      :    -0.000201
      dz2     :    -0.002263  d :     1.997717
      dxz     :     0.999990
      dyz     :     0.999990
      dx2y2   :     0.000000
      dxy     :     0.000000
      f0      :     0.000690  f :     0.001092
      f+1     :     0.000201
      f-1     :     0.000201
      f+2     :     0.000000
      f-2     :     0.000000
      f+3     :     0.000000
      f-3     :     0.000000
      g0      :     0.000026  g :     0.000046
      g+1     :     0.000010
      g-1     :     0.000010
      g+2     :     0.000000
      g-2     :     0.000000
      g+3     :     0.000000
      g-3     :     0.000000
      g+4     :     0.000000
      g-4     :     0.000000


                     *******************************
                     * LOEWDIN POPULATION ANALYSIS *
                     *******************************

-------------------------------------------
LOEWDIN ATOMIC CHARGES AND SPIN POPULATIONS
-------------------------------------------
   0 Ti:   -0.000000    2.000000

----------------------------------------------------
LOEWDIN REDUCED ORBITAL CHARGES AND SPIN POPULATIONS
----------------------------------------------------
CHARGE
  0 Tis       :     7.997587  s :     7.997587
      pz      :     3.999299  p :    11.998479
      px      :     3.999590
      py      :     3.999590
      dz2     :     0.002365  d :     2.002344
      dxz     :     0.999990
      dyz     :     0.999990
      dx2y2   :     0.000000
      dxy     :     0.000000
      f0      :     0.000701  f :     0.001521
      f+1     :     0.000410
      f-1     :     0.000410
      f+2     :     0.000000
      f-2     :     0.000000
      f+3     :     0.000000
      f-3     :     0.000000
      g0      :     0.000048  g :     0.000068
      g+1     :     0.000010
      g-1     :     0.000010
      g+2     :     0.000000
      g-2     :     0.000000
      g+3     :     0.000000
      g-3     :     0.000000
      g+4     :     0.000000
      g-4     :     0.000000

SPIN
  0 Tis       :     0.002237  s :     0.002237
      pz      :    -0.000690  p :    -0.001092
      px      :    -0.000201
      py      :    -0.000201
      dz2     :    -0.002263  d :     1.997717
      dxz     :     0.999990
      dyz     :     0.999990
      dx2y2   :     0.000000
      dxy     :     0.000000
      f0      :     0.000690  f :     0.001092
      f+1     :     0.000201
      f-1     :     0.000201
      f+2     :     0.000000
      f-2     :     0.000000
      f+3     :     0.000000
      f-3     :     0.000000
      g0      :     0.000026  g :     0.000046
      g+1     :     0.000010
      g-1     :     0.000010
      g+2     :     0.000000
      g-2     :     0.000000
      g+3     :     0.000000
      g-3     :     0.000000
      g+4     :     0.000000
      g-4     :     0.000000


                      *****************************
                      * MAYER POPULATION ANALYSIS *
                      *****************************

  NA   - Mulliken gross atomic population
  ZA   - Total nuclear charge
  QA   - Mulliken gross atomic charge
  VA   - Mayer's total valence
  BVA  - Mayer's bonded valence
  FA   - Mayer's free valence

  ATOM       NA         ZA         QA         VA         BVA        FA
  0 Ti    22.0000    22.0000    -0.0000     2.0200     0.0000     2.0200

  Mayer bond orders larger than 0.100000


-------
TIMINGS
-------

Total SCF time: 0 days 0 hours 0 min 10 sec 

Total time                  ....      10.191 sec
Sum of individual times     ....       9.434 sec  ( 92.6%)

Fock matrix formation       ....       8.033 sec  ( 78.8%)
Diagonalization             ....       0.323 sec  (  3.2%)
Density matrix formation    ....       0.026 sec  (  0.3%)
Population analysis         ....       0.172 sec  (  1.7%)
Initial guess               ....       0.116 sec  (  1.1%)
Orbital Transformation      ....       0.000 sec  (  0.0%)
Orbital Orthonormalization  ....       0.000 sec  (  0.0%)
DIIS solution               ....       0.705 sec  (  6.9%)


           ************************************************************
           *        Program running with 24 parallel MPI-processes    *
           *              working on a common directory               *
           ************************************************************


------------------------------------------------------------------------------- 
                              ORCA-MATRIX DRIVEN CI                            
------------------------------------------------------------------------------- 

--------------------------------
AUTOMATIC CHOICE OF INCORE LEVEL
--------------------------------

Memory available                           ...   2500.00 MB
Memory needed for S+T                      ...      3.32 MB
Memory needed for J+K                      ...      6.68 MB
Memory needed for DIIS                     ...     46.51 MB
Memory needed for 3-ext                    ...     19.93 MB
Memory needed for 4-ext                    ...    103.94 MB
Memory needed for triples                  ...     14.24 MB
 -> Final InCoreLevel    ... 5
 -> check shows that triples correction can be computed


Wavefunction type
-----------------
Correlation treatment                      ...      CCSD     
Single excitations                         ... ON
Orbital optimization                       ... OFF
Calculation of Z vector                    ... OFF
Calculation of Brueckner orbitals          ... OFF
Perturbative triple excitations            ... ON
Calculation of F12 correction              ... OFF
Frozen core treatment                      ... chemical core (10 el)
Reference Wavefunction                     ... UHF
  Alpha-MOs occ    :     5 ...   11 (  7 MO's/  7 electrons)
  Beta-MOs occ     :     5 ...    9 (  5 MO's/  5 electrons)
  Alpha-MOs virt   :    12 ...   83 ( 72 MO's              )
  Beta-MOs virt    :    10 ...   83 ( 74 MO's              )
Number of AO's                             ...     84
Number of electrons                        ...     22
Number of correlated electrons             ...     12

Algorithmic settings
--------------------
Integral transformation                    ... AO direct full transformation
K(C) Formation                             ... FULL-MO TRAFO
Maximum number of iterations               ...        50
Convergence tolerance (max. residuum)      ... 1.000e-05
Level shift for amplitude update           ... 2.000e-01
Maximum number of DIIS vectors             ...         7
DIIS turned on at iteration                ...         0
Damping before turning on DIIS             ...     0.500
Damping after turning on DIIS              ...     0.000
Pair specific amplitude update             ... OFF
Natural orbital iterations                 ... OFF
Perturbative natural orbital generation    ... OFF
Printlevel                                 ... 2

Memory handling:
----------------
Maximum memory for working arrays          ...   2500 MB
Data storage in matrix containers          ... UNCOMPRESSED
Data type for integral storage             ... DOUBLE
In-Core Storage of quantities:
   Amplitudes+Sigma Vector      ... YES
   J+K operators                ... YES
   DIIS vectors                 ... YES
   3-external integrals         ... YES
   4-external integrals         ... YES


Initializing the integral package          ... done
Warning: reference  - re-canonicalizations have been set to INT 1 VIRT 1

--------------------------
UNRESTRICTED FOCK OPERATOR
--------------------------

<ss|ss>:         2211 b            0 skpd (  0.0%)    0.001 s ( 0.001 ms/b)
<ss|sp>:         4356 b            0 skpd (  0.0%)    0.005 s ( 0.001 ms/b)
<ss|sd>:         3630 b            0 skpd (  0.0%)    0.002 s ( 0.001 ms/b)
<ss|sf>:         2178 b            0 skpd (  0.0%)    0.001 s ( 0.000 ms/b)
<ss|sg>:          726 b            0 skpd (  0.0%)    0.001 s ( 0.001 ms/b)
<ss|pp>:         1386 b            0 skpd (  0.0%)    0.003 s ( 0.002 ms/b)
<ss|pd>:         1980 b            0 skpd (  0.0%)    0.003 s ( 0.001 ms/b)
<ss|pf>:         1188 b            0 skpd (  0.0%)    0.001 s ( 0.001 ms/b)
<ss|pg>:          396 b            0 skpd (  0.0%)    0.001 s ( 0.004 ms/b)
<ss|dd>:          990 b            0 skpd (  0.0%)    0.002 s ( 0.002 ms/b)
<ss|df>:          990 b            0 skpd (  0.0%)    0.001 s ( 0.001 ms/b)
<ss|dg>:          330 b            0 skpd (  0.0%)    0.001 s ( 0.003 ms/b)
<ss|ff>:          396 b            0 skpd (  0.0%)    0.001 s ( 0.002 ms/b)
<ss|fg>:          198 b            0 skpd (  0.0%)    0.001 s ( 0.003 ms/b)
<ss|gg>:           66 b            0 skpd (  0.0%)    0.001 s ( 0.009 ms/b)
<sp|sp>:         2211 b            0 skpd (  0.0%)    0.007 s ( 0.003 ms/b)
<sp|sd>:         3630 b            0 skpd (  0.0%)    0.004 s ( 0.001 ms/b)
<sp|sf>:         2178 b            0 skpd (  0.0%)    0.002 s ( 0.001 ms/b)
<sp|sg>:          726 b            0 skpd (  0.0%)    0.002 s ( 0.003 ms/b)
<sp|pp>:         1386 b            0 skpd (  0.0%)    0.005 s ( 0.004 ms/b)
<sp|pd>:         1980 b            0 skpd (  0.0%)    0.006 s ( 0.003 ms/b)
<sp|pf>:         1188 b            3 skpd (  0.3%)    0.002 s ( 0.002 ms/b)
<sp|pg>:          396 b            0 skpd (  0.0%)    0.002 s ( 0.006 ms/b)
<sp|dd>:          990 b            0 skpd (  0.0%)    0.004 s ( 0.004 ms/b)
<sp|df>:          990 b            0 skpd (  0.0%)    0.002 s ( 0.002 ms/b)
<sp|dg>:          330 b            0 skpd (  0.0%)    0.002 s ( 0.007 ms/b)
<sp|ff>:          396 b            0 skpd (  0.0%)    0.001 s ( 0.003 ms/b)
<sp|fg>:          198 b            0 skpd (  0.0%)    0.002 s ( 0.009 ms/b)
<sp|gg>:           66 b            0 skpd (  0.0%)    0.002 s ( 0.023 ms/b)
<sd|sd>:         1540 b            8 skpd (  0.5%)    0.002 s ( 0.001 ms/b)
<sd|sf>:         1815 b           16 skpd (  0.9%)    0.002 s ( 0.001 ms/b)
<sd|sg>:          605 b           12 skpd (  2.0%)    0.004 s ( 0.006 ms/b)
<sd|pp>:         1155 b            1 skpd (  0.1%)    0.005 s ( 0.004 ms/b)
<sd|pd>:         1650 b            9 skpd (  0.5%)    0.006 s ( 0.004 ms/b)
<sd|pf>:          990 b            6 skpd (  0.6%)    0.004 s ( 0.004 ms/b)
<sd|pg>:          330 b            3 skpd (  0.9%)    0.003 s ( 0.009 ms/b)
<sd|dd>:          825 b            0 skpd (  0.0%)    0.005 s ( 0.006 ms/b)
<sd|df>:          825 b            3 skpd (  0.4%)    0.002 s ( 0.003 ms/b)
<sd|dg>:          275 b            0 skpd (  0.0%)    0.003 s ( 0.012 ms/b)
<sd|ff>:          330 b            0 skpd (  0.0%)    0.001 s ( 0.004 ms/b)
<sd|fg>:          165 b            0 skpd (  0.0%)    0.002 s ( 0.011 ms/b)
<sd|gg>:           55 b            0 skpd (  0.0%)    0.002 s ( 0.044 ms/b)
<sf|sf>:          561 b            9 skpd (  1.6%)    0.001 s ( 0.001 ms/b)
<sf|sg>:          363 b           11 skpd (  3.0%)    0.001 s ( 0.002 ms/b)
<sf|pp>:          693 b           12 skpd (  1.7%)    0.004 s ( 0.005 ms/b)
<sf|pd>:          990 b            7 skpd (  0.7%)    0.004 s ( 0.004 ms/b)
<sf|pf>:          594 b           20 skpd (  3.4%)    0.001 s ( 0.002 ms/b)
<sf|pg>:          198 b            2 skpd (  1.0%)    0.002 s ( 0.010 ms/b)
<sf|dd>:          495 b            0 skpd (  0.0%)    0.004 s ( 0.008 ms/b)
<sf|df>:          495 b            3 skpd (  0.6%)    0.002 s ( 0.004 ms/b)
<sf|dg>:          165 b            0 skpd (  0.0%)    0.003 s ( 0.016 ms/b)
<sf|ff>:          198 b            4 skpd (  2.0%)    0.001 s ( 0.006 ms/b)
<sf|fg>:           99 b            0 skpd (  0.0%)    0.002 s ( 0.016 ms/b)
<sf|gg>:           33 b            0 skpd (  0.0%)    0.002 s ( 0.064 ms/b)
<sg|sg>:           66 b            5 skpd (  7.6%)    0.000 s ( 0.002 ms/b)
<sg|pp>:          231 b            2 skpd (  0.9%)    0.002 s ( 0.010 ms/b)
<sg|pd>:          330 b            6 skpd (  1.8%)    0.003 s ( 0.009 ms/b)
<sg|pf>:          198 b            3 skpd (  1.5%)    0.001 s ( 0.004 ms/b)
<sg|pg>:           66 b            2 skpd (  3.0%)    0.001 s ( 0.016 ms/b)
<sg|dd>:          165 b            0 skpd (  0.0%)    0.003 s ( 0.015 ms/b)
<sg|df>:          165 b            2 skpd (  1.2%)    0.001 s ( 0.007 ms/b)
<sg|dg>:           55 b            0 skpd (  0.0%)    0.002 s ( 0.034 ms/b)
<sg|ff>:           66 b            0 skpd (  0.0%)    0.001 s ( 0.009 ms/b)
<sg|fg>:           33 b            0 skpd (  0.0%)    0.001 s ( 0.030 ms/b)
<sg|gg>:           11 b            0 skpd (  0.0%)    0.001 s ( 0.117 ms/b)
<pp|pp>:          231 b            0 skpd (  0.0%)    0.006 s ( 0.024 ms/b)
<pp|pd>:          630 b            0 skpd (  0.0%)    0.006 s ( 0.010 ms/b)
<pp|pf>:          378 b            0 skpd (  0.0%)    0.002 s ( 0.005 ms/b)
<pp|pg>:          126 b            0 skpd (  0.0%)    0.003 s ( 0.024 ms/b)
<pp|dd>:          315 b            0 skpd (  0.0%)    0.005 s ( 0.017 ms/b)
<pp|df>:          315 b            0 skpd (  0.0%)    0.002 s ( 0.007 ms/b)
<pp|dg>:          105 b            0 skpd (  0.0%)    0.003 s ( 0.031 ms/b)
<pp|ff>:          126 b            0 skpd (  0.0%)    0.001 s ( 0.008 ms/b)
<pp|fg>:           63 b            0 skpd (  0.0%)    0.001 s ( 0.023 ms/b)
<pp|gg>:           21 b            0 skpd (  0.0%)    0.002 s ( 0.097 ms/b)
<pd|pd>:          465 b            0 skpd (  0.0%)    0.007 s ( 0.016 ms/b)
<pd|pf>:          540 b            0 skpd (  0.0%)    0.003 s ( 0.006 ms/b)
<pd|pg>:          180 b            0 skpd (  0.0%)    0.006 s ( 0.031 ms/b)
<pd|dd>:          450 b            0 skpd (  0.0%)    0.009 s ( 0.020 ms/b)
<pd|df>:          450 b            0 skpd (  0.0%)    0.004 s ( 0.009 ms/b)
<pd|dg>:          150 b            0 skpd (  0.0%)    0.006 s ( 0.041 ms/b)
<pd|ff>:          180 b            0 skpd (  0.0%)    0.002 s ( 0.012 ms/b)
<pd|fg>:           90 b            0 skpd (  0.0%)    0.003 s ( 0.036 ms/b)
<pd|gg>:           30 b            0 skpd (  0.0%)    0.004 s ( 0.148 ms/b)
<pf|pf>:          171 b            0 skpd (  0.0%)    0.001 s ( 0.008 ms/b)
<pf|pg>:          108 b            0 skpd (  0.0%)    0.004 s ( 0.037 ms/b)
<pf|dd>:          270 b            0 skpd (  0.0%)    0.006 s ( 0.022 ms/b)
<pf|df>:          270 b            0 skpd (  0.0%)    0.003 s ( 0.011 ms/b)
<pf|dg>:           90 b            0 skpd (  0.0%)    0.004 s ( 0.049 ms/b)
<pf|ff>:          108 b            0 skpd (  0.0%)    0.002 s ( 0.022 ms/b)
<pf|fg>:           54 b            0 skpd (  0.0%)    0.003 s ( 0.049 ms/b)
<pf|gg>:           18 b            0 skpd (  0.0%)    0.003 s ( 0.193 ms/b)
<pg|pg>:           21 b            0 skpd (  0.0%)    0.001 s ( 0.063 ms/b)
<pg|dd>:           90 b            0 skpd (  0.0%)    0.004 s ( 0.046 ms/b)
<pg|df>:           90 b            0 skpd (  0.0%)    0.002 s ( 0.020 ms/b)
<pg|dg>:           30 b            0 skpd (  0.0%)    0.003 s ( 0.096 ms/b)
<pg|ff>:           36 b            0 skpd (  0.0%)    0.001 s ( 0.025 ms/b)
<pg|fg>:           18 b            0 skpd (  0.0%)    0.002 s ( 0.085 ms/b)
<pg|gg>:            6 b            0 skpd (  0.0%)    0.002 s ( 0.326 ms/b)
<dd|dd>:          120 b            0 skpd (  0.0%)    0.006 s ( 0.052 ms/b)
<dd|df>:          225 b            0 skpd (  0.0%)    0.003 s ( 0.013 ms/b)
<dd|dg>:           75 b            0 skpd (  0.0%)    0.005 s ( 0.062 ms/b)
<dd|ff>:           90 b            0 skpd (  0.0%)    0.002 s ( 0.020 ms/b)
<dd|fg>:           45 b            0 skpd (  0.0%)    0.003 s ( 0.057 ms/b)
<dd|gg>:           15 b            0 skpd (  0.0%)    0.004 s ( 0.235 ms/b)
<df|df>:          120 b            0 skpd (  0.0%)    0.003 s ( 0.027 ms/b)
<df|dg>:           75 b            0 skpd (  0.0%)    0.005 s ( 0.065 ms/b)
<df|ff>:           90 b            0 skpd (  0.0%)    0.003 s ( 0.029 ms/b)
<df|fg>:           45 b            0 skpd (  0.0%)    0.003 s ( 0.077 ms/b)
<df|gg>:           15 b            0 skpd (  0.0%)    0.005 s ( 0.305 ms/b)
<dg|dg>:           15 b            0 skpd (  0.0%)    0.002 s ( 0.112 ms/b)
<dg|ff>:           30 b            0 skpd (  0.0%)    0.001 s ( 0.048 ms/b)
<dg|fg>:           15 b            0 skpd (  0.0%)    0.002 s ( 0.122 ms/b)
<dg|gg>:            5 b            0 skpd (  0.0%)    0.002 s ( 0.469 ms/b)
<ff|ff>:           21 b            0 skpd (  0.0%)    0.001 s ( 0.052 ms/b)
<ff|fg>:           18 b            0 skpd (  0.0%)    0.002 s ( 0.110 ms/b)
<ff|gg>:            6 b            0 skpd (  0.0%)    0.003 s ( 0.493 ms/b)
<fg|fg>:            6 b            0 skpd (  0.0%)    0.001 s ( 0.247 ms/b)
<fg|gg>:            3 b            0 skpd (  0.0%)    0.002 s ( 0.709 ms/b)
<gg|gg>:            1 b            0 skpd (  0.0%)    0.001 s ( 1.264 ms/b)
Recanonicalizing the internal orbitals
Recanonicalizing the virtual orbitals
Time needed for Fock operator              ...            0.489 sec
Reference energy                           ...   -848.401595455
Warning: for UHF the TrafoType has to be JK
Warning: for UHF the K(C)-option cannot be MO but must be AOX

-------------------------------
PARTIAL EXCHANGE TRANSFORMATION
-------------------------------

Transformation type                        ... two-operators
Generation of integrals (i,mue|j,nue)      ... ON
Generation of integrals (mue,kappa|nue,tau)... ON
Generation of integrals (i,mue|a,nue)      ... ON
Dimension of the basis                     ...   84
Number of internal alpha-MOs               ...    7 (   5-  11)
Number of internal beta-MOs                ...    5 (   5-   9)
Number of external alpha-MOs               ...   72 (  12-  83)
Number of external beta-MOs                ...   74 (  10-  83)
Pair cutoff                                ... 0.000e+00 Eh
Number of AO pairs in the trafo            ... 3570
Total Number of distinct AO pairs          ... 3570
Memory devoted for trafo                   ... 2500.0 MB 
Max. Number of MO pairs treated together   ... 46439      
Number Format for Storage                  ... Double (8 Byte)
Integral package used                      ... LIBINT

Starting integral evaluation:
    ... done with AO integral generation
Closing buffer AOK[aa] ( 0.00 GB; CompressionRatio= 0.97)
Closing buffer AOK[bb] ( 0.00 GB; CompressionRatio= 0.94)
Closing buffer AOK[ab] ( 0.00 GB; CompressionRatio= 0.96)
Closing buffer AOK[ba] ( 0.00 GB; CompressionRatio= 0.96)
Collecting buffer AOK 
Closing buffer IAAO1[aa] ( 0.00 GB; CompressionRatio= 1.00)
Closing buffer IAAO1[bb] ( 0.00 GB; CompressionRatio= 1.00)
Closing buffer IAAO1[ab] ( 0.00 GB; CompressionRatio= 1.00)
Closing buffer IAAO1[ba] ( 0.00 GB; CompressionRatio= 1.00)
Closing buffer IAAO2[aa] ( 0.00 GB; CompressionRatio= 1.00)
Closing buffer IAAO2[bb] ( 0.00 GB; CompressionRatio= 1.00)
Closing buffer IAAO2[ab] ( 0.00 GB; CompressionRatio= 1.00)
Closing buffer IAAO2[ba] ( 0.00 GB; CompressionRatio= 1.00)
Collecting buffer IAAO 
Closing buffer PRQS    ( 0.00 GB; CompressionRatio= 1.00)
Collecting buffer PRQS 
Number of alpha/alpha MO pairs in trafo    ...   28
Number of beta /beta  MO pairs in trafo    ...   15
Number of alpha/ beta MO pairs in trafo    ...   35
------------------------
SORTING OF (i,mue|j,nue)
------------------------

SORTING OF ALPHA/ALPHA PAIRS
IBATCH = 1 of  1
Closing buffer KAO[aa] ( 0.00 GB; CompressionRatio= 1.00)
Collecting buffer KAO 
SORTING OF BETA /BETA  PAIRS
IBATCH = 1 of  1
Closing buffer KAO[bb] ( 0.00 GB; CompressionRatio= 1.00)
Collecting buffer KAO 
SORTING OF ALPHA/BETA  PAIRS
IBATCH = 1 of  1
Closing buffer KAO[ab] ( 0.00 GB; CompressionRatio= 0.999787460149)
Collecting buffer KAO[ab] 
------------------------
SORTING OF (i,mue|a,nue)
------------------------

Number of alpha/alpha (i,a) pairs in trafo  ...  504
Number of beta /beta  (i,a) pairs in trafo  ...  370
Number of alpha/ beta (i,a) pairs in trafo  ...  518
Number of beta /alpha (i,a) pairs in trafo  ...  360
Setting up the alpha/alpha list             ... done
Setting up the beta /beta  list             ... done
Setting up the alpha/beta  list             ... done
Setting up the beta /alpha list             ... done
    ... Now sorting (i,mue|a,nue)integrals
    ... Integrals (i,b|a,c) will be made on the fly
SORTING OF ALPHA/ALPHA PAIRS
IBATCH = 1 of  1
Closing buffer IPAQ[aa]  0.00 GB; CompressionRatio= 1.00)
SORTING OF BETA /BETA  PAIRS
IBATCH = 1 of  1
Closing buffer IPAQ[bb]( 0.00 GB; CompressionRatio= 1.00)
SORTING OF ALPHA/BETA  PAIRS (NMatSort_ab=22)
IBATCH = 1 of  1
Closing buffer IPAQ[ab]( 0.00 GB; CompressionRatio= 1.00)
SORTING OF BETA/ALPHA  PAIRS
IBATCH = 1 of  1
Closing buffer IPAQ[ba]( 0.00 GB; CompressionRatio= 1.00)
N(AO-Batches) Done                         ...      2028 
N(AO-Batches) Skipped                      ...         0 
N(IJ)-pairs Skipped                        ...         0 
TOTAL TIME for half transformation         ...     5.961 sec
AO-integral generation                     ...     0.051 sec
Half transformation                        ...     0.513 sec
K-integral sorting                         ...     1.162 sec
<ss|**>: 
------------------------------
PARTIAL COULOMB TRANSFORMATION
------------------------------

Transformation type                        ... two-operators
Dimension of the basis                     ...   84
Number of internal alpha-MOs               ...    7 (5-11)
Number of internal beta-MOs                ...    5 (5-9)
Pair cutoff                                ... 0.000e+00 Eh
Number of AO pairs included in the trafo   ... 3570
Total Number of distinct AO pairs          ... 3570
Memory devoted for trafo                   ... 2500.0 MB 
Max. Number of MO pairs treated together   ... 91787      
Max. Number of MOs treated per batch       ... 1092      
Number Format for Storage                  ... Double (8 Byte)
AO-integral source                         ... DIRECT
Integral package used                      ... LIBINT

Starting integral evaluation:
       23166 b        0 skpd     0.018 s (  0.001 ms/b)
<sp|**>: <sd|**>:        23166 b        0 skpd     0.039 s (  0.002 ms/b)
<sf|**>:        19305 b        0 skpd     0.086 s (  0.004 ms/b)
       11583 b        0 skpd     0.069 s (  0.006 ms/b)
<sg|**>:         3861 b        0 skpd     0.035 s (  0.009 ms/b)
<pp|**>:         7371 b        0 skpd     0.057 s (  0.008 ms/b)
<pd|**>:        10530 b        0 skpd     0.107 s (  0.010 ms/b)
<pf|**>:         6318 b        0 skpd     0.065 s (  0.010 ms/b)
<pg|**>:         2106 b        0 skpd     0.062 s (  0.030 ms/b)
<dd|**>:         5265 b        0 skpd     0.070 s (  0.013 ms/b)
<df|**>:         5265 b        0 skpd     0.091 s (  0.017 ms/b)
<dg|**>:         1755 b        0 skpd     0.095 s (  0.054 ms/b)
<ff|**>:         2106 b        0 skpd     0.061 s (  0.029 ms/b)
<fg|**>:         1053 b        0 skpd     0.072 s (  0.068 ms/b)
<gg|**>:          351 b        0 skpd     0.057 s (  0.162 ms/b)
Closing buffer AOJ[aa] ( 0.00 GB; CompressionRatio= 0.95)
Closing buffer AOJ[bb] ( 0.00 GB; CompressionRatio= 0.00)
Collecting buffer AOJ 
    ... done with AO integral generation
Number of Alpha-MO pairs included          ...   28
Number of Beta-MO pairs included           ...   15
    ... Now sorting integrals
SORTING ALPHA/ALPHA PAIRS
IBATCH = 1 of  1
Closing buffer JAO[aa] ( 0.00 GB; CompressionRatio= 1.00)
SORTING BETA/BETA PAIRS
IBATCH = 1 of  1
Closing buffer JAO[bb] ( 0.00 GB; CompressionRatio= 1.00)
Collecting buffer JAO 
TOTAL TIME for half transformation         ...     1.243 sec
AO-integral generation                     ...     0.683 sec
Half transformation                        ...     0.305 sec
J-integral sorting                         ...     0.111 sec

-------------------------- SECOND HALF TRANSFORMATION -------------------------
Formation of (ij|kl),(ij|ka), (ij|ab)      ... ok (     5.188 sec)
Formation of (ik|jl),(ik|ja), (ia|jb)      ... ok (     0.278 sec)


-----------------------
SPIN UNRESTRICTED GUESS
-----------------------

Entering MDCI_UHF_Guess, Tailored=0
Spin-components of the MP2 energy:
EMP2(aa)=     -0.054072710
EMP2(bb)=     -0.032491732
EMP2(ab)=     -0.221482071

Initial guess performed in     0.009 sec
E(0)                                       ...   -848.401595455
E(MP2)                                     ...     -0.308046513
Initial E(tot)                             ...   -848.709641968
<T|T>                                      ...      0.091240788
Number of pairs included                   ... 66

------------------------------------------------
                  UHF COUPLED CLUSTER ITERATIONS
------------------------------------------------

Number of amplitudes to be optimized       ...       268729

Iter       E(tot)           E(Corr)          Delta-E          Residual     Time      <S|S>**1/2
  0   -848.709641968     -0.308046513     -0.000000000      0.016640721    0.65      0.000009304
                           *** Turning on DIIS ***
  1   -848.725844167     -0.324248712     -0.016202199      0.007092609    0.57      0.031732596
  2   -848.733731523     -0.332136068     -0.007887357      0.004462158    0.57      0.049709341
  3   -848.735901435     -0.334305980     -0.002169912      0.003403233    0.58      0.062281066
  4   -848.737195485     -0.335600030     -0.001294050      0.002358052    0.58      0.072084410
  5   -848.737613394     -0.336017939     -0.000417909      0.001510745    0.59      0.075907670
  6   -848.737696821     -0.336101365     -0.000083426      0.000723951    0.57      0.075940349
  7   -848.737725308     -0.336129853     -0.000028487      0.000166538    0.58      0.075071294
  8   -848.737720158     -0.336124703      0.000005150      0.000056329    0.57      0.074556796
  9   -848.737729645     -0.336134190     -0.000009488      0.000038117    0.57      0.074447378
 10   -848.737730844     -0.336135389     -0.000001198      0.000020469    0.57      0.074423072
 11   -848.737732466     -0.336137011     -0.000001622      0.000012492    0.58      0.074463882
 12   -848.737731912     -0.336136457      0.000000554      0.000009416    0.60      0.074478599
               --- The Coupled-Cluster iterations have converged ---

----------------------
COUPLED CLUSTER ENERGY
----------------------

E(0)                                       ...   -848.401595455
E(CORR)                                    ...     -0.336136457
E(TOT)                                     ...   -848.737731912
Singles norm <S|S>**1/2                    ...      0.074478599 ( 0.040156958, 0.034321641)  
T1 diagnostic                              ...      0.021500120                              

------------------
LARGEST AMPLITUDES
------------------
  11a-> 12a   9b-> 11b       0.072557
  11a-> 13a   9b-> 10b       0.072557
   9b-> 13b  -1b-> -1b       0.070001
  11a-> 14a   9b-> 12b       0.061759
  11a-> 12a   9b-> 17b       0.059632
  11a-> 13a   9b-> 16b       0.059632
  11a-> 14a   9b-> 21b       0.055849
  11a-> 19a   9b-> 10b       0.054735
  11a-> 18a   9b-> 11b       0.054735
  11a-> 20a   9b-> 12b       0.049940
  11a-> 20a   9b-> 21b       0.046636
  11a-> 18a   9b-> 17b       0.046035
  11a-> 19a   9b-> 16b       0.046035
  11a-> 15a  -1a-> -1a       0.043984
   9b-> 30b  -1b-> -1b       0.041385
  10a-> 24a   9a-> 25a       0.040020

----------------------
UHF TRIPLES CORRECTION (Algorithm 1)
----------------------

Multiplier for the singles contribution    ...      1.000000000

SPIN-CASE Alpha-Alpha-Alpha:
10% done
20% done
30% done
40% done
50% done
60% done
70% done
80% done
90% done


SPIN-CASE Beta-Beta-Beta:
10% done
20% done
30% done
40% done
50% done
60% done
70% done
80% done
90% done


SPIN-CASE Alpha-Alpha-Beta:
10% done
20% done
30% done
40% done
50% done
60% done
70% done
80% done
90% done


SPIN-CASE Beta-Beta-Alpha:
10% done
20% done
30% done
40% done
50% done
60% done
70% done
80% done
90% done


Triples Correction (T)                     ...     -0.012353546
    alpha-alpha-alpha ... -0.000765958 (  6.2%)
    alpha-alpha-beta  ... -0.007164067 ( 58.0%)
    alpha-beta -beta  ... -0.004219313 ( 34.2%)
    beta -beta -beta  ... -0.000204209 (  1.7%)
Scaling of triples based on CCSD energies (Peterson et al. Molecular Physics 113, 1551 (2015))
E(T*) = f*E(T) where f = E(F12-CCSD)/E(CCSD) 
f = CCSD (with F12)/ CCSD (without F12)    ...      1.000000000
Scaled triples correction (T)              ...     -0.012353546

Final correlation energy                   ...     -0.348490003
E(CCSD)                                    ...   -848.737731912
E(CCSD(T))                                 ...   -848.750085459



        !!!!!!!!!!!!!!!!!!!!!!!!!!!!!!!!!!!!!!!!!!!!!!!!!!!!!!!!!!!!!!!!!!!!!!!!!! 
        !  Warning: Densities are linearized densities                           !
        !!!!!!!!!!!!!!!!!!!!!!!!!!!!!!!!!!!!!!!!!!!!!!!!!!!!!!!!!!!!!!!!!!!!!!!!!! 

NORM  =      1.147450657 sqrt=     1.071191233
W(HF) =      0.871497170
------------------------------------------------------------------------------
                           ORCA POPULATION ANALYSIS
------------------------------------------------------------------------------
Input electron density              ... 22_Ti.mdcip
Input spin density                  ... 22_Ti.mdcir
BaseName (.gbw .S,...)              ... 22_Ti

                    ********************************
                    * MULLIKEN POPULATION ANALYSIS *
                    ********************************

------------------------------------------
MULLIKEN ATOMIC CHARGES AND SPIN DENSITIES
------------------------------------------
   0 Ti:   -0.000000    2.000000
Sum of atomic charges       :   -0.0000000
Sum of atomic spin densities:    2.0000000

---------------------------------------------------
MULLIKEN REDUCED ORBITAL CHARGES AND SPIN DENSITIES
---------------------------------------------------
CHARGE
  0 Tis       :     7.867916  s :     7.867916
      pz      :     4.014995  p :    12.047054
      px      :     4.016029
      py      :     4.016029
      dz2     :     0.021248  d :     2.060840
      dxz     :     0.990510
      dyz     :     0.990510
      dx2y2   :     0.029286
      dxy     :     0.029286
      f0      :     0.003279  f :     0.022558
      f+1     :     0.003731
      f-1     :     0.003731
      f+2     :     0.004608
      f-2     :     0.004608
      f+3     :     0.001300
      f-3     :     0.001300
      g0      :     0.000189  g :     0.001632
      g+1     :     0.000200
      g-1     :     0.000200
      g+2     :     0.000224
      g-2     :     0.000224
      g+3     :     0.000215
      g-3     :     0.000215
      g+4     :     0.000083
      g-4     :     0.000083

SPIN
  0 Tis       :     0.011621  s :     0.011621
      pz      :     0.007566  p :     0.013255
      px      :     0.002845
      py      :     0.002845
      dz2     :    -0.002827  d :     1.961456
      dxz     :     0.973038
      dyz     :     0.973038
      dx2y2   :     0.009104
      dxy     :     0.009104
      f0      :     0.001970  f :     0.012773
      f+1     :     0.002222
      f-1     :     0.002222
      f+2     :     0.003151
      f-2     :     0.003151
      f+3     :     0.000029
      f-3     :     0.000029
      g0      :     0.000113  g :     0.000895
      g+1     :     0.000128
      g-1     :     0.000128
      g+2     :     0.000150
      g-2     :     0.000150
      g+3     :     0.000117
      g-3     :     0.000117
      g+4     :    -0.000004
      g-4     :    -0.000004


                     *******************************
                     * LOEWDIN POPULATION ANALYSIS *
                     *******************************

-----------------------------------------
LOEWDIN ATOMIC CHARGES AND SPIN DENSITIES
-----------------------------------------
   0 Ti:   -0.000000    2.000000

--------------------------------------------------
LOEWDIN REDUCED ORBITAL CHARGES AND SPIN DENSITIES
--------------------------------------------------
CHARGE
  0 Tis       :     7.867916  s :     7.867916
      pz      :     4.014995  p :    12.047054
      px      :     4.016029
      py      :     4.016029
      dz2     :     0.021248  d :     2.060840
      dxz     :     0.990510
      dyz     :     0.990510
      dx2y2   :     0.029286
      dxy     :     0.029286
      f0      :     0.003279  f :     0.022558
      f+1     :     0.003731
      f-1     :     0.003731
      f+2     :     0.004608
      f-2     :     0.004608
      f+3     :     0.001300
      f-3     :     0.001300
      g0      :     0.000189  g :     0.001632
      g+1     :     0.000200
      g-1     :     0.000200
      g+2     :     0.000224
      g-2     :     0.000224
      g+3     :     0.000215
      g-3     :     0.000215
      g+4     :     0.000083
      g-4     :     0.000083

SPIN
  0 Tis       :     0.011621  s :     0.011621
      pz      :     0.007566  p :     0.013255
      px      :     0.002845
      py      :     0.002845
      dz2     :    -0.002827  d :     1.961456
      dxz     :     0.973038
      dyz     :     0.973038
      dx2y2   :     0.009104
      dxy     :     0.009104
      f0      :     0.001970  f :     0.012773
      f+1     :     0.002222
      f-1     :     0.002222
      f+2     :     0.003151
      f-2     :     0.003151
      f+3     :     0.000029
      f-3     :     0.000029
      g0      :     0.000113  g :     0.000895
      g+1     :     0.000128
      g-1     :     0.000128
      g+2     :     0.000150
      g-2     :     0.000150
      g+3     :     0.000117
      g-3     :     0.000117
      g+4     :    -0.000004
      g-4     :    -0.000004


                      *****************************
                      * MAYER POPULATION ANALYSIS *
                      *****************************

  NA   - Mulliken gross atomic population
  ZA   - Total nuclear charge
  QA   - Mulliken gross atomic charge
  VA   - Mayer's total valence
  BVA  - Mayer's bonded valence
  FA   - Mayer's free valence

  ATOM       NA         ZA         QA         VA         BVA        FA
  0 Ti    22.0000    22.0000    -0.0000     2.9385     0.0000     2.9385





------------------------------------------------------------------------------- 
                                     TIMINGS                                   
------------------------------------------------------------------------------- 


Total execution time                   ...       22.035 sec

Fock Matrix Formation                  ...        0.489 sec (  2.2%)
Initial Guess                          ...        0.009 sec (  0.0%)
DIIS Solver                            ...        0.286 sec (  1.3%)
State Vector Update                    ...        0.014 sec (  0.1%)
Sigma-vector construction              ...        7.276 sec ( 33.0%)
  <D|H|D>(0-ext Fock)                  ...        0.004 sec (  0.1% of sigma)
  <D|H|D>(0-ext)                       ...        0.008 sec (  0.1% of sigma)
  <D|H|D>(2-ext Fock)                  ...        0.002 sec (  0.0% of sigma)
  <D|H|D>(2-ext)                       ...        0.044 sec (  0.6% of sigma)
  <D|H|D>(4-ext)                       ...        3.461 sec ( 47.6% of sigma)
  <S|H|0>                              ...        0.133 sec (  1.8% of sigma)
  <S|H|D>(1-ext)                       ...        0.001 sec (  0.0% of sigma)
  <D|H|S>(1-ext)                       ...        0.026 sec (  0.4% of sigma)
  Fock-dressing                        ...        2.635 sec ( 36.2% of sigma)
  (ik|jl)-dressing                     ...        0.010 sec (  0.1% of sigma)
  (ij|ab),(ia|jb)-dressing             ...        0.734 sec ( 10.1% of sigma)
  Pair energies                        ...        0.002 sec (  0.0% of sigma)
Total Time for computing (T)           ...        0.374 sec (  1.7% of ALL)
  I/O of integral and amplitudes       ...        0.090 sec ( 24.0% of (T))
  External N**7 contributions          ...        0.094 sec ( 25.2% of (T))
  Internal N**7 contributions          ...        0.046 sec ( 12.4% of (T))
  N**6 triples energy contributions    ...        0.117 sec ( 31.3% of (T))


-------------------------   --------------------
FINAL SINGLE POINT ENERGY      -848.750085458609
-------------------------   --------------------


                            ***************************************
                            *     ORCA property calculations      *
                            ***************************************

                                    ---------------------
                                    Active property flags
                                    ---------------------
   (+) Dipole Moment


------------------------------------------------------------------------------
                       ORCA ELECTRIC PROPERTIES CALCULATION
------------------------------------------------------------------------------

Dipole Moment Calculation                       ... on
Quadrupole Moment Calculation                   ... off
Polarizability Calculation                      ... off
GBWName                                         ... 22_Ti.gbw
Electron density file                           ... 22_Ti.scfp
The origin for moment calculation is the CENTER OF MASS  = ( 0.000000,  0.000000  0.000000)

-------------
DIPOLE MOMENT
-------------
                                X             Y             Z
Electronic contribution:      0.00000       0.00000       0.00000
Nuclear contribution   :      0.00000       0.00000       0.00000
                        -----------------------------------------
Total Dipole Moment    :      0.00000       0.00000       0.00000
                        -----------------------------------------
Magnitude (a.u.)       :      0.00000
Magnitude (Debye)      :      0.00000



--------------------
Rotational spectrum 
--------------------
 
Rotational constants in cm-1:     0.000000     0.000000     0.000000 
Rotational constants in MHz :     0.000000     0.000000     0.000000 

 Dipole components along the rotational axes: 
x,y,z [a.u.] :     0.000000     0.000000     0.000000 
x,y,z [Debye]:     0.000000     0.000000     0.000000 

 

                           *** MDCI DENSITY ***

------------------------------------------------------------------------------
                       ORCA ELECTRIC PROPERTIES CALCULATION
------------------------------------------------------------------------------

Dipole Moment Calculation                       ... on
Quadrupole Moment Calculation                   ... off
Polarizability Calculation                      ... off
GBWName                                         ... 22_Ti.gbw
Electron density file                           ... 22_Ti.mdcip
The origin for moment calculation is the CENTER OF MASS  = ( 0.000000,  0.000000  0.000000)

-------------
DIPOLE MOMENT
-------------
                                X             Y             Z
Electronic contribution:     -0.00000      -0.00000       0.00000
Nuclear contribution   :      0.00000       0.00000       0.00000
                        -----------------------------------------
Total Dipole Moment    :     -0.00000      -0.00000       0.00000
                        -----------------------------------------
Magnitude (a.u.)       :      0.00000
Magnitude (Debye)      :      0.00000



--------------------
Rotational spectrum 
--------------------
 
Rotational constants in cm-1:     0.000000     0.000000     0.000000 
Rotational constants in MHz :     0.000000     0.000000     0.000000 

 Dipole components along the rotational axes: 
x,y,z [a.u.] :    -0.000000    -0.000000     0.000000 
x,y,z [Debye]:    -0.000000    -0.000000     0.000000 

 

Timings for individual modules:

Sum of individual times         ...       33.993 sec (=   0.567 min)
GTO integral calculation        ...        0.755 sec (=   0.013 min)   2.2 %
SCF iterations                  ...       10.581 sec (=   0.176 min)  31.1 %
MDCI module                     ...       22.657 sec (=   0.378 min)  66.7 %
                             ****ORCA TERMINATED NORMALLY****
TOTAL RUN TIME: 0 days 0 hours 0 minutes 34 seconds 795 msec
