
                                 *****************
                                 * O   R   C   A *
                                 *****************

           --- An Ab Initio, DFT and Semiempirical electronic structure package ---

                  #######################################################
                  #                        -***-                        #
                  #          Department of theory and spectroscopy      #
                  #               Directorship: Frank Neese             #
                  #        Max Planck Institute fuer Kohlenforschung    #
                  #                Kaiser Wilhelm Platz 1               #
                  #                 D-45470 Muelheim/Ruhr               #
                  #                      Germany                        #
                  #                                                     #
                  #                  All rights reserved                #
                  #                        -***-                        #
                  #######################################################


                         Program Version 4.2.0 -  RELEASE  -


 With contributions from (in alphabetic order):
   Daniel Aravena         : Magnetic Suceptibility
   Michael Atanasov       : Ab Initio Ligand Field Theory (pilot matlab implementation)
   Alexander A. Auer      : GIAO ZORA, VPT2
   Ute Becker             : Parallelization
   Giovanni Bistoni       : ED, misc. LED, open-shell LED, HFLED
   Martin Brehm           : Molecular dynamics
   Dmytro Bykov           : SCF Hessian
   Vijay G. Chilkuri      : MRCI spin determinant printing, contributions to CSF-ICE
   Dipayan Datta          : RHF DLPNO-CCSD density
   Achintya Kumar Dutta   : EOM-CC, STEOM-CC
   Dmitry Ganyushin       : Spin-Orbit,Spin-Spin,Magnetic field MRCI
   Miquel Garcia          : C-PCM Hessian, Gaussian charge scheme
   Yang Guo               : DLPNO-NEVPT2, CIM, IAO-localization
   Andreas Hansen         : Spin unrestricted coupled pair/coupled cluster methods
   Benjamin Helmich-Paris : CASSCF linear response (MC-RPA)
   Lee Huntington         : MR-EOM, pCC
   Robert Izsak           : Overlap fitted RIJCOSX, COSX-SCS-MP3, EOM
   Christian Kollmar      : KDIIS, OOCD, Brueckner-CCSD(T), CCSD density
   Simone Kossmann        : Meta GGA functionals, TD-DFT gradient, OOMP2, MP2 Hessian
   Martin Krupicka        : AUTO-CI
   Lucas Lang             : DCDCAS
   Dagmar Lenk            : GEPOL surface, SMD
   Dimitrios Liakos       : Extrapolation schemes; Compound Job, initial MDCI parallelization
   Dimitrios Manganas     : Further ROCIS development; embedding schemes
   Dimitrios Pantazis     : SARC Basis sets
   Taras Petrenko         : DFT Hessian,TD-DFT gradient, ASA, ECA, R-Raman, ABS, FL, XAS/XES, NRVS
   Peter Pinski           : DLPNO-MP2, DLPNO-MP2 Gradient
   Christoph Reimann      : Effective Core Potentials
   Marius Retegan         : Local ZFS, SOC
   Christoph Riplinger    : Optimizer, TS searches, QM/MM, DLPNO-CCSD(T), (RO)-DLPNO pert. Triples
   Tobias Risthaus        : Range-separated hybrids, TD-DFT gradient, RPA, STAB
   Michael Roemelt        : Original ROCIS implementation
   Masaaki Saitow         : Open-shell DLPNO-CCSD energy and density
   Barbara Sandhoefer     : DKH picture change effects
   Avijit Sen             : IP-ROCIS
   Kantharuban Sivalingam : CASSCF convergence, NEVPT2, FIC-MRCI
   Bernardo de Souza      : ESD, SOC TD-DFT
   Georgi Stoychev        : AutoAux, RI-MP2 NMR
   Willem Van den Heuvel  : Paramagnetic NMR
   Boris Wezisla          : Elementary symmetry handling
   Frank Wennmohs         : Technical directorship


 We gratefully acknowledge several colleagues who have allowed us to
 interface, adapt or use parts of their codes:
   Stefan Grimme, W. Hujo, H. Kruse,             : VdW corrections, initial TS optimization,
                  C. Bannwarth                     DFT functionals, gCP, sTDA/sTD-DF
   Ed Valeev, F. Pavosevic, A. Kumar             : LibInt (2-el integral package), F12 methods
   Garnet Chan, S. Sharma, J. Yang, R. Olivares  : DMRG
   Ulf Ekstrom                                   : XCFun DFT Library
   Mihaly Kallay                                 : mrcc  (arbitrary order and MRCC methods)
   Andreas Klamt, Michael Diedenhofen            : otool_cosmo (COSMO solvation model)
   Jiri Pittner, Ondrej Demel                    : Mk-CCSD
   Frank Weinhold                                : gennbo (NPA and NBO analysis)
   Christopher J. Cramer and Donald G. Truhlar   : smd solvation model
   Lars Goerigk                                  : TD-DFT with DH, B97 family of functionals
   V. Asgeirsson, H. Jonsson                     : NEB implementation
   FAccTs GmbH                                   : IRC, NEB, NEB-TS, Multilevel, MM, QM/MM, CI optimization
   S Lehtola, MJT Oliveira, MAL Marques          : LibXC Library


 Your calculation uses the libint2 library for the computation of 2-el integrals
 For citations please refer to: http://libint.valeyev.net

 Your ORCA version has been built with support for libXC version: 4.2.3
 For citations please refer to: https://tddft.org/programs/libxc/

 This ORCA versions uses:
   CBLAS   interface :  Fast vector & matrix operations
   LAPACKE interface :  Fast linear algebra routines
   SCALAPACK package :  Parallel linear algebra routines


----- Orbital basis set information -----
Your calculation utilizes the basis: def2-QZVP
   F. Weigend and R. Ahlrichs, Phys. Chem. Chem. Phys. 7, 3297 (2005).

================================================================================
                                        WARNINGS
                       Please study these warnings very carefully!
================================================================================


WARNING: your system is open-shell and RHF/RKS was chosen
  ===> : WILL SWITCH to UHF/UKS


WARNING: MDCI localization with Augmented Hessian Foster-Boys
  ===> : Switching off randomization!

WARNING: Post HF methods need fully converged wavefunctions
  ===> : Setting SCFConvForced true
         You can overwrite this default with %scf ConvForced false 


INFO   : the flag for use of LIBINT has been found!

================================================================================
                                       INPUT FILE
================================================================================
NAME = 25_Mn.in
|  1> #
|  2> # 25_Mn CCSD(T)/Def2-QZVP
|  3> #
|  4> ! CCSD(T) Def2-QZVP tightscf
|  5> 
|  6> *xyz 0 6
|  7>  Mn 0.0 0.0 0.0
|  8> *
|  9> 
| 10> %maxcore 5000 
| 11> 
| 12> %pal
| 13> nprocs 24
| 14> end
| 15> 
| 16> 
| 17>                          ****END OF INPUT****
================================================================================

                       ****************************
                       * Single Point Calculation *
                       ****************************

---------------------------------
CARTESIAN COORDINATES (ANGSTROEM)
---------------------------------
  Mn     0.000000    0.000000    0.000000

----------------------------
CARTESIAN COORDINATES (A.U.)
----------------------------
  NO LB      ZA    FRAG     MASS         X           Y           Z
   0 Mn   25.0000    0    54.940    0.000000    0.000000    0.000000

--------------------------------
INTERNAL COORDINATES (ANGSTROEM)
--------------------------------
 Mn     0   0   0     0.000000000000     0.00000000     0.00000000

---------------------------
INTERNAL COORDINATES (A.U.)
---------------------------
 Mn     0   0   0     0.000000000000     0.00000000     0.00000000

---------------------
BASIS SET INFORMATION
---------------------
There are 1 groups of distinct atoms

 Group   1 Type Mn  : 24s18p10d3f1g contracted to 11s6p5d3f1g pattern {114111111111/951111/61111/111/1}

Atom   0Mn   basis set group =>   1


           ************************************************************
           *        Program running with 24 parallel MPI-processes    *
           *              working on a common directory               *
           ************************************************************
------------------------------------------------------------------------------
                           ORCA GTO INTEGRAL CALCULATION
------------------------------------------------------------------------------

                         BASIS SET STATISTICS AND STARTUP INFO

 # of primitive gaussian shells          ...   56
 # of primitive gaussian functions       ...  158
 # of contracted shells                  ...   26
 # of contracted basis functions         ...   84
 Highest angular momentum                ...    4
 Maximum contraction depth               ...   11
 Integral package used                   ... LIBINT
 Integral threshhold            Thresh   ...  2.500e-11
 Primitive cut-off              TCut     ...  2.500e-12


------------------------------ INTEGRAL EVALUATION ----------------------------


 * One electron integrals 
 Pre-screening matrix                    ... done
 Shell pair data                         ... done (   0.000 sec)



           ************************************************************
           *        Program running with 24 parallel MPI-processes    *
           *              working on a common directory               *
           ************************************************************
-------------------------------------------------------------------------------
                                 ORCA SCF
-------------------------------------------------------------------------------

------------
SCF SETTINGS
------------
Hamiltonian:
 Ab initio Hamiltonian  Method          .... Hartree-Fock(GTOs)


General Settings:
 Integral files         IntName         .... 25_Mn
 Hartree-Fock type      HFTyp           .... UHF
 Total Charge           Charge          ....    0
 Multiplicity           Mult            ....    6
 Number of Electrons    NEL             ....   25
 Basis Dimension        Dim             ....   84
 Nuclear Repulsion      ENuc            ....      0.0000000000 Eh

Convergence Acceleration:
 DIIS                   CNVDIIS         .... on
   Start iteration      DIISMaxIt       ....    12
   Startup error        DIISStart       ....  0.200000
   # of expansion vecs  DIISMaxEq       ....     5
   Bias factor          DIISBfac        ....   1.050
   Max. coefficient     DIISMaxC        ....  10.000
 Newton-Raphson         CNVNR           .... off
 SOSCF                  CNVSOSCF        .... off
 Level Shifting         CNVShift        .... on
   Level shift para.    LevelShift      ....    0.2500
   Turn off err/grad.   ShiftErr        ....    0.0010
 Zerner damping         CNVZerner       .... off
 Static damping         CNVDamp         .... on
   Fraction old density DampFac         ....    0.7000
   Max. Damping (<1)    DampMax         ....    0.9800
   Min. Damping (>=0)   DampMin         ....    0.0000
   Turn off err/grad.   DampErr         ....    0.1000
 Fernandez-Rico         CNVRico         .... off

SCF Procedure:
 Maximum # iterations   MaxIter         ....   125
 SCF integral mode      SCFMode         .... Direct
   Integral package                     .... LIBINT
 Reset frequency        DirectResetFreq ....    20
 Integral Threshold     Thresh          ....  2.500e-11 Eh
 Primitive CutOff       TCut            ....  2.500e-12 Eh

Convergence Tolerance:
 Convergence Check Mode ConvCheckMode   .... Total+1el-Energy
 Convergence forced     ConvForced      .... 1
 Energy Change          TolE            ....  1.000e-08 Eh
 1-El. energy change                    ....  1.000e-05 Eh
 DIIS Error             TolErr          ....  5.000e-07


Diagonalization of the overlap matrix:
Smallest eigenvalue                        ... 1.238e-03
Time for diagonalization                   ...    0.003 sec
Threshold for overlap eigenvalues          ... 1.000e-08
Number of eigenvalues below threshold      ... 0
Time for construction of square roots      ...    0.016 sec
Total time needed                          ...    0.019 sec

-------------------
DFT GRID GENERATION
-------------------

General Integration Accuracy     IntAcc      ...  4.340
Radial Grid Type                 RadialGrid  ... Gauss-Chebyshev
Angular Grid (max. acc.)         AngularGrid ... Lebedev-110
Angular grid pruning method      GridPruning ... 3 (G Style)
Weight generation scheme         WeightScheme... Becke
Basis function cutoff            BFCut       ...    1.0000e-11
Integration weight cutoff        WCut        ...    1.0000e-14
Grids for H and He will be reduced by one unit

# of grid points (after initial pruning)     ...   2912 (   0.0 sec)
# of grid points (after weights+screening)   ...   2912 (   0.0 sec)
Grid point division into batches done        ...    0.0 sec
Reduced shell lists constructed in    0.0 sec

Total number of grid points                  ...     2912
Total number of batches                      ...       46
Average number of points per batch           ...       63
Average number of grid points per atom       ...     2912
Average number of shells per batch           ...     7.33 (28.21%)
Average number of basis functions per batch  ...    24.67 (29.37%)
Average number of large shells per batch     ...     5.33 (72.73%)
Average number of large basis fcns per batch ...    14.67 (59.46%)
Maximum spatial batch extension              ...  18.98, 28.73, 28.73 au
Average spatial batch extension              ...   0.83,  1.25,  1.25 au

Time for grid setup =    0.066 sec

------------------------------
INITIAL GUESS: MODEL POTENTIAL
------------------------------
Loading Hartree-Fock densities                     ... done
Calculating cut-offs                               ... done
Setting up the integral package                    ... done
Initializing the effective Hamiltonian             ... done
Starting the Coulomb interaction                   ... done (   0.0 sec)
Reading the grid                                   ... done
Mapping shells                                     ... done
Starting the XC term evaluation                    ... done (   0.0 sec)
Transforming the Hamiltonian                       ... done (   0.0 sec)
Diagonalizing the Hamiltonian                      ... done (   0.0 sec)
Back transforming the eigenvectors                 ... done (   0.0 sec)
Now organizing SCF variables                       ... done
                      ------------------
                      INITIAL GUESS DONE (   0.2 sec)
                      ------------------
--------------
SCF ITERATIONS
--------------
ITER       Energy         Delta-E        Max-DP      RMS-DP      [F,P]     Damp
               ***  Starting incremental Fock matrix formation  ***
  0  -1149.7110896678   0.000000000000 0.03573171  0.00062686  0.5860756 0.7000
  1  -1149.7228687052  -0.011779037401 0.03139072  0.00051242  0.4119423 0.7000
  2  -1149.7305521211  -0.007683415884 0.02497792  0.00037711  0.2892831 0.7000
  3  -1149.7360616587  -0.005509537540 0.01940002  0.00028593  0.2030110 0.7000
                               ***Turning on DIIS***
  4  -1149.7401472204  -0.004085561720 0.01519910  0.00022581  0.1424074 0.7000
  5  -1149.7759888093  -0.035841588904 0.04557634  0.00071284  0.0998755 0.0000
  6  -1149.7514807724   0.024508036833 0.01181871  0.00020024  0.0056832 0.0000
  7  -1149.7776811159  -0.026200343423 0.01041470  0.00019774  0.0033343 0.0000
  8  -1149.7669727371   0.010708378792 0.01115046  0.00015932  0.0020937 0.0000
  9  -1149.7514235918   0.015549145275 0.02168747  0.00022700  0.0009333 0.0000
 10  -1149.7554121367  -0.003988544950 0.00991564  0.00010172  0.0002368 0.0000
 11  -1149.7534322757   0.001979860999 0.00184575  0.00001962  0.0000598 0.0000
 12  -1149.7527108698   0.000721405928 0.00016158  0.00000444  0.0000351 0.0000
 13  -1149.7523287532   0.000382116613 0.00044873  0.00000538  0.0000228 0.0000
 14  -1149.7522220937   0.000106659482 0.00013437  0.00000151  0.0000064 0.0000
 15  -1149.7522048134   0.000017280341 0.00002242  0.00000029  0.0000021 0.0000
 16  -1149.7522166046  -0.000011791223 0.00001322  0.00000014  0.0000010 0.0000
 17  -1149.7522305736  -0.000013968986 0.00000196  0.00000002  0.0000011 0.0000
 18  -1149.7522296521   0.000000921462 0.00000080  0.00000001  0.0000012 0.0000
 19  -1149.7522288360   0.000000816163 0.00000011  0.00000000  0.0000011 0.0000
               *** Restarting incremental Fock matrix formation ***
                                   *** Resetting DIIS ***
 20  -1149.7522285910   0.000000244955 0.00000177  0.00000004  0.0000011 0.0000
 21  -1149.7522266198   0.000001971217 0.00000204  0.00000005  0.0000013 0.0000
 22  -1149.7522277580  -0.000001138211 0.00000085  0.00000002  0.0000011 0.0000
                            ***DIIS convergence achieved***

               *****************************************************
               *                     SUCCESS                       *
               *           SCF CONVERGED AFTER  23 CYCLES          *
               *****************************************************


----------------
TOTAL SCF ENERGY
----------------

Total Energy       :        -1149.75222988 Eh          -31286.34874 eV

Components:
Nuclear Repulsion  :            0.00000000 Eh               0.00000 eV
Electronic Energy  :        -1149.75222988 Eh          -31286.34874 eV
One Electron Energy:        -1589.59533046 Eh          -43255.08799 eV
Two Electron Energy:          439.84310058 Eh           11968.73925 eV

Virial components:
Potential Energy   :        -2299.44550967 Eh          -62571.09337 eV
Kinetic Energy     :         1149.69327980 Eh           31284.74463 eV
Virial Ratio       :            2.00005127


---------------
SCF CONVERGENCE
---------------

  Last Energy change         ...   -2.1186e-06  Tolerance :   1.0000e-08
  Last MAX-Density change    ...    2.7791e-06  Tolerance :   1.0000e-07
  Last RMS-Density change    ...    6.3434e-08  Tolerance :   5.0000e-09
  Last DIIS Error            ...    9.6978e-07  Tolerance :   5.0000e-07

             **** THE GBW FILE WAS UPDATED (25_Mn.gbw) ****
             **** DENSITY FILE WAS UPDATED (25_Mn.scfp) ****
             **** ENERGY FILE WAS UPDATED (25_Mn.en.tmp) ****
----------------------
UHF SPIN CONTAMINATION
----------------------

Expectation value of <S**2>     :     8.761002
Ideal value S*(S+1) for S=2.5   :     8.750000
Deviation                       :     0.011002

             **** THE GBW FILE WAS UPDATED (25_Mn.gbw) ****
             **** DENSITY FILE WAS UPDATED (25_Mn.scfp) ****
----------------
ORBITAL ENERGIES
----------------
                 SPIN UP ORBITALS
  NO   OCC          E(Eh)            E(eV) 
   0   1.0000    -240.361926     -6540.5805 
   1   1.0000     -28.963388      -788.1339 
   2   1.0000     -24.686347      -671.7496 
   3   1.0000     -24.660807      -671.0547 
   4   1.0000     -24.660790      -671.0542 
   5   1.0000      -3.783788      -102.9621 
   6   1.0000      -2.534236       -68.9601 
   7   1.0000      -2.471361       -67.2492 
   8   1.0000      -2.471319       -67.2480 
   9   1.0000      -0.447549       -12.1784 
  10   1.0000      -0.440061       -11.9747 
  11   1.0000      -0.440045       -11.9742 
  12   1.0000      -0.415659       -11.3107 
  13   1.0000      -0.371833       -10.1181 
  14   1.0000      -0.226507        -6.1636 
  15   0.0000       0.026862         0.7310 
  16   0.0000       0.031663         0.8616 
  17   0.0000       0.031667         0.8617 
  18   0.0000       0.092590         2.5195 
  19   0.0000       0.136180         3.7057 
  20   0.0000       0.143349         3.9007 
  21   0.0000       0.143354         3.9009 
  22   0.0000       0.173050         4.7089 
  23   0.0000       0.173785         4.7289 
  24   0.0000       0.173787         4.7290 
  25   0.0000       0.176190         4.7944 
  26   0.0000       0.178342         4.8529 
  27   0.0000       0.475702        12.9445 
  28   0.0000       0.479457        13.0467 
  29   0.0000       0.492622        13.4049 
  30   0.0000       0.492632        13.4052 
  31   0.0000       0.586828        15.9684 
  32   0.0000       0.588936        16.0258 
  33   0.0000       0.588941        16.0259 
  34   0.0000       0.596195        16.2233 
  35   0.0000       0.605204        16.4684 
  36   0.0000       1.409311        38.3493 
  37   0.0000       1.410816        38.3902 
  38   0.0000       1.410821        38.3904 
  39   0.0000       1.413877        38.4735 
  40   0.0000       1.422555        38.7097 
  41   0.0000       1.432818        38.9890 
  42   0.0000       1.432821        38.9891 
  43   0.0000       1.619630        44.0724 
  44   0.0000       1.649839        44.8944 
  45   0.0000       1.649861        44.8950 
  46   0.0000       1.717636        46.7392 
  47   0.0000       1.722008        46.8582 
  48   0.0000       1.722018        46.8585 
  49   0.0000       1.735644        47.2293 
  50   0.0000       1.755435        47.7678 
  51   0.0000       2.389543        65.0228 
  52   0.0000       4.437178       120.7418 
  53   0.0000       4.439600       120.8077 
  54   0.0000       4.439608       120.8079 
  55   0.0000       4.444270       120.9347 
  56   0.0000       4.467493       121.5667 
  57   0.0000       4.489991       122.1789 
  58   0.0000       4.490000       122.1791 
  59   0.0000       4.717096       128.3587 
  60   0.0000       4.723229       128.5256 
  61   0.0000       4.723242       128.5260 
  62   0.0000       4.742544       129.0512 
  63   0.0000       4.772092       129.8552 
  64   0.0000       7.599028       206.7801 
  65   0.0000       7.599657       206.7972 
  66   0.0000       7.599660       206.7973 
  67   0.0000       7.600531       206.8210 
  68   0.0000       7.621407       207.3890 
  69   0.0000       7.630051       207.6242 
  70   0.0000       7.630066       207.6246 
  71   0.0000       7.654303       208.2842 
  72   0.0000       7.655618       208.3199 
  73   0.0000       9.552257       259.9301 
  74   0.0000      13.524555       368.0218 
  75   0.0000      13.527541       368.1031 
  76   0.0000      13.527551       368.1034 
  77   0.0000      13.533389       368.2622 
  78   0.0000      13.559060       368.9608 
  79   0.0000      13.584904       369.6640 
  80   0.0000      13.584914       369.6643 
  81   0.0000      32.693544       889.6365 
  82   0.0000     110.739265      3013.3686 
  83   0.0000     692.537127     18844.8933 

                 SPIN DOWN ORBITALS
  NO   OCC          E(Eh)            E(eV) 
   0   1.0000    -240.359369     -6540.5110 
   1   1.0000     -28.863845      -785.4252 
   2   1.0000     -24.572115      -668.6412 
   3   1.0000     -24.572011      -668.6384 
   4   1.0000     -24.572011      -668.6384 
   5   1.0000      -3.467555       -94.3570 
   6   1.0000      -2.128574       -57.9215 
   7   1.0000      -2.128544       -57.9206 
   8   1.0000      -2.082227       -56.6603 
   9   1.0000      -0.227261        -6.1841 
  10   0.0000       0.019381         0.5274 
  11   0.0000       0.051666         1.4059 
  12   0.0000       0.052438         1.4269 
  13   0.0000       0.052438         1.4269 
  14   0.0000       0.140029         3.8104 
  15   0.0000       0.172428         4.6920 
  16   0.0000       0.173416         4.7189 
  17   0.0000       0.173419         4.7190 
  18   0.0000       0.176244         4.7958 
  19   0.0000       0.182936         4.9779 
  20   0.0000       0.183853         5.0029 
  21   0.0000       0.183853         5.0029 
  22   0.0000       0.192432         5.2363 
  23   0.0000       0.375334        10.2134 
  24   0.0000       0.383193        10.4272 
  25   0.0000       0.383209        10.4276 
  26   0.0000       0.405889        11.0448 
  27   0.0000       0.535669        14.5763 
  28   0.0000       0.537528        14.6269 
  29   0.0000       0.539023        14.6676 
  30   0.0000       0.539025        14.6676 
  31   0.0000       0.642854        17.4929 
  32   0.0000       0.726358        19.7652 
  33   0.0000       0.732424        19.9303 
  34   0.0000       0.732437        19.9306 
  35   0.0000       0.751348        20.4452 
  36   0.0000       1.485924        40.4341 
  37   0.0000       1.485930        40.4342 
  38   0.0000       1.487561        40.4786 
  39   0.0000       1.496055        40.7097 
  40   0.0000       1.500847        40.8401 
  41   0.0000       1.500856        40.8404 
  42   0.0000       1.505140        40.9569 
  43   0.0000       1.717870        46.7456 
  44   0.0000       1.728120        47.0245 
  45   0.0000       1.728127        47.0247 
  46   0.0000       1.809174        49.2301 
  47   0.0000       1.858917        50.5837 
  48   0.0000       1.864980        50.7487 
  49   0.0000       1.864993        50.7490 
  50   0.0000       1.883366        51.2490 
  51   0.0000       2.477900        67.4271 
  52   0.0000       4.621256       125.7508 
  53   0.0000       4.621270       125.7511 
  54   0.0000       4.625196       125.8580 
  55   0.0000       4.644497       126.3832 
  56   0.0000       4.654380       126.6521 
  57   0.0000       4.654399       126.6526 
  58   0.0000       4.663343       126.8960 
  59   0.0000       4.837125       131.6249 
  60   0.0000       4.869128       132.4957 
  61   0.0000       4.876717       132.7022 
  62   0.0000       4.876733       132.7027 
  63   0.0000       4.899640       133.3260 
  64   0.0000       7.731472       210.3840 
  65   0.0000       7.731918       210.3962 
  66   0.0000       7.731928       210.3965 
  67   0.0000       7.732438       210.4103 
  68   0.0000       7.741941       210.6689 
  69   0.0000       7.743774       210.7188 
  70   0.0000       7.743776       210.7189 
  71   0.0000       7.746469       210.7921 
  72   0.0000       7.747603       210.8230 
  73   0.0000       9.640293       262.3257 
  74   0.0000      13.711086       373.0976 
  75   0.0000      13.711091       373.0977 
  76   0.0000      13.711268       373.1026 
  77   0.0000      13.719030       373.3138 
  78   0.0000      13.731935       373.6650 
  79   0.0000      13.731948       373.6653 
  80   0.0000      13.738191       373.8352 
  81   0.0000      32.752497       891.2407 
  82   0.0000     110.762344      3013.9966 
  83   0.0000     692.542587     18845.0419 

                    ********************************
                    * MULLIKEN POPULATION ANALYSIS *
                    ********************************

--------------------------------------------
MULLIKEN ATOMIC CHARGES AND SPIN POPULATIONS
--------------------------------------------
   0 Mn:   -0.000000    5.000000
Sum of atomic charges         :   -0.0000000
Sum of atomic spin populations:    5.0000000

-----------------------------------------------------
MULLIKEN REDUCED ORBITAL CHARGES AND SPIN POPULATIONS
-----------------------------------------------------
CHARGE
  0 Mns       :     6.999557  s :     6.999557
      pz      :     3.999720  p :    11.999405
      px      :     3.999828
      py      :     3.999857
      dz2     :     1.000099  d :     6.000366
      dxz     :     1.559096
      dyz     :     1.440877
      dx2y2   :     0.999990
      dxy     :     1.000303
      f0      :     0.000116  f :     0.000595
      f+1     :     0.000149
      f-1     :     0.000121
      f+2     :     0.000002
      f-2     :     0.000161
      f+3     :     0.000023
      f-3     :     0.000023
      g0      :     0.000008  g :     0.000078
      g+1     :     0.000002
      g-1     :     0.000003
      g+2     :     0.000006
      g-2     :     0.000021
      g+3     :     0.000011
      g-3     :     0.000011
      g+4     :     0.000008
      g-4     :     0.000008

SPIN
  0 Mns       :     0.999586  s :     0.999586
      pz      :     0.000199  p :     0.000372
      px      :     0.000100
      py      :     0.000074
      dz2     :     1.000097  d :     4.000359
      dxz     :     0.440878
      dyz     :     0.559096
      dx2y2   :     0.999990
      dxy     :     1.000297
      f0      :    -0.000115  f :    -0.000372
      f+1     :    -0.000116
      f-1     :    -0.000090
      f+2     :    -0.000001
      f-2     :    -0.000082
      f+3     :     0.000016
      f-3     :     0.000016
      g0      :    -0.000002  g :     0.000055
      g+1     :     0.000002
      g-1     :     0.000003
      g+2     :     0.000006
      g-2     :     0.000009
      g+3     :     0.000011
      g-3     :     0.000011
      g+4     :     0.000008
      g-4     :     0.000008


                     *******************************
                     * LOEWDIN POPULATION ANALYSIS *
                     *******************************

-------------------------------------------
LOEWDIN ATOMIC CHARGES AND SPIN POPULATIONS
-------------------------------------------
   0 Mn:   -0.000000    5.000000

----------------------------------------------------
LOEWDIN REDUCED ORBITAL CHARGES AND SPIN POPULATIONS
----------------------------------------------------
CHARGE
  0 Mns       :     6.999557  s :     6.999557
      pz      :     3.999720  p :    11.999405
      px      :     3.999828
      py      :     3.999857
      dz2     :     1.000099  d :     6.000366
      dxz     :     1.559096
      dyz     :     1.440877
      dx2y2   :     0.999990
      dxy     :     1.000303
      f0      :     0.000116  f :     0.000595
      f+1     :     0.000149
      f-1     :     0.000121
      f+2     :     0.000002
      f-2     :     0.000161
      f+3     :     0.000023
      f-3     :     0.000023
      g0      :     0.000008  g :     0.000078
      g+1     :     0.000002
      g-1     :     0.000003
      g+2     :     0.000006
      g-2     :     0.000021
      g+3     :     0.000011
      g-3     :     0.000011
      g+4     :     0.000008
      g-4     :     0.000008

SPIN
  0 Mns       :     0.999586  s :     0.999586
      pz      :     0.000199  p :     0.000372
      px      :     0.000100
      py      :     0.000074
      dz2     :     1.000097  d :     4.000359
      dxz     :     0.440878
      dyz     :     0.559096
      dx2y2   :     0.999990
      dxy     :     1.000297
      f0      :    -0.000115  f :    -0.000372
      f+1     :    -0.000116
      f-1     :    -0.000090
      f+2     :    -0.000001
      f-2     :    -0.000082
      f+3     :     0.000016
      f-3     :     0.000016
      g0      :    -0.000002  g :     0.000055
      g+1     :     0.000002
      g-1     :     0.000003
      g+2     :     0.000006
      g-2     :     0.000009
      g+3     :     0.000011
      g-3     :     0.000011
      g+4     :     0.000008
      g-4     :     0.000008


                      *****************************
                      * MAYER POPULATION ANALYSIS *
                      *****************************

  NA   - Mulliken gross atomic population
  ZA   - Total nuclear charge
  QA   - Mulliken gross atomic charge
  VA   - Mayer's total valence
  BVA  - Mayer's bonded valence
  FA   - Mayer's free valence

  ATOM       NA         ZA         QA         VA         BVA        FA
  0 Mn    25.0000    25.0000    -0.0000     5.0220     0.0000     5.0220

  Mayer bond orders larger than 0.100000


-------
TIMINGS
-------

Total SCF time: 0 days 0 hours 0 min 6 sec 

Total time                  ....       6.539 sec
Sum of individual times     ....       5.877 sec  ( 89.9%)

Fock matrix formation       ....       5.087 sec  ( 77.8%)
Diagonalization             ....       0.174 sec  (  2.7%)
Density matrix formation    ....       0.018 sec  (  0.3%)
Population analysis         ....       0.077 sec  (  1.2%)
Initial guess               ....       0.109 sec  (  1.7%)
Orbital Transformation      ....       0.000 sec  (  0.0%)
Orbital Orthonormalization  ....       0.000 sec  (  0.0%)
DIIS solution               ....       0.347 sec  (  5.3%)


           ************************************************************
           *        Program running with 24 parallel MPI-processes    *
           *              working on a common directory               *
           ************************************************************


------------------------------------------------------------------------------- 
                              ORCA-MATRIX DRIVEN CI                            
------------------------------------------------------------------------------- 

--------------------------------
AUTOMATIC CHOICE OF INCORE LEVEL
--------------------------------

Memory available                           ...   2500.00 MB
Memory needed for S+T                      ...      5.99 MB
Memory needed for J+K                      ...     12.04 MB
Memory needed for DIIS                     ...     83.91 MB
Memory needed for 3-ext                    ...     25.06 MB
Memory needed for 4-ext                    ...     87.72 MB
Memory needed for triples                  ...     12.53 MB
 -> Final InCoreLevel    ... 5
 -> check shows that triples correction can be computed


Wavefunction type
-----------------
Correlation treatment                      ...      CCSD     
Single excitations                         ... ON
Orbital optimization                       ... OFF
Calculation of Z vector                    ... OFF
Calculation of Brueckner orbitals          ... OFF
Perturbative triple excitations            ... ON
Calculation of F12 correction              ... OFF
Frozen core treatment                      ... chemical core (10 el)
Reference Wavefunction                     ... UHF
  Alpha-MOs occ    :     5 ...   14 ( 10 MO's/ 10 electrons)
  Beta-MOs occ     :     5 ...    9 (  5 MO's/  5 electrons)
  Alpha-MOs virt   :    15 ...   83 ( 69 MO's              )
  Beta-MOs virt    :    10 ...   83 ( 74 MO's              )
Number of AO's                             ...     84
Number of electrons                        ...     25
Number of correlated electrons             ...     15

Algorithmic settings
--------------------
Integral transformation                    ... AO direct full transformation
K(C) Formation                             ... FULL-MO TRAFO
Maximum number of iterations               ...        50
Convergence tolerance (max. residuum)      ... 1.000e-05
Level shift for amplitude update           ... 2.000e-01
Maximum number of DIIS vectors             ...         7
DIIS turned on at iteration                ...         0
Damping before turning on DIIS             ...     0.500
Damping after turning on DIIS              ...     0.000
Pair specific amplitude update             ... OFF
Natural orbital iterations                 ... OFF
Perturbative natural orbital generation    ... OFF
Printlevel                                 ... 2

Memory handling:
----------------
Maximum memory for working arrays          ...   2500 MB
Data storage in matrix containers          ... UNCOMPRESSED
Data type for integral storage             ... DOUBLE
In-Core Storage of quantities:
   Amplitudes+Sigma Vector      ... YES
   J+K operators                ... YES
   DIIS vectors                 ... YES
   3-external integrals         ... YES
   4-external integrals         ... YES


Initializing the integral package          ... done
Warning: reference  - re-canonicalizations have been set to INT 1 VIRT 1

--------------------------
UNRESTRICTED FOCK OPERATOR
--------------------------

<ss|ss>:         2211 b            0 skpd (  0.0%)    0.003 s ( 0.001 ms/b)
<ss|sp>:         4356 b            0 skpd (  0.0%)    0.005 s ( 0.001 ms/b)
<ss|sd>:         3630 b            0 skpd (  0.0%)    0.003 s ( 0.001 ms/b)
<ss|sf>:         2178 b            0 skpd (  0.0%)    0.001 s ( 0.000 ms/b)
<ss|sg>:          726 b            0 skpd (  0.0%)    0.001 s ( 0.001 ms/b)
<ss|pp>:         1386 b            0 skpd (  0.0%)    0.005 s ( 0.004 ms/b)
<ss|pd>:         1980 b            0 skpd (  0.0%)    0.005 s ( 0.002 ms/b)
<ss|pf>:         1188 b            0 skpd (  0.0%)    0.001 s ( 0.001 ms/b)
<ss|pg>:          396 b            0 skpd (  0.0%)    0.001 s ( 0.003 ms/b)
<ss|dd>:          990 b            0 skpd (  0.0%)    0.004 s ( 0.004 ms/b)
<ss|df>:          990 b            0 skpd (  0.0%)    0.001 s ( 0.001 ms/b)
<ss|dg>:          330 b            0 skpd (  0.0%)    0.001 s ( 0.003 ms/b)
<ss|ff>:          396 b            0 skpd (  0.0%)    0.001 s ( 0.001 ms/b)
<ss|fg>:          198 b            0 skpd (  0.0%)    0.001 s ( 0.005 ms/b)
<ss|gg>:           66 b            0 skpd (  0.0%)    0.001 s ( 0.018 ms/b)
<sp|sp>:         2211 b            0 skpd (  0.0%)    0.006 s ( 0.002 ms/b)
<sp|sd>:         3630 b            0 skpd (  0.0%)    0.006 s ( 0.002 ms/b)
<sp|sf>:         2178 b            0 skpd (  0.0%)    0.001 s ( 0.000 ms/b)
<sp|sg>:          726 b            0 skpd (  0.0%)    0.001 s ( 0.002 ms/b)
<sp|pp>:         1386 b            0 skpd (  0.0%)    0.005 s ( 0.004 ms/b)
<sp|pd>:         1980 b            0 skpd (  0.0%)    0.010 s ( 0.005 ms/b)
<sp|pf>:         1188 b            3 skpd (  0.3%)    0.002 s ( 0.001 ms/b)
<sp|pg>:          396 b            0 skpd (  0.0%)    0.002 s ( 0.006 ms/b)
<sp|dd>:          990 b            0 skpd (  0.0%)    0.006 s ( 0.006 ms/b)
<sp|df>:          990 b            0 skpd (  0.0%)    0.002 s ( 0.002 ms/b)
<sp|dg>:          330 b            0 skpd (  0.0%)    0.003 s ( 0.008 ms/b)
<sp|ff>:          396 b            0 skpd (  0.0%)    0.001 s ( 0.003 ms/b)
<sp|fg>:          198 b            0 skpd (  0.0%)    0.002 s ( 0.009 ms/b)
<sp|gg>:           66 b            0 skpd (  0.0%)    0.002 s ( 0.024 ms/b)
<sd|sd>:         1540 b           10 skpd (  0.6%)    0.004 s ( 0.002 ms/b)
<sd|sf>:         1815 b            5 skpd (  0.3%)    0.001 s ( 0.001 ms/b)
<sd|sg>:          605 b            2 skpd (  0.3%)    0.002 s ( 0.003 ms/b)
<sd|pp>:         1155 b            1 skpd (  0.1%)    0.005 s ( 0.005 ms/b)
<sd|pd>:         1650 b            2 skpd (  0.1%)    0.018 s ( 0.011 ms/b)
<sd|pf>:          990 b            5 skpd (  0.5%)    0.002 s ( 0.002 ms/b)
<sd|pg>:          330 b            3 skpd (  0.9%)    0.003 s ( 0.010 ms/b)
<sd|dd>:          825 b            0 skpd (  0.0%)    0.008 s ( 0.010 ms/b)
<sd|df>:          825 b            0 skpd (  0.0%)    0.003 s ( 0.003 ms/b)
<sd|dg>:          275 b            0 skpd (  0.0%)    0.004 s ( 0.015 ms/b)
<sd|ff>:          330 b            0 skpd (  0.0%)    0.001 s ( 0.004 ms/b)
<sd|fg>:          165 b            0 skpd (  0.0%)    0.002 s ( 0.011 ms/b)
<sd|gg>:           55 b            0 skpd (  0.0%)    0.003 s ( 0.047 ms/b)
<sf|sf>:          561 b            3 skpd (  0.5%)    0.001 s ( 0.001 ms/b)
<sf|sg>:          363 b            0 skpd (  0.0%)    0.001 s ( 0.003 ms/b)
<sf|pp>:          693 b            0 skpd (  0.0%)    0.004 s ( 0.005 ms/b)
<sf|pd>:          990 b            3 skpd (  0.3%)    0.005 s ( 0.005 ms/b)
<sf|pf>:          594 b           12 skpd (  2.0%)    0.001 s ( 0.002 ms/b)
<sf|pg>:          198 b            0 skpd (  0.0%)    0.003 s ( 0.013 ms/b)
<sf|dd>:          495 b            0 skpd (  0.0%)    0.006 s ( 0.011 ms/b)
<sf|df>:          495 b            3 skpd (  0.6%)    0.002 s ( 0.004 ms/b)
<sf|dg>:          165 b            0 skpd (  0.0%)    0.003 s ( 0.019 ms/b)
<sf|ff>:          198 b            1 skpd (  0.5%)    0.001 s ( 0.006 ms/b)
<sf|fg>:           99 b            0 skpd (  0.0%)    0.002 s ( 0.016 ms/b)
<sf|gg>:           33 b            0 skpd (  0.0%)    0.002 s ( 0.064 ms/b)
<sg|sg>:           66 b            0 skpd (  0.0%)    0.000 s ( 0.005 ms/b)
<sg|pp>:          231 b            0 skpd (  0.0%)    0.002 s ( 0.010 ms/b)
<sg|pd>:          330 b            3 skpd (  0.9%)    0.003 s ( 0.010 ms/b)
<sg|pf>:          198 b            0 skpd (  0.0%)    0.001 s ( 0.004 ms/b)
<sg|pg>:           66 b            0 skpd (  0.0%)    0.002 s ( 0.026 ms/b)
<sg|dd>:          165 b            0 skpd (  0.0%)    0.004 s ( 0.022 ms/b)
<sg|df>:          165 b            0 skpd (  0.0%)    0.001 s ( 0.008 ms/b)
<sg|dg>:           55 b            0 skpd (  0.0%)    0.002 s ( 0.040 ms/b)
<sg|ff>:           66 b            0 skpd (  0.0%)    0.001 s ( 0.009 ms/b)
<sg|fg>:           33 b            0 skpd (  0.0%)    0.001 s ( 0.030 ms/b)
<sg|gg>:           11 b            0 skpd (  0.0%)    0.001 s ( 0.117 ms/b)
<pp|pp>:          231 b            0 skpd (  0.0%)    0.006 s ( 0.024 ms/b)
<pp|pd>:          630 b            0 skpd (  0.0%)    0.007 s ( 0.012 ms/b)
<pp|pf>:          378 b            0 skpd (  0.0%)    0.002 s ( 0.005 ms/b)
<pp|pg>:          126 b            0 skpd (  0.0%)    0.003 s ( 0.024 ms/b)
<pp|dd>:          315 b            0 skpd (  0.0%)    0.008 s ( 0.024 ms/b)
<pp|df>:          315 b            0 skpd (  0.0%)    0.002 s ( 0.008 ms/b)
<pp|dg>:          105 b            0 skpd (  0.0%)    0.004 s ( 0.036 ms/b)
<pp|ff>:          126 b            0 skpd (  0.0%)    0.001 s ( 0.008 ms/b)
<pp|fg>:           63 b            0 skpd (  0.0%)    0.001 s ( 0.023 ms/b)
<pp|gg>:           21 b            0 skpd (  0.0%)    0.002 s ( 0.097 ms/b)
<pd|pd>:          465 b            0 skpd (  0.0%)    0.010 s ( 0.021 ms/b)
<pd|pf>:          540 b            0 skpd (  0.0%)    0.003 s ( 0.006 ms/b)
<pd|pg>:          180 b            0 skpd (  0.0%)    0.006 s ( 0.035 ms/b)
<pd|dd>:          450 b            0 skpd (  0.0%)    0.014 s ( 0.032 ms/b)
<pd|df>:          450 b            0 skpd (  0.0%)    0.005 s ( 0.011 ms/b)
<pd|dg>:          150 b            0 skpd (  0.0%)    0.008 s ( 0.053 ms/b)
<pd|ff>:          180 b            0 skpd (  0.0%)    0.002 s ( 0.013 ms/b)
<pd|fg>:           90 b            0 skpd (  0.0%)    0.003 s ( 0.038 ms/b)
<pd|gg>:           30 b            0 skpd (  0.0%)    0.005 s ( 0.158 ms/b)
<pf|pf>:          171 b            0 skpd (  0.0%)    0.002 s ( 0.010 ms/b)
<pf|pg>:          108 b            0 skpd (  0.0%)    0.004 s ( 0.037 ms/b)
<pf|dd>:          270 b            0 skpd (  0.0%)    0.009 s ( 0.032 ms/b)
<pf|df>:          270 b            0 skpd (  0.0%)    0.003 s ( 0.012 ms/b)
<pf|dg>:           90 b            0 skpd (  0.0%)    0.005 s ( 0.059 ms/b)
<pf|ff>:          108 b            0 skpd (  0.0%)    0.002 s ( 0.018 ms/b)
<pf|fg>:           54 b            0 skpd (  0.0%)    0.003 s ( 0.049 ms/b)
<pf|gg>:           18 b            0 skpd (  0.0%)    0.003 s ( 0.194 ms/b)
<pg|pg>:           21 b            0 skpd (  0.0%)    0.002 s ( 0.077 ms/b)
<pg|dd>:           90 b            0 skpd (  0.0%)    0.006 s ( 0.065 ms/b)
<pg|df>:           90 b            0 skpd (  0.0%)    0.002 s ( 0.023 ms/b)
<pg|dg>:           30 b            0 skpd (  0.0%)    0.003 s ( 0.114 ms/b)
<pg|ff>:           36 b            0 skpd (  0.0%)    0.001 s ( 0.025 ms/b)
<pg|fg>:           18 b            0 skpd (  0.0%)    0.002 s ( 0.085 ms/b)
<pg|gg>:            6 b            0 skpd (  0.0%)    0.002 s ( 0.328 ms/b)
<dd|dd>:          120 b            0 skpd (  0.0%)    0.011 s ( 0.093 ms/b)
<dd|df>:          225 b            0 skpd (  0.0%)    0.004 s ( 0.018 ms/b)
<dd|dg>:           75 b            0 skpd (  0.0%)    0.007 s ( 0.089 ms/b)
<dd|ff>:           90 b            0 skpd (  0.0%)    0.002 s ( 0.022 ms/b)
<dd|fg>:           45 b            0 skpd (  0.0%)    0.003 s ( 0.064 ms/b)
<dd|gg>:           15 b            0 skpd (  0.0%)    0.004 s ( 0.269 ms/b)
<df|df>:          120 b            0 skpd (  0.0%)    0.004 s ( 0.033 ms/b)
<df|dg>:           75 b            0 skpd (  0.0%)    0.006 s ( 0.082 ms/b)
<df|ff>:           90 b            0 skpd (  0.0%)    0.003 s ( 0.030 ms/b)
<df|fg>:           45 b            0 skpd (  0.0%)    0.004 s ( 0.087 ms/b)
<df|gg>:           15 b            0 skpd (  0.0%)    0.005 s ( 0.315 ms/b)
<dg|dg>:           15 b            0 skpd (  0.0%)    0.003 s ( 0.207 ms/b)
<dg|ff>:           30 b            0 skpd (  0.0%)    0.002 s ( 0.052 ms/b)
<dg|fg>:           15 b            0 skpd (  0.0%)    0.002 s ( 0.128 ms/b)
<dg|gg>:            5 b            0 skpd (  0.0%)    0.002 s ( 0.481 ms/b)
<ff|ff>:           21 b            0 skpd (  0.0%)    0.001 s ( 0.052 ms/b)
<ff|fg>:           18 b            0 skpd (  0.0%)    0.002 s ( 0.110 ms/b)
<ff|gg>:            6 b            0 skpd (  0.0%)    0.003 s ( 0.426 ms/b)
<fg|fg>:            6 b            0 skpd (  0.0%)    0.001 s ( 0.245 ms/b)
<fg|gg>:            3 b            0 skpd (  0.0%)    0.002 s ( 0.704 ms/b)
<gg|gg>:            1 b            0 skpd (  0.0%)    0.001 s ( 1.254 ms/b)
Recanonicalizing the internal orbitals
Recanonicalizing the virtual orbitals
Time needed for Fock operator              ...            0.452 sec
Reference energy                           ...  -1149.752228591
Warning: for UHF the TrafoType has to be JK
Warning: for UHF the K(C)-option cannot be MO but must be AOX

-------------------------------
PARTIAL EXCHANGE TRANSFORMATION
-------------------------------

Transformation type                        ... two-operators
Generation of integrals (i,mue|j,nue)      ... ON
Generation of integrals (mue,kappa|nue,tau)... ON
Generation of integrals (i,mue|a,nue)      ... ON
Dimension of the basis                     ...   84
Number of internal alpha-MOs               ...   10 (   5-  14)
Number of internal beta-MOs                ...    5 (   5-   9)
Number of external alpha-MOs               ...   69 (  15-  83)
Number of external beta-MOs                ...   74 (  10-  83)
Pair cutoff                                ... 0.000e+00 Eh
Number of AO pairs in the trafo            ... 3570
Total Number of distinct AO pairs          ... 3570
Memory devoted for trafo                   ... 2500.0 MB 
Max. Number of MO pairs treated together   ... 46439      
Number Format for Storage                  ... Double (8 Byte)
Integral package used                      ... LIBINT

Starting integral evaluation:
    ... done with AO integral generation
Closing buffer AOK[aa] ( 0.00 GB; CompressionRatio= 0.99)
Closing buffer AOK[bb] ( 0.00 GB; CompressionRatio= 0.94)
Closing buffer AOK[ab] ( 0.00 GB; CompressionRatio= 0.97)
Closing buffer AOK[ba] ( 0.00 GB; CompressionRatio= 0.97)
Collecting buffer AOK 
Closing buffer IAAO1[aa] ( 0.00 GB; CompressionRatio= 1.00)
Closing buffer IAAO1[bb] ( 0.00 GB; CompressionRatio= 1.00)
Closing buffer IAAO1[ab] ( 0.00 GB; CompressionRatio= 1.00)
Closing buffer IAAO1[ba] ( 0.00 GB; CompressionRatio= 1.00)
Closing buffer IAAO2[aa] ( 0.00 GB; CompressionRatio= 1.00)
Closing buffer IAAO2[bb] ( 0.00 GB; CompressionRatio= 1.00)
Closing buffer IAAO2[ab] ( 0.00 GB; CompressionRatio= 1.00)
Closing buffer IAAO2[ba] ( 0.00 GB; CompressionRatio= 1.00)
Collecting buffer IAAO 
Closing buffer PRQS    ( 0.00 GB; CompressionRatio= 1.00)
Collecting buffer PRQS 
Number of alpha/alpha MO pairs in trafo    ...   55
Number of beta /beta  MO pairs in trafo    ...   15
Number of alpha/ beta MO pairs in trafo    ...   50
------------------------
SORTING OF (i,mue|j,nue)
------------------------

SORTING OF ALPHA/ALPHA PAIRS
IBATCH = 1 of  1
Closing buffer KAO[aa] ( 0.00 GB; CompressionRatio= 1.00)
Collecting buffer KAO 
SORTING OF BETA /BETA  PAIRS
IBATCH = 1 of  1
Closing buffer KAO[bb] ( 0.00 GB; CompressionRatio= 1.00)
Collecting buffer KAO 
SORTING OF ALPHA/BETA  PAIRS
IBATCH = 1 of  1
Closing buffer KAO[ab] ( 0.00 GB; CompressionRatio= 0.999787460149)
Collecting buffer KAO[ab] 
------------------------
SORTING OF (i,mue|a,nue)
------------------------

Number of alpha/alpha (i,a) pairs in trafo  ...  690
Number of beta /beta  (i,a) pairs in trafo  ...  370
Number of alpha/ beta (i,a) pairs in trafo  ...  740
Number of beta /alpha (i,a) pairs in trafo  ...  345
Setting up the alpha/alpha list             ... done
Setting up the beta /beta  list             ... done
Setting up the alpha/beta  list             ... done
Setting up the beta /alpha list             ... done
    ... Now sorting (i,mue|a,nue)integrals
    ... Integrals (i,b|a,c) will be made on the fly
SORTING OF ALPHA/ALPHA PAIRS
IBATCH = 1 of  1
Closing buffer IPAQ[aa]  0.00 GB; CompressionRatio= 1.00)
SORTING OF BETA /BETA  PAIRS
IBATCH = 1 of  1
Closing buffer IPAQ[bb]( 0.00 GB; CompressionRatio= 1.00)
SORTING OF ALPHA/BETA  PAIRS (NMatSort_ab=31)
IBATCH = 1 of  1
Closing buffer IPAQ[ab]( 0.00 GB; CompressionRatio= 1.00)
SORTING OF BETA/ALPHA  PAIRS
IBATCH = 1 of  1
Closing buffer IPAQ[ba]( 0.00 GB; CompressionRatio= 1.00)
N(AO-Batches) Done                         ...      2028 
N(AO-Batches) Skipped                      ...         0 
N(IJ)-pairs Skipped                        ...         0 
TOTAL TIME for half transformation         ...     6.110 sec
AO-integral generation                     ...     0.054 sec
Half transformation                        ...     0.565 sec
K-integral sorting                         ...     1.224 sec
<ss|**>: 
------------------------------
PARTIAL COULOMB TRANSFORMATION
------------------------------

Transformation type                        ... two-operators
Dimension of the basis                     ...   84
Number of internal alpha-MOs               ...   10 (5-14)
Number of internal beta-MOs                ...    5 (5-9)
Pair cutoff                                ... 0.000e+00 Eh
Number of AO pairs included in the trafo   ... 3570
Total Number of distinct AO pairs          ... 3570
Memory devoted for trafo                   ... 2500.0 MB 
Max. Number of MO pairs treated together   ... 91787      
Max. Number of MOs treated per batch       ... 1092      
Number Format for Storage                  ... Double (8 Byte)
AO-integral source                         ... DIRECT
Integral package used                      ... LIBINT

Starting integral evaluation:
       23166 b        0 skpd     0.016 s (  0.001 ms/b)
<sp|**>:        23166 b        0 skpd     0.036 s (  0.002 ms/b)
<sd|**>:        19305 b        0 skpd     0.099 s (  0.005 ms/b)
<sf|**>:        11583 b        0 skpd     0.057 s (  0.005 ms/b)
<sg|**>:         3861 b        0 skpd     0.039 s (  0.010 ms/b)
<pp|**>:         7371 b        0 skpd     0.058 s (  0.008 ms/b)
<pd|**>:        10530 b        0 skpd     0.110 s (  0.010 ms/b)
<pf|**>:         6318 b        0 skpd     0.066 s (  0.010 ms/b)
<pg|**>:         2106 b        0 skpd     0.063 s (  0.030 ms/b)
<dd|**>:         5265 b        0 skpd     0.104 s (  0.020 ms/b)
<df|**>:         5265 b        0 skpd     0.093 s (  0.018 ms/b)
<dg|**>:         1755 b        0 skpd     0.094 s (  0.053 ms/b)
<ff|**>:         2106 b        0 skpd     0.068 s (  0.032 ms/b)
<fg|**>:         1053 b        0 skpd     0.071 s (  0.068 ms/b)
<gg|**>:          351 b        0 skpd     0.058 s (  0.164 ms/b)
Closing buffer AOJ[aa] ( 0.00 GB; CompressionRatio= 0.97)
Closing buffer AOJ[bb] ( 0.00 GB; CompressionRatio= 0.00)
Collecting buffer AOJ 
    ... done with AO integral generation
Number of Alpha-MO pairs included          ...   55
Number of Beta-MO pairs included           ...   15
    ... Now sorting integrals
SORTING ALPHA/ALPHA PAIRS
IBATCH = 1 of  1
Closing buffer JAO[aa] ( 0.00 GB; CompressionRatio= 1.00)
SORTING BETA/BETA PAIRS
IBATCH = 1 of  1
Closing buffer JAO[bb] ( 0.00 GB; CompressionRatio= 1.00)
Collecting buffer JAO 
TOTAL TIME for half transformation         ...     1.303 sec
AO-integral generation                     ...     0.733 sec
Half transformation                        ...     0.306 sec
J-integral sorting                         ...     0.119 sec

-------------------------- SECOND HALF TRANSFORMATION -------------------------
Formation of (ij|kl),(ij|ka), (ij|ab)      ... ok (     0.304 sec)
Formation of (ik|jl),(ik|ja), (ia|jb)      ... ok (     0.278 sec)


-----------------------
SPIN UNRESTRICTED GUESS
-----------------------

Entering MDCI_UHF_Guess, Tailored=0
Spin-components of the MP2 energy:
EMP2(aa)=     -0.144532937
EMP2(bb)=     -0.037378935
EMP2(ab)=     -0.312289217

Initial guess performed in     0.016 sec
E(0)                                       ...  -1149.752228591
E(MP2)                                     ...     -0.494201089
Initial E(tot)                             ...  -1150.246429680
<T|T>                                      ...      0.088189565
Number of pairs included                   ... 105

------------------------------------------------
                  UHF COUPLED CLUSTER ITERATIONS
------------------------------------------------

Number of amplitudes to be optimized       ...       390310

Iter       E(tot)           E(Corr)          Delta-E          Residual     Time      <S|S>**1/2
  0  -1150.246429680     -0.494201089     -0.000000000      0.028548089    0.71      0.000001707
                           *** Turning on DIIS ***
  1  -1150.220654929     -0.468426338      0.025774750      0.008405855    0.66      0.051407236
  2  -1150.231863486     -0.479634895     -0.011208557      0.004864144    0.68      0.052652338
  3  -1150.232894611     -0.480666021     -0.001031125      0.003197835    0.69      0.065814051
  4  -1150.233759354     -0.481530763     -0.000864742      0.001833811    0.67      0.073278628
  5  -1150.234259360     -0.482030769     -0.000500006      0.000476187    0.68      0.080827803
  6  -1150.234329469     -0.482100878     -0.000070109      0.000283797    0.68      0.082664292
  7  -1150.234355140     -0.482126549     -0.000025671      0.000145534    0.71      0.083352545
  8  -1150.234360468     -0.482131877     -0.000005327      0.000062398    0.71      0.083450103
  9  -1150.234357412     -0.482128821      0.000003056      0.000026989    0.70      0.083393584
 10  -1150.234358032     -0.482129441     -0.000000620      0.000009446    0.69      0.083352419
               --- The Coupled-Cluster iterations have converged ---

----------------------
COUPLED CLUSTER ENERGY
----------------------

E(0)                                       ...  -1149.752228591
E(CORR)                                    ...     -0.482129441
E(TOT)                                     ...  -1150.234358032
Singles norm <S|S>**1/2                    ...      0.083352419 ( 0.066711794, 0.016640625)  
T1 diagnostic                              ...      0.021521502                              

------------------
LARGEST AMPLITUDES
------------------
  14a-> 18a  -1a-> -1a       0.056732
   9b-> 22b  -1b-> -1b       0.043558
  14a-> 27a  -1a-> -1a       0.038941
  13a-> 26a  -1a-> -1a       0.029652
  13a-> 35a   9b-> 31b       0.027575
  12a-> 25a  -1a-> -1a       0.025483
  14a-> 21a   9b-> 21b       0.024577
  14a-> 20a   9b-> 20b       0.024555
  14a-> 17a   9b-> 21b       0.024057
  14a-> 16a   9b-> 20b       0.024037
  11a-> 24a  -1a-> -1a       0.022974
  10a-> 23a  -1a-> -1a       0.022973
  12a-> 34a   9b-> 31b       0.022249
   9a-> 22a  -1a-> -1a       0.021899
   9b-> 31b  -1b-> -1b       0.021077
  13a-> 35a   9b-> 22b       0.020823

----------------------
UHF TRIPLES CORRECTION (Algorithm 1)
----------------------

Multiplier for the singles contribution    ...      1.000000000

SPIN-CASE Alpha-Alpha-Alpha:
10% done
20% done
30% done
40% done
50% done
60% done
70% done
80% done
90% done


SPIN-CASE Beta-Beta-Beta:
10% done
20% done
30% done
40% done
50% done
60% done
70% done
80% done
90% done


SPIN-CASE Alpha-Alpha-Beta:
10% done
20% done
30% done
40% done
50% done
60% done
70% done
80% done
90% done


SPIN-CASE Beta-Beta-Alpha:
10% done
20% done
30% done
40% done
50% done
60% done
70% done
80% done
90% done


Triples Correction (T)                     ...     -0.015657422
    alpha-alpha-alpha ... -0.002344972 ( 15.0%)
    alpha-alpha-beta  ... -0.009785884 ( 62.5%)
    alpha-beta -beta  ... -0.003367391 ( 21.5%)
    beta -beta -beta  ... -0.000159174 (  1.0%)
Scaling of triples based on CCSD energies (Peterson et al. Molecular Physics 113, 1551 (2015))
E(T*) = f*E(T) where f = E(F12-CCSD)/E(CCSD) 
f = CCSD (with F12)/ CCSD (without F12)    ...      1.000000000
Scaled triples correction (T)              ...     -0.015657422

Final correlation energy                   ...     -0.497786863
E(CCSD)                                    ...  -1150.234358032
E(CCSD(T))                                 ...  -1150.250015454



        !!!!!!!!!!!!!!!!!!!!!!!!!!!!!!!!!!!!!!!!!!!!!!!!!!!!!!!!!!!!!!!!!!!!!!!!!! 
        !  Warning: Densities are linearized densities                           !
        !!!!!!!!!!!!!!!!!!!!!!!!!!!!!!!!!!!!!!!!!!!!!!!!!!!!!!!!!!!!!!!!!!!!!!!!!! 

NORM  =      1.100504328 sqrt=     1.049049249
W(HF) =      0.908674300
------------------------------------------------------------------------------
                           ORCA POPULATION ANALYSIS
------------------------------------------------------------------------------
Input electron density              ... 25_Mn.mdcip
Input spin density                  ... 25_Mn.mdcir
BaseName (.gbw .S,...)              ... 25_Mn

                    ********************************
                    * MULLIKEN POPULATION ANALYSIS *
                    ********************************

------------------------------------------
MULLIKEN ATOMIC CHARGES AND SPIN DENSITIES
------------------------------------------
   0 Mn:   -0.000000    5.000000
Sum of atomic charges       :   -0.0000000
Sum of atomic spin densities:    5.0000000

---------------------------------------------------
MULLIKEN REDUCED ORBITAL CHARGES AND SPIN DENSITIES
---------------------------------------------------
CHARGE
  0 Mns       :     6.985325  s :     6.985325
      pz      :     3.999697  p :    11.990996
      px      :     3.996128
      py      :     3.995171
      dz2     :     1.000863  d :     5.985679
      dxz     :     1.548572
      dyz     :     1.432922
      dx2y2   :     1.001615
      dxy     :     1.001707
      f0      :     0.004916  f :     0.034640
      f+1     :     0.005279
      f-1     :     0.005060
      f+2     :     0.005427
      f-2     :     0.005440
      f+3     :     0.004258
      f-3     :     0.004258
      g0      :     0.000361  g :     0.003360
      g+1     :     0.000375
      g-1     :     0.000367
      g+2     :     0.000392
      g-2     :     0.000392
      g+3     :     0.000397
      g-3     :     0.000397
      g+4     :     0.000340
      g-4     :     0.000340

SPIN
  0 Mns       :     0.988317  s :     0.988317
      pz      :     0.008271  p :     0.027701
      px      :     0.009544
      py      :     0.009886
      dz2     :     0.989116  d :     3.964374
      dxz     :     0.441449
      dyz     :     0.557079
      dx2y2   :     0.988317
      dxy     :     0.988412
      f0      :     0.002592  f :     0.017985
      f+1     :     0.002209
      f-1     :     0.002446
      f+2     :     0.002054
      f-2     :     0.002050
      f+3     :     0.003317
      f-3     :     0.003317
      g0      :     0.000164  g :     0.001623
      g+1     :     0.000160
      g-1     :     0.000169
      g+2     :     0.000168
      g-2     :     0.000168
      g+3     :     0.000181
      g-3     :     0.000181
      g+4     :     0.000216
      g-4     :     0.000216


                     *******************************
                     * LOEWDIN POPULATION ANALYSIS *
                     *******************************

-----------------------------------------
LOEWDIN ATOMIC CHARGES AND SPIN DENSITIES
-----------------------------------------
   0 Mn:   -0.000000    5.000000

--------------------------------------------------
LOEWDIN REDUCED ORBITAL CHARGES AND SPIN DENSITIES
--------------------------------------------------
CHARGE
  0 Mns       :     6.985325  s :     6.985325
      pz      :     3.999697  p :    11.990996
      px      :     3.996128
      py      :     3.995171
      dz2     :     1.000863  d :     5.985679
      dxz     :     1.548572
      dyz     :     1.432922
      dx2y2   :     1.001615
      dxy     :     1.001707
      f0      :     0.004916  f :     0.034640
      f+1     :     0.005279
      f-1     :     0.005060
      f+2     :     0.005427
      f-2     :     0.005440
      f+3     :     0.004258
      f-3     :     0.004258
      g0      :     0.000361  g :     0.003360
      g+1     :     0.000375
      g-1     :     0.000367
      g+2     :     0.000392
      g-2     :     0.000392
      g+3     :     0.000397
      g-3     :     0.000397
      g+4     :     0.000340
      g-4     :     0.000340

SPIN
  0 Mns       :     0.988317  s :     0.988317
      pz      :     0.008271  p :     0.027701
      px      :     0.009544
      py      :     0.009886
      dz2     :     0.989116  d :     3.964374
      dxz     :     0.441449
      dyz     :     0.557079
      dx2y2   :     0.988317
      dxy     :     0.988412
      f0      :     0.002592  f :     0.017985
      f+1     :     0.002209
      f-1     :     0.002446
      f+2     :     0.002054
      f-2     :     0.002050
      f+3     :     0.003317
      f-3     :     0.003317
      g0      :     0.000164  g :     0.001623
      g+1     :     0.000160
      g-1     :     0.000169
      g+2     :     0.000168
      g-2     :     0.000168
      g+3     :     0.000181
      g-3     :     0.000181
      g+4     :     0.000216
      g-4     :     0.000216


                      *****************************
                      * MAYER POPULATION ANALYSIS *
                      *****************************

  NA   - Mulliken gross atomic population
  ZA   - Total nuclear charge
  QA   - Mulliken gross atomic charge
  VA   - Mayer's total valence
  BVA  - Mayer's bonded valence
  FA   - Mayer's free valence

  ATOM       NA         ZA         QA         VA         BVA        FA
  0 Mn    25.0000    25.0000    -0.0000     5.5332     0.0000     5.5332





------------------------------------------------------------------------------- 
                                     TIMINGS                                   
------------------------------------------------------------------------------- 


Total execution time                   ...       17.521 sec

Fock Matrix Formation                  ...        0.452 sec (  2.6%)
Initial Guess                          ...        0.016 sec (  0.1%)
DIIS Solver                            ...        0.395 sec (  2.3%)
State Vector Update                    ...        0.018 sec (  0.1%)
Sigma-vector construction              ...        7.159 sec ( 40.9%)
  <0|H|D>                              ...        0.001 sec (  0.0% of sigma)
  <D|H|D>(0-ext Fock)                  ...        0.007 sec (  0.1% of sigma)
  <D|H|D>(0-ext)                       ...        0.023 sec (  0.3% of sigma)
  <D|H|D>(2-ext Fock)                  ...        0.002 sec (  0.0% of sigma)
  <D|H|D>(2-ext)                       ...        0.077 sec (  1.1% of sigma)
  <D|H|D>(4-ext)                       ...        2.923 sec ( 40.8% of sigma)
  <S|H|0>                              ...        0.138 sec (  1.9% of sigma)
  <S|H|S>                              ...        0.001 sec (  0.0% of sigma)
  <S|H|D>(1-ext)                       ...        0.002 sec (  0.0% of sigma)
  <D|H|S>(1-ext)                       ...        0.033 sec (  0.5% of sigma)
  Fock-dressing                        ...        2.761 sec ( 38.6% of sigma)
  (ik|jl)-dressing                     ...        0.029 sec (  0.4% of sigma)
  (ij|ab),(ia|jb)-dressing             ...        0.891 sec ( 12.4% of sigma)
  Pair energies                        ...        0.002 sec (  0.0% of sigma)
Total Time for computing (T)           ...        0.583 sec (  3.3% of ALL)
  I/O of integral and amplitudes       ...        0.158 sec ( 27.2% of (T))
  External N**7 contributions          ...        0.138 sec ( 23.7% of (T))
  Internal N**7 contributions          ...        0.072 sec ( 12.4% of (T))
  N**6 triples energy contributions    ...        0.193 sec ( 33.2% of (T))


-------------------------   --------------------
FINAL SINGLE POINT ENERGY     -1150.250015454246
-------------------------   --------------------


                            ***************************************
                            *     ORCA property calculations      *
                            ***************************************

                                    ---------------------
                                    Active property flags
                                    ---------------------
   (+) Dipole Moment


------------------------------------------------------------------------------
                       ORCA ELECTRIC PROPERTIES CALCULATION
------------------------------------------------------------------------------

Dipole Moment Calculation                       ... on
Quadrupole Moment Calculation                   ... off
Polarizability Calculation                      ... off
GBWName                                         ... 25_Mn.gbw
Electron density file                           ... 25_Mn.scfp
The origin for moment calculation is the CENTER OF MASS  = ( 0.000000,  0.000000  0.000000)

-------------
DIPOLE MOMENT
-------------
                                X             Y             Z
Electronic contribution:     -0.00000       0.00000      -0.00000
Nuclear contribution   :      0.00000       0.00000       0.00000
                        -----------------------------------------
Total Dipole Moment    :     -0.00000       0.00000      -0.00000
                        -----------------------------------------
Magnitude (a.u.)       :      0.00000
Magnitude (Debye)      :      0.00000



--------------------
Rotational spectrum 
--------------------
 
Rotational constants in cm-1:     0.000000     0.000000     0.000000 
Rotational constants in MHz :     0.000000     0.000000     0.000000 

 Dipole components along the rotational axes: 
x,y,z [a.u.] :    -0.000000     0.000000    -0.000000 
x,y,z [Debye]:    -0.000000     0.000000    -0.000000 

 

                           *** MDCI DENSITY ***

------------------------------------------------------------------------------
                       ORCA ELECTRIC PROPERTIES CALCULATION
------------------------------------------------------------------------------

Dipole Moment Calculation                       ... on
Quadrupole Moment Calculation                   ... off
Polarizability Calculation                      ... off
GBWName                                         ... 25_Mn.gbw
Electron density file                           ... 25_Mn.mdcip
The origin for moment calculation is the CENTER OF MASS  = ( 0.000000,  0.000000  0.000000)

-------------
DIPOLE MOMENT
-------------
                                X             Y             Z
Electronic contribution:      0.00000       0.00000       0.00000
Nuclear contribution   :      0.00000       0.00000       0.00000
                        -----------------------------------------
Total Dipole Moment    :      0.00000       0.00000       0.00000
                        -----------------------------------------
Magnitude (a.u.)       :      0.00000
Magnitude (Debye)      :      0.00000



--------------------
Rotational spectrum 
--------------------
 
Rotational constants in cm-1:     0.000000     0.000000     0.000000 
Rotational constants in MHz :     0.000000     0.000000     0.000000 

 Dipole components along the rotational axes: 
x,y,z [a.u.] :     0.000000     0.000000     0.000000 
x,y,z [Debye]:     0.000000     0.000000     0.000000 

 

Timings for individual modules:

Sum of individual times         ...       26.156 sec (=   0.436 min)
GTO integral calculation        ...        1.053 sec (=   0.018 min)   4.0 %
SCF iterations                  ...        6.908 sec (=   0.115 min)  26.4 %
MDCI module                     ...       18.195 sec (=   0.303 min)  69.6 %
                             ****ORCA TERMINATED NORMALLY****
TOTAL RUN TIME: 0 days 0 hours 0 minutes 26 seconds 927 msec
