
                                 *****************
                                 * O   R   C   A *
                                 *****************

           --- An Ab Initio, DFT and Semiempirical electronic structure package ---

                  #######################################################
                  #                        -***-                        #
                  #          Department of theory and spectroscopy      #
                  #               Directorship: Frank Neese             #
                  #        Max Planck Institute fuer Kohlenforschung    #
                  #                Kaiser Wilhelm Platz 1               #
                  #                 D-45470 Muelheim/Ruhr               #
                  #                      Germany                        #
                  #                                                     #
                  #                  All rights reserved                #
                  #                        -***-                        #
                  #######################################################


                         Program Version 4.2.0 -  RELEASE  -


 With contributions from (in alphabetic order):
   Daniel Aravena         : Magnetic Suceptibility
   Michael Atanasov       : Ab Initio Ligand Field Theory (pilot matlab implementation)
   Alexander A. Auer      : GIAO ZORA, VPT2
   Ute Becker             : Parallelization
   Giovanni Bistoni       : ED, misc. LED, open-shell LED, HFLED
   Martin Brehm           : Molecular dynamics
   Dmytro Bykov           : SCF Hessian
   Vijay G. Chilkuri      : MRCI spin determinant printing, contributions to CSF-ICE
   Dipayan Datta          : RHF DLPNO-CCSD density
   Achintya Kumar Dutta   : EOM-CC, STEOM-CC
   Dmitry Ganyushin       : Spin-Orbit,Spin-Spin,Magnetic field MRCI
   Miquel Garcia          : C-PCM Hessian, Gaussian charge scheme
   Yang Guo               : DLPNO-NEVPT2, CIM, IAO-localization
   Andreas Hansen         : Spin unrestricted coupled pair/coupled cluster methods
   Benjamin Helmich-Paris : CASSCF linear response (MC-RPA)
   Lee Huntington         : MR-EOM, pCC
   Robert Izsak           : Overlap fitted RIJCOSX, COSX-SCS-MP3, EOM
   Christian Kollmar      : KDIIS, OOCD, Brueckner-CCSD(T), CCSD density
   Simone Kossmann        : Meta GGA functionals, TD-DFT gradient, OOMP2, MP2 Hessian
   Martin Krupicka        : AUTO-CI
   Lucas Lang             : DCDCAS
   Dagmar Lenk            : GEPOL surface, SMD
   Dimitrios Liakos       : Extrapolation schemes; Compound Job, initial MDCI parallelization
   Dimitrios Manganas     : Further ROCIS development; embedding schemes
   Dimitrios Pantazis     : SARC Basis sets
   Taras Petrenko         : DFT Hessian,TD-DFT gradient, ASA, ECA, R-Raman, ABS, FL, XAS/XES, NRVS
   Peter Pinski           : DLPNO-MP2, DLPNO-MP2 Gradient
   Christoph Reimann      : Effective Core Potentials
   Marius Retegan         : Local ZFS, SOC
   Christoph Riplinger    : Optimizer, TS searches, QM/MM, DLPNO-CCSD(T), (RO)-DLPNO pert. Triples
   Tobias Risthaus        : Range-separated hybrids, TD-DFT gradient, RPA, STAB
   Michael Roemelt        : Original ROCIS implementation
   Masaaki Saitow         : Open-shell DLPNO-CCSD energy and density
   Barbara Sandhoefer     : DKH picture change effects
   Avijit Sen             : IP-ROCIS
   Kantharuban Sivalingam : CASSCF convergence, NEVPT2, FIC-MRCI
   Bernardo de Souza      : ESD, SOC TD-DFT
   Georgi Stoychev        : AutoAux, RI-MP2 NMR
   Willem Van den Heuvel  : Paramagnetic NMR
   Boris Wezisla          : Elementary symmetry handling
   Frank Wennmohs         : Technical directorship


 We gratefully acknowledge several colleagues who have allowed us to
 interface, adapt or use parts of their codes:
   Stefan Grimme, W. Hujo, H. Kruse,             : VdW corrections, initial TS optimization,
                  C. Bannwarth                     DFT functionals, gCP, sTDA/sTD-DF
   Ed Valeev, F. Pavosevic, A. Kumar             : LibInt (2-el integral package), F12 methods
   Garnet Chan, S. Sharma, J. Yang, R. Olivares  : DMRG
   Ulf Ekstrom                                   : XCFun DFT Library
   Mihaly Kallay                                 : mrcc  (arbitrary order and MRCC methods)
   Andreas Klamt, Michael Diedenhofen            : otool_cosmo (COSMO solvation model)
   Jiri Pittner, Ondrej Demel                    : Mk-CCSD
   Frank Weinhold                                : gennbo (NPA and NBO analysis)
   Christopher J. Cramer and Donald G. Truhlar   : smd solvation model
   Lars Goerigk                                  : TD-DFT with DH, B97 family of functionals
   V. Asgeirsson, H. Jonsson                     : NEB implementation
   FAccTs GmbH                                   : IRC, NEB, NEB-TS, Multilevel, MM, QM/MM, CI optimization
   S Lehtola, MJT Oliveira, MAL Marques          : LibXC Library


 Your calculation uses the libint2 library for the computation of 2-el integrals
 For citations please refer to: http://libint.valeyev.net

 Your ORCA version has been built with support for libXC version: 4.2.3
 For citations please refer to: https://tddft.org/programs/libxc/

 This ORCA versions uses:
   CBLAS   interface :  Fast vector & matrix operations
   LAPACKE interface :  Fast linear algebra routines
   SCALAPACK package :  Parallel linear algebra routines


----- Orbital basis set information -----
Your calculation utilizes the basis: def2-QZVP
   F. Weigend and R. Ahlrichs, Phys. Chem. Chem. Phys. 7, 3297 (2005).

================================================================================
                                        WARNINGS
                       Please study these warnings very carefully!
================================================================================


WARNING: your system is open-shell and RHF/RKS was chosen
  ===> : WILL SWITCH to UHF/UKS


WARNING: MDCI localization with Augmented Hessian Foster-Boys
  ===> : Switching off randomization!

WARNING: Post HF methods need fully converged wavefunctions
  ===> : Setting SCFConvForced true
         You can overwrite this default with %scf ConvForced false 


INFO   : the flag for use of LIBINT has been found!

================================================================================
                                       INPUT FILE
================================================================================
NAME = 27_Co.in
|  1> #
|  2> # 27_Co CCSD(T)/Def2-QZVP
|  3> #
|  4> ! CCSD(T) Def2-QZVP tightscf
|  5> 
|  6> *xyz 0 4
|  7>  Co 0.0 0.0 0.0
|  8> *
|  9> 
| 10> %maxcore 5000 
| 11> 
| 12> %pal
| 13> nprocs 24
| 14> end
| 15> 
| 16> 
| 17>                          ****END OF INPUT****
================================================================================

                       ****************************
                       * Single Point Calculation *
                       ****************************

---------------------------------
CARTESIAN COORDINATES (ANGSTROEM)
---------------------------------
  Co     0.000000    0.000000    0.000000

----------------------------
CARTESIAN COORDINATES (A.U.)
----------------------------
  NO LB      ZA    FRAG     MASS         X           Y           Z
   0 Co   27.0000    0    58.930    0.000000    0.000000    0.000000

--------------------------------
INTERNAL COORDINATES (ANGSTROEM)
--------------------------------
 Co     0   0   0     0.000000000000     0.00000000     0.00000000

---------------------------
INTERNAL COORDINATES (A.U.)
---------------------------
 Co     0   0   0     0.000000000000     0.00000000     0.00000000

---------------------
BASIS SET INFORMATION
---------------------
There are 1 groups of distinct atoms

 Group   1 Type Co  : 24s18p10d3f1g contracted to 11s6p5d3f1g pattern {114111111111/951111/61111/111/1}

Atom   0Co   basis set group =>   1


           ************************************************************
           *        Program running with 24 parallel MPI-processes    *
           *              working on a common directory               *
           ************************************************************
------------------------------------------------------------------------------
                           ORCA GTO INTEGRAL CALCULATION
------------------------------------------------------------------------------

                         BASIS SET STATISTICS AND STARTUP INFO

 # of primitive gaussian shells          ...   56
 # of primitive gaussian functions       ...  158
 # of contracted shells                  ...   26
 # of contracted basis functions         ...   84
 Highest angular momentum                ...    4
 Maximum contraction depth               ...   11
 Integral package used                   ... LIBINT
 Integral threshhold            Thresh   ...  2.500e-11
 Primitive cut-off              TCut     ...  2.500e-12


------------------------------ INTEGRAL EVALUATION ----------------------------


 * One electron integrals 
 Pre-screening matrix                    ... done
 Shell pair data                         ... done (   0.000 sec)



           ************************************************************
           *        Program running with 24 parallel MPI-processes    *
           *              working on a common directory               *
           ************************************************************
-------------------------------------------------------------------------------
                                 ORCA SCF
-------------------------------------------------------------------------------

------------
SCF SETTINGS
------------
Hamiltonian:
 Ab initio Hamiltonian  Method          .... Hartree-Fock(GTOs)


General Settings:
 Integral files         IntName         .... 27_Co
 Hartree-Fock type      HFTyp           .... UHF
 Total Charge           Charge          ....    0
 Multiplicity           Mult            ....    4
 Number of Electrons    NEL             ....   27
 Basis Dimension        Dim             ....   84
 Nuclear Repulsion      ENuc            ....      0.0000000000 Eh

Convergence Acceleration:
 DIIS                   CNVDIIS         .... on
   Start iteration      DIISMaxIt       ....    12
   Startup error        DIISStart       ....  0.200000
   # of expansion vecs  DIISMaxEq       ....     5
   Bias factor          DIISBfac        ....   1.050
   Max. coefficient     DIISMaxC        ....  10.000
 Newton-Raphson         CNVNR           .... off
 SOSCF                  CNVSOSCF        .... off
 Level Shifting         CNVShift        .... on
   Level shift para.    LevelShift      ....    0.2500
   Turn off err/grad.   ShiftErr        ....    0.0010
 Zerner damping         CNVZerner       .... off
 Static damping         CNVDamp         .... on
   Fraction old density DampFac         ....    0.7000
   Max. Damping (<1)    DampMax         ....    0.9800
   Min. Damping (>=0)   DampMin         ....    0.0000
   Turn off err/grad.   DampErr         ....    0.1000
 Fernandez-Rico         CNVRico         .... off

SCF Procedure:
 Maximum # iterations   MaxIter         ....   125
 SCF integral mode      SCFMode         .... Direct
   Integral package                     .... LIBINT
 Reset frequency        DirectResetFreq ....    20
 Integral Threshold     Thresh          ....  2.500e-11 Eh
 Primitive CutOff       TCut            ....  2.500e-12 Eh

Convergence Tolerance:
 Convergence Check Mode ConvCheckMode   .... Total+1el-Energy
 Convergence forced     ConvForced      .... 1
 Energy Change          TolE            ....  1.000e-08 Eh
 1-El. energy change                    ....  1.000e-05 Eh
 DIIS Error             TolErr          ....  5.000e-07


Diagonalization of the overlap matrix:
Smallest eigenvalue                        ... 1.192e-03
Time for diagonalization                   ...    0.003 sec
Threshold for overlap eigenvalues          ... 1.000e-08
Number of eigenvalues below threshold      ... 0
Time for construction of square roots      ...    0.012 sec
Total time needed                          ...    0.015 sec

-------------------
DFT GRID GENERATION
-------------------

General Integration Accuracy     IntAcc      ...  4.340
Radial Grid Type                 RadialGrid  ... Gauss-Chebyshev
Angular Grid (max. acc.)         AngularGrid ... Lebedev-110
Angular grid pruning method      GridPruning ... 3 (G Style)
Weight generation scheme         WeightScheme... Becke
Basis function cutoff            BFCut       ...    1.0000e-11
Integration weight cutoff        WCut        ...    1.0000e-14
Grids for H and He will be reduced by one unit

# of grid points (after initial pruning)     ...   2912 (   0.0 sec)
# of grid points (after weights+screening)   ...   2912 (   0.0 sec)
Grid point division into batches done        ...    0.0 sec
Reduced shell lists constructed in    0.0 sec

Total number of grid points                  ...     2912
Total number of batches                      ...       46
Average number of points per batch           ...       63
Average number of grid points per atom       ...     2912
Average number of shells per batch           ...     6.67 (25.64%)
Average number of basis functions per batch  ...    20.00 (23.81%)
Average number of large shells per batch     ...     5.33 (80.00%)
Average number of large basis fcns per batch ...    14.67 (73.33%)
Maximum spatial batch extension              ...  18.98, 28.73, 28.73 au
Average spatial batch extension              ...   0.83,  1.25,  1.25 au

Time for grid setup =    0.073 sec

------------------------------
INITIAL GUESS: MODEL POTENTIAL
------------------------------
Loading Hartree-Fock densities                     ... done
Calculating cut-offs                               ... done
Setting up the integral package                    ... done
Initializing the effective Hamiltonian             ... done
Starting the Coulomb interaction                   ... done (   0.0 sec)
Reading the grid                                   ... done
Mapping shells                                     ... done
Starting the XC term evaluation                    ... done (   0.0 sec)
Transforming the Hamiltonian                       ... done (   0.0 sec)
Diagonalizing the Hamiltonian                      ... done (   0.0 sec)
Back transforming the eigenvectors                 ... done (   0.0 sec)
Now organizing SCF variables                       ... done
                      ------------------
                      INITIAL GUESS DONE (   0.2 sec)
                      ------------------
--------------
SCF ITERATIONS
--------------
ITER       Energy         Delta-E        Max-DP      RMS-DP      [F,P]     Damp
               ***  Starting incremental Fock matrix formation  ***
  0  -1381.3095713858   0.000000000000 0.04330696  0.00076064  0.6062941 0.7000
  1  -1381.3280454804  -0.018474094610 0.03399769  0.00056668  0.4263570 0.7000
  2  -1381.3384690822  -0.010423601841 0.02598377  0.00039826  0.2993883 0.7000
  3  -1381.3457966680  -0.007327585796 0.01970842  0.00030020  0.2100128 0.7000
                               ***Turning on DIIS***
  4  -1381.3511914426  -0.005394774592 0.01517014  0.00023871  0.1472411 0.7000
  5  -1381.3806851977  -0.029493755105 0.01323957  0.00022766  0.1032135 0.7000
  6  -1381.3730944767   0.007590721061 0.03992932  0.00068677  0.0722862 0.0000
  7  -1381.3664434075   0.006651069122 0.01168394  0.00018558  0.0044106 0.0000
  8  -1381.3823528208  -0.015909413236 0.01527461  0.00020932  0.0029169 0.0000
  9  -1381.3728742005   0.009478620302 0.01293795  0.00014394  0.0014837 0.0000
 10  -1381.3693695714   0.003504629067 0.01690370  0.00017448  0.0007989 0.0000
 11  -1381.3677460614   0.001623510032 0.00636654  0.00006610  0.0002620 0.0000
 12  -1381.3665339679   0.001212093448 0.00215953  0.00002246  0.0000961 0.0000
 13  -1381.3664948207   0.000039147262 0.00013293  0.00000171  0.0000310 0.0000
 14  -1381.3659994777   0.000495342972 0.00006177  0.00000064  0.0000081 0.0000
                            ***DIIS convergence achieved***

               *****************************************************
               *                     SUCCESS                       *
               *           SCF CONVERGED AFTER  15 CYCLES          *
               *****************************************************


----------------
TOTAL SCF ENERGY
----------------

Total Energy       :        -1381.36605165 Eh          -37588.88125 eV

Components:
Nuclear Repulsion  :            0.00000000 Eh               0.00000 eV
Electronic Energy  :        -1381.36605165 Eh          -37588.88125 eV
One Electron Energy:        -1919.30258510 Eh          -52226.87850 eV
Two Electron Energy:          537.93653345 Eh           14637.99726 eV

Virial components:
Potential Energy   :        -2762.68678034 Eh          -75176.52919 eV
Kinetic Energy     :         1381.32072870 Eh           37587.64795 eV
Virial Ratio       :            2.00003281


---------------
SCF CONVERGENCE
---------------

  Last Energy change         ...   -5.2169e-05  Tolerance :   1.0000e-08
  Last MAX-Density change    ...    4.8148e-05  Tolerance :   1.0000e-07
  Last RMS-Density change    ...    4.8337e-07  Tolerance :   5.0000e-09
  Last DIIS Error            ...    7.9006e-07  Tolerance :   5.0000e-07

             **** THE GBW FILE WAS UPDATED (27_Co.gbw) ****
             **** DENSITY FILE WAS UPDATED (27_Co.scfp) ****
             **** ENERGY FILE WAS UPDATED (27_Co.en.tmp) ****
----------------------
UHF SPIN CONTAMINATION
----------------------

Expectation value of <S**2>     :     3.752402
Ideal value S*(S+1) for S=1.5   :     3.750000
Deviation                       :     0.002402

             **** THE GBW FILE WAS UPDATED (27_Co.gbw) ****
             **** DENSITY FILE WAS UPDATED (27_Co.scfp) ****
----------------
ORBITAL ENERGIES
----------------
                 SPIN UP ORBITALS
  NO   OCC          E(Eh)            E(eV) 
   0   1.0000    -282.856921     -7696.9281 
   1   1.0000     -34.665998      -943.3098 
   2   1.0000     -29.920858      -814.1879 
   3   1.0000     -29.920858      -814.1879 
   4   1.0000     -29.920858      -814.1879 
   5   1.0000      -4.393092      -119.5421 
   6   1.0000      -2.907485       -79.1167 
   7   1.0000      -2.907485       -79.1167 
   8   1.0000      -2.907485       -79.1167 
   9   1.0000      -0.498784       -13.5726 
  10   1.0000      -0.498784       -13.5726 
  11   1.0000      -0.446311       -12.1447 
  12   1.0000      -0.446311       -12.1447 
  13   1.0000      -0.446311       -12.1447 
  14   1.0000      -0.232383        -6.3235 
  15   0.0000       0.035498         0.9659 
  16   0.0000       0.035498         0.9659 
  17   0.0000       0.035498         0.9659 
  18   0.0000       0.107648         2.9292 
  19   0.0000       0.164440         4.4746 
  20   0.0000       0.164440         4.4746 
  21   0.0000       0.164440         4.4746 
  22   0.0000       0.192387         5.2351 
  23   0.0000       0.192387         5.2351 
  24   0.0000       0.193965         5.2781 
  25   0.0000       0.193965         5.2781 
  26   0.0000       0.193965         5.2781 
  27   0.0000       0.554983        15.1019 
  28   0.0000       0.569527        15.4976 
  29   0.0000       0.569527        15.4976 
  30   0.0000       0.569527        15.4976 
  31   0.0000       0.660034        17.9604 
  32   0.0000       0.660034        17.9604 
  33   0.0000       0.668251        18.1840 
  34   0.0000       0.668251        18.1840 
  35   0.0000       0.668251        18.1840 
  36   0.0000       1.956659        53.2434 
  37   0.0000       1.956659        53.2434 
  38   0.0000       1.958698        53.2989 
  39   0.0000       1.958698        53.2989 
  40   0.0000       1.958698        53.2989 
  41   0.0000       1.977395        53.8077 
  42   0.0000       1.977395        53.8077 
  43   0.0000       1.977395        53.8077 
  44   0.0000       2.027534        55.1720 
  45   0.0000       2.027534        55.1720 
  46   0.0000       2.027534        55.1720 
  47   0.0000       2.035345        55.3846 
  48   0.0000       2.035345        55.3846 
  49   0.0000       2.035345        55.3846 
  50   0.0000       2.045960        55.6734 
  51   0.0000       2.806799        76.3769 
  52   0.0000       5.441501       148.0708 
  53   0.0000       5.441501       148.0708 
  54   0.0000       5.476242       149.0161 
  55   0.0000       5.476242       149.0161 
  56   0.0000       5.476242       149.0161 
  57   0.0000       6.279420       170.8717 
  58   0.0000       6.279420       170.8717 
  59   0.0000       6.279420       170.8717 
  60   0.0000       6.302400       171.4970 
  61   0.0000       6.302400       171.4970 
  62   0.0000       6.302400       171.4970 
  63   0.0000       6.331493       172.2887 
  64   0.0000      10.669349       290.3277 
  65   0.0000      10.681881       290.6688 
  66   0.0000      10.681881       290.6688 
  67   0.0000      10.681881       290.6688 
  68   0.0000      10.690615       290.9064 
  69   0.0000      10.690615       290.9064 
  70   0.0000      10.716782       291.6185 
  71   0.0000      10.716782       291.6185 
  72   0.0000      10.716782       291.6185 
  73   0.0000      11.231381       305.6214 
  74   0.0000      18.735633       509.8225 
  75   0.0000      18.735633       509.8225 
  76   0.0000      18.735633       509.8225 
  77   0.0000      18.760841       510.5084 
  78   0.0000      18.760841       510.5084 
  79   0.0000      18.760841       510.5084 
  80   0.0000      18.792550       511.3713 
  81   0.0000      38.330138      1043.0161 
  82   0.0000     128.373833      3493.2296 
  83   0.0000     808.384372     21997.2571 

                 SPIN DOWN ORBITALS
  NO   OCC          E(Eh)            E(eV) 
   0   1.0000    -282.854162     -7696.8530 
   1   1.0000     -34.601406      -941.5521 
   2   1.0000     -29.859064      -812.5064 
   3   1.0000     -29.859064      -812.5064 
   4   1.0000     -29.859064      -812.5064 
   5   1.0000      -4.210319      -114.5686 
   6   1.0000      -2.692935       -73.2785 
   7   1.0000      -2.692935       -73.2785 
   8   1.0000      -2.692935       -73.2785 
   9   1.0000      -0.379243       -10.3197 
  10   1.0000      -0.379243       -10.3197 
  11   1.0000      -0.379243       -10.3197 
  12   0.0000       0.017289         0.4704 
  13   0.0000       0.058045         1.5795 
  14   0.0000       0.058045         1.5795 
  15   0.0000       0.058045         1.5795 
  16   0.0000       0.150681         4.1002 
  17   0.0000       0.192722         5.2442 
  18   0.0000       0.192722         5.2442 
  19   0.0000       0.203818         5.5462 
  20   0.0000       0.203818         5.5462 
  21   0.0000       0.203818         5.5462 
  22   0.0000       0.206028         5.6063 
  23   0.0000       0.206028         5.6063 
  24   0.0000       0.206028         5.6063 
  25   0.0000       0.406508        11.0616 
  26   0.0000       0.406508        11.0616 
  27   0.0000       0.600999        16.3540 
  28   0.0000       0.606384        16.5005 
  29   0.0000       0.606384        16.5005 
  30   0.0000       0.606384        16.5005 
  31   0.0000       0.693986        18.8843 
  32   0.0000       0.693986        18.8843 
  33   0.0000       0.693986        18.8843 
  34   0.0000       0.795059        21.6346 
  35   0.0000       0.795059        21.6346 
  36   0.0000       2.006667        54.6042 
  37   0.0000       2.006667        54.6042 
  38   0.0000       2.006667        54.6042 
  39   0.0000       2.009365        54.6776 
  40   0.0000       2.009365        54.6776 
  41   0.0000       2.009365        54.6776 
  42   0.0000       2.059726        56.0480 
  43   0.0000       2.081647        56.6445 
  44   0.0000       2.081647        56.6445 
  45   0.0000       2.081647        56.6445 
  46   0.0000       2.094021        56.9812 
  47   0.0000       2.094021        56.9812 
  48   0.0000       2.100737        57.1640 
  49   0.0000       2.100737        57.1640 
  50   0.0000       2.100737        57.1640 
  51   0.0000       2.860546        77.8394 
  52   0.0000       5.508877       149.9042 
  53   0.0000       5.508877       149.9042 
  54   0.0000       5.508877       149.9042 
  55   0.0000       5.592390       152.1767 
  56   0.0000       5.592390       152.1767 
  57   0.0000       6.346110       172.6864 
  58   0.0000       6.395197       174.0222 
  59   0.0000       6.395197       174.0222 
  60   0.0000       6.395197       174.0222 
  61   0.0000       6.434413       175.0893 
  62   0.0000       6.434413       175.0893 
  63   0.0000       6.434413       175.0893 
  64   0.0000      10.753978       292.6306 
  65   0.0000      10.753978       292.6306 
  66   0.0000      10.753978       292.6306 
  67   0.0000      10.766484       292.9709 
  68   0.0000      10.766484       292.9709 
  69   0.0000      10.770225       293.0727 
  70   0.0000      10.770225       293.0727 
  71   0.0000      10.770225       293.0727 
  72   0.0000      10.775964       293.2289 
  73   0.0000      11.283690       307.0448 
  74   0.0000      18.812638       511.9179 
  75   0.0000      18.844450       512.7835 
  76   0.0000      18.844450       512.7835 
  77   0.0000      18.844450       512.7835 
  78   0.0000      18.869957       513.4776 
  79   0.0000      18.869957       513.4776 
  80   0.0000      18.869957       513.4776 
  81   0.0000      38.367173      1044.0239 
  82   0.0000     128.389441      3493.6543 
  83   0.0000     808.388654     21997.3736 

                    ********************************
                    * MULLIKEN POPULATION ANALYSIS *
                    ********************************

--------------------------------------------
MULLIKEN ATOMIC CHARGES AND SPIN POPULATIONS
--------------------------------------------
   0 Co:    0.000000    3.000000
Sum of atomic charges         :    0.0000000
Sum of atomic spin populations:    3.0000000

-----------------------------------------------------
MULLIKEN REDUCED ORBITAL CHARGES AND SPIN POPULATIONS
-----------------------------------------------------
CHARGE
  0 Cos       :     6.999969  s :     6.999969
      pz      :     3.999659  p :    11.998976
      px      :     3.999659
      py      :     3.999659
      dz2     :     0.999994  d :     7.999976
      dxz     :     1.999996
      dyz     :     1.999996
      dx2y2   :     0.999994
      dxy     :     1.999996
      f0      :     0.000341  f :     0.001024
      f+1     :     0.000128
      f-1     :     0.000128
      f+2     :     0.000000
      f-2     :     0.000000
      f+3     :     0.000213
      f-3     :     0.000213
      g0      :     0.000020  g :     0.000055
      g+1     :     0.000001
      g-1     :     0.000001
      g+2     :     0.000006
      g-2     :     0.000004
      g+3     :     0.000004
      g-3     :     0.000004
      g+4     :     0.000016
      g-4     :     0.000000

SPIN
  0 Cos       :     1.000014  s :     1.000014
      pz      :     0.000309  p :     0.000926
      px      :     0.000309
      py      :     0.000309
      dz2     :     0.999994  d :     1.999993
      dxz     :     0.000001
      dyz     :     0.000001
      dx2y2   :     0.999994
      dxy     :     0.000001
      f0      :    -0.000309  f :    -0.000926
      f+1     :    -0.000116
      f-1     :    -0.000116
      f+2     :    -0.000000
      f-2     :    -0.000000
      f+3     :    -0.000193
      f-3     :    -0.000193
      g0      :    -0.000006  g :    -0.000008
      g+1     :    -0.000000
      g-1     :    -0.000000
      g+2     :     0.000006
      g-2     :    -0.000001
      g+3     :    -0.000001
      g-3     :    -0.000001
      g+4     :    -0.000003
      g-4     :     0.000000


                     *******************************
                     * LOEWDIN POPULATION ANALYSIS *
                     *******************************

-------------------------------------------
LOEWDIN ATOMIC CHARGES AND SPIN POPULATIONS
-------------------------------------------
   0 Co:   -0.000000    3.000000

----------------------------------------------------
LOEWDIN REDUCED ORBITAL CHARGES AND SPIN POPULATIONS
----------------------------------------------------
CHARGE
  0 Cos       :     6.999969  s :     6.999969
      pz      :     3.999659  p :    11.998976
      px      :     3.999659
      py      :     3.999659
      dz2     :     0.999994  d :     7.999976
      dxz     :     1.999996
      dyz     :     1.999996
      dx2y2   :     0.999994
      dxy     :     1.999996
      f0      :     0.000341  f :     0.001024
      f+1     :     0.000128
      f-1     :     0.000128
      f+2     :     0.000000
      f-2     :     0.000000
      f+3     :     0.000213
      f-3     :     0.000213
      g0      :     0.000020  g :     0.000055
      g+1     :     0.000001
      g-1     :     0.000001
      g+2     :     0.000006
      g-2     :     0.000004
      g+3     :     0.000004
      g-3     :     0.000004
      g+4     :     0.000016
      g-4     :     0.000000

SPIN
  0 Cos       :     1.000014  s :     1.000014
      pz      :     0.000309  p :     0.000926
      px      :     0.000309
      py      :     0.000309
      dz2     :     0.999994  d :     1.999993
      dxz     :     0.000001
      dyz     :     0.000001
      dx2y2   :     0.999994
      dxy     :     0.000001
      f0      :    -0.000309  f :    -0.000926
      f+1     :    -0.000116
      f-1     :    -0.000116
      f+2     :    -0.000000
      f-2     :    -0.000000
      f+3     :    -0.000193
      f-3     :    -0.000193
      g0      :    -0.000006  g :    -0.000008
      g+1     :    -0.000000
      g-1     :    -0.000000
      g+2     :     0.000006
      g-2     :    -0.000001
      g+3     :    -0.000001
      g-3     :    -0.000001
      g+4     :    -0.000003
      g-4     :     0.000000


                      *****************************
                      * MAYER POPULATION ANALYSIS *
                      *****************************

  NA   - Mulliken gross atomic population
  ZA   - Total nuclear charge
  QA   - Mulliken gross atomic charge
  VA   - Mayer's total valence
  BVA  - Mayer's bonded valence
  FA   - Mayer's free valence

  ATOM       NA         ZA         QA         VA         BVA        FA
  0 Co    27.0000    27.0000     0.0000     3.0048     0.0000     3.0048

  Mayer bond orders larger than 0.100000


-------
TIMINGS
-------

Total SCF time: 0 days 0 hours 0 min 4 sec 

Total time                  ....       4.676 sec
Sum of individual times     ....       4.129 sec  ( 88.3%)

Fock matrix formation       ....       3.530 sec  ( 75.5%)
Diagonalization             ....       0.113 sec  (  2.4%)
Density matrix formation    ....       0.011 sec  (  0.2%)
Population analysis         ....       0.081 sec  (  1.7%)
Initial guess               ....       0.131 sec  (  2.8%)
Orbital Transformation      ....       0.000 sec  (  0.0%)
Orbital Orthonormalization  ....       0.000 sec  (  0.0%)
DIIS solution               ....       0.190 sec  (  4.1%)


           ************************************************************
           *        Program running with 24 parallel MPI-processes    *
           *              working on a common directory               *
           ************************************************************


------------------------------------------------------------------------------- 
                              ORCA-MATRIX DRIVEN CI                            
------------------------------------------------------------------------------- 

--------------------------------
AUTOMATIC CHOICE OF INCORE LEVEL
--------------------------------

Memory available                           ...   2500.00 MB
Memory needed for S+T                      ...      5.99 MB
Memory needed for J+K                      ...     12.04 MB
Memory needed for DIIS                     ...     83.91 MB
Memory needed for 3-ext                    ...     25.06 MB
Memory needed for 4-ext                    ...     87.72 MB
Memory needed for triples                  ...     12.53 MB
 -> Final InCoreLevel    ... 5
 -> check shows that triples correction can be computed


Wavefunction type
-----------------
Correlation treatment                      ...      CCSD     
Single excitations                         ... ON
Orbital optimization                       ... OFF
Calculation of Z vector                    ... OFF
Calculation of Brueckner orbitals          ... OFF
Perturbative triple excitations            ... ON
Calculation of F12 correction              ... OFF
Frozen core treatment                      ... chemical core (10 el)
Reference Wavefunction                     ... UHF
  Alpha-MOs occ    :     5 ...   14 ( 10 MO's/ 10 electrons)
  Beta-MOs occ     :     5 ...   11 (  7 MO's/  7 electrons)
  Alpha-MOs virt   :    15 ...   83 ( 69 MO's              )
  Beta-MOs virt    :    12 ...   83 ( 72 MO's              )
Number of AO's                             ...     84
Number of electrons                        ...     27
Number of correlated electrons             ...     17

Algorithmic settings
--------------------
Integral transformation                    ... AO direct full transformation
K(C) Formation                             ... FULL-MO TRAFO
Maximum number of iterations               ...        50
Convergence tolerance (max. residuum)      ... 1.000e-05
Level shift for amplitude update           ... 2.000e-01
Maximum number of DIIS vectors             ...         7
DIIS turned on at iteration                ...         0
Damping before turning on DIIS             ...     0.500
Damping after turning on DIIS              ...     0.000
Pair specific amplitude update             ... OFF
Natural orbital iterations                 ... OFF
Perturbative natural orbital generation    ... OFF
Printlevel                                 ... 2

Memory handling:
----------------
Maximum memory for working arrays          ...   2500 MB
Data storage in matrix containers          ... UNCOMPRESSED
Data type for integral storage             ... DOUBLE
In-Core Storage of quantities:
   Amplitudes+Sigma Vector      ... YES
   J+K operators                ... YES
   DIIS vectors                 ... YES
   3-external integrals         ... YES
   4-external integrals         ... YES


Initializing the integral package          ... done
Warning: reference  - re-canonicalizations have been set to INT 1 VIRT 1

--------------------------
UNRESTRICTED FOCK OPERATOR
--------------------------

<ss|ss>:         2211 b            0 skpd (  0.0%)    0.001 s ( 0.001 ms/b)
<ss|sp>:         4356 b            0 skpd (  0.0%)    0.005 s ( 0.001 ms/b)
<ss|sd>:         3630 b            0 skpd (  0.0%)    0.003 s ( 0.001 ms/b)
<ss|sf>:         2178 b            0 skpd (  0.0%)    0.001 s ( 0.000 ms/b)
<ss|sg>:          726 b            0 skpd (  0.0%)    0.001 s ( 0.001 ms/b)
<ss|pp>:         1386 b            0 skpd (  0.0%)    0.003 s ( 0.002 ms/b)
<ss|pd>:         1980 b            0 skpd (  0.0%)    0.003 s ( 0.002 ms/b)
<ss|pf>:         1188 b            0 skpd (  0.0%)    0.001 s ( 0.001 ms/b)
<ss|pg>:          396 b            0 skpd (  0.0%)    0.001 s ( 0.004 ms/b)
<ss|dd>:          990 b            0 skpd (  0.0%)    0.002 s ( 0.002 ms/b)
<ss|df>:          990 b            0 skpd (  0.0%)    0.001 s ( 0.001 ms/b)
<ss|dg>:          330 b            0 skpd (  0.0%)    0.001 s ( 0.004 ms/b)
<ss|ff>:          396 b            0 skpd (  0.0%)    0.000 s ( 0.001 ms/b)
<ss|fg>:          198 b            0 skpd (  0.0%)    0.001 s ( 0.003 ms/b)
<ss|gg>:           66 b            0 skpd (  0.0%)    0.001 s ( 0.009 ms/b)
<sp|sp>:         2211 b            0 skpd (  0.0%)    0.005 s ( 0.002 ms/b)
<sp|sd>:         3630 b            0 skpd (  0.0%)    0.004 s ( 0.001 ms/b)
<sp|sf>:         2178 b            0 skpd (  0.0%)    0.002 s ( 0.001 ms/b)
<sp|sg>:          726 b            0 skpd (  0.0%)    0.001 s ( 0.002 ms/b)
<sp|pp>:         1386 b            0 skpd (  0.0%)    0.005 s ( 0.004 ms/b)
<sp|pd>:         1980 b            6 skpd (  0.3%)    0.006 s ( 0.003 ms/b)
<sp|pf>:         1188 b            3 skpd (  0.3%)    0.002 s ( 0.002 ms/b)
<sp|pg>:          396 b            0 skpd (  0.0%)    0.007 s ( 0.017 ms/b)
<sp|dd>:          990 b            0 skpd (  0.0%)    0.006 s ( 0.006 ms/b)
<sp|df>:          990 b            5 skpd (  0.5%)    0.002 s ( 0.002 ms/b)
<sp|dg>:          330 b            0 skpd (  0.0%)    0.003 s ( 0.008 ms/b)
<sp|ff>:          396 b            0 skpd (  0.0%)    0.002 s ( 0.004 ms/b)
<sp|fg>:          198 b            0 skpd (  0.0%)    0.001 s ( 0.006 ms/b)
<sp|gg>:           66 b            0 skpd (  0.0%)    0.002 s ( 0.024 ms/b)
<sd|sd>:         1540 b           10 skpd (  0.6%)    0.003 s ( 0.002 ms/b)
<sd|sf>:         1815 b            5 skpd (  0.3%)    0.002 s ( 0.001 ms/b)
<sd|sg>:          605 b            0 skpd (  0.0%)    0.002 s ( 0.003 ms/b)
<sd|pp>:         1155 b            6 skpd (  0.5%)    0.005 s ( 0.005 ms/b)
<sd|pd>:         1650 b            3 skpd (  0.2%)    0.007 s ( 0.004 ms/b)
<sd|pf>:          990 b           26 skpd (  2.6%)    0.002 s ( 0.002 ms/b)
<sd|pg>:          330 b            2 skpd (  0.6%)    0.003 s ( 0.010 ms/b)
<sd|dd>:          825 b            0 skpd (  0.0%)    0.008 s ( 0.010 ms/b)
<sd|df>:          825 b            2 skpd (  0.2%)    0.003 s ( 0.003 ms/b)
<sd|dg>:          275 b            0 skpd (  0.0%)    0.004 s ( 0.015 ms/b)
<sd|ff>:          330 b            1 skpd (  0.3%)    0.001 s ( 0.004 ms/b)
<sd|fg>:          165 b            0 skpd (  0.0%)    0.002 s ( 0.011 ms/b)
<sd|gg>:           55 b            0 skpd (  0.0%)    0.003 s ( 0.047 ms/b)
<sf|sf>:          561 b            0 skpd (  0.0%)    0.001 s ( 0.001 ms/b)
<sf|sg>:          363 b            0 skpd (  0.0%)    0.001 s ( 0.003 ms/b)
<sf|pp>:          693 b            0 skpd (  0.0%)    0.004 s ( 0.005 ms/b)
<sf|pd>:          990 b            7 skpd (  0.7%)    0.005 s ( 0.005 ms/b)
<sf|pf>:          594 b            5 skpd (  0.8%)    0.001 s ( 0.002 ms/b)
<sf|pg>:          198 b            0 skpd (  0.0%)    0.002 s ( 0.012 ms/b)
<sf|dd>:          495 b            0 skpd (  0.0%)    0.006 s ( 0.011 ms/b)
<sf|df>:          495 b            6 skpd (  1.2%)    0.002 s ( 0.004 ms/b)
<sf|dg>:          165 b            0 skpd (  0.0%)    0.003 s ( 0.020 ms/b)
<sf|ff>:          198 b            0 skpd (  0.0%)    0.001 s ( 0.006 ms/b)
<sf|fg>:           99 b            0 skpd (  0.0%)    0.002 s ( 0.016 ms/b)
<sf|gg>:           33 b            0 skpd (  0.0%)    0.002 s ( 0.064 ms/b)
<sg|sg>:           66 b            0 skpd (  0.0%)    0.000 s ( 0.005 ms/b)
<sg|pp>:          231 b            0 skpd (  0.0%)    0.002 s ( 0.010 ms/b)
<sg|pd>:          330 b            2 skpd (  0.6%)    0.003 s ( 0.010 ms/b)
<sg|pf>:          198 b            0 skpd (  0.0%)    0.001 s ( 0.004 ms/b)
<sg|pg>:           66 b            0 skpd (  0.0%)    0.002 s ( 0.026 ms/b)
<sg|dd>:          165 b            0 skpd (  0.0%)    0.004 s ( 0.022 ms/b)
<sg|df>:          165 b            0 skpd (  0.0%)    0.001 s ( 0.008 ms/b)
<sg|dg>:           55 b            0 skpd (  0.0%)    0.002 s ( 0.040 ms/b)
<sg|ff>:           66 b            0 skpd (  0.0%)    0.001 s ( 0.009 ms/b)
<sg|fg>:           33 b            0 skpd (  0.0%)    0.001 s ( 0.041 ms/b)
<sg|gg>:           11 b            0 skpd (  0.0%)    0.001 s ( 0.120 ms/b)
<pp|pp>:          231 b            0 skpd (  0.0%)    0.006 s ( 0.024 ms/b)
<pp|pd>:          630 b            0 skpd (  0.0%)    0.007 s ( 0.011 ms/b)
<pp|pf>:          378 b            0 skpd (  0.0%)    0.002 s ( 0.005 ms/b)
<pp|pg>:          126 b            0 skpd (  0.0%)    0.003 s ( 0.024 ms/b)
<pp|dd>:          315 b            0 skpd (  0.0%)    0.008 s ( 0.024 ms/b)
<pp|df>:          315 b            0 skpd (  0.0%)    0.002 s ( 0.008 ms/b)
<pp|dg>:          105 b            0 skpd (  0.0%)    0.004 s ( 0.036 ms/b)
<pp|ff>:          126 b            0 skpd (  0.0%)    0.001 s ( 0.008 ms/b)
<pp|fg>:           63 b            0 skpd (  0.0%)    0.001 s ( 0.023 ms/b)
<pp|gg>:           21 b            0 skpd (  0.0%)    0.002 s ( 0.097 ms/b)
<pd|pd>:          465 b            0 skpd (  0.0%)    0.010 s ( 0.021 ms/b)
<pd|pf>:          540 b            0 skpd (  0.0%)    0.003 s ( 0.006 ms/b)
<pd|pg>:          180 b            0 skpd (  0.0%)    0.006 s ( 0.035 ms/b)
<pd|dd>:          450 b            0 skpd (  0.0%)    0.014 s ( 0.032 ms/b)
<pd|df>:          450 b            0 skpd (  0.0%)    0.005 s ( 0.011 ms/b)
<pd|dg>:          150 b            0 skpd (  0.0%)    0.008 s ( 0.053 ms/b)
<pd|ff>:          180 b            0 skpd (  0.0%)    0.002 s ( 0.013 ms/b)
<pd|fg>:           90 b            0 skpd (  0.0%)    0.003 s ( 0.038 ms/b)
<pd|gg>:           30 b            0 skpd (  0.0%)    0.005 s ( 0.159 ms/b)
<pf|pf>:          171 b            0 skpd (  0.0%)    0.002 s ( 0.010 ms/b)
<pf|pg>:          108 b            0 skpd (  0.0%)    0.004 s ( 0.037 ms/b)
<pf|dd>:          270 b            0 skpd (  0.0%)    0.009 s ( 0.032 ms/b)
<pf|df>:          270 b            0 skpd (  0.0%)    0.003 s ( 0.013 ms/b)
<pf|dg>:           90 b            0 skpd (  0.0%)    0.005 s ( 0.058 ms/b)
<pf|ff>:          108 b            0 skpd (  0.0%)    0.002 s ( 0.018 ms/b)
<pf|fg>:           54 b            0 skpd (  0.0%)    0.003 s ( 0.049 ms/b)
<pf|gg>:           18 b            0 skpd (  0.0%)    0.003 s ( 0.193 ms/b)
<pg|pg>:           21 b            0 skpd (  0.0%)    0.002 s ( 0.077 ms/b)
<pg|dd>:           90 b            0 skpd (  0.0%)    0.006 s ( 0.065 ms/b)
<pg|df>:           90 b            0 skpd (  0.0%)    0.002 s ( 0.023 ms/b)
<pg|dg>:           30 b            0 skpd (  0.0%)    0.003 s ( 0.112 ms/b)
<pg|ff>:           36 b            0 skpd (  0.0%)    0.001 s ( 0.025 ms/b)
<pg|fg>:           18 b            0 skpd (  0.0%)    0.002 s ( 0.085 ms/b)
<pg|gg>:            6 b            0 skpd (  0.0%)    0.002 s ( 0.327 ms/b)
<dd|dd>:          120 b            0 skpd (  0.0%)    0.011 s ( 0.093 ms/b)
<dd|df>:          225 b            0 skpd (  0.0%)    0.004 s ( 0.019 ms/b)
<dd|dg>:           75 b            0 skpd (  0.0%)    0.007 s ( 0.089 ms/b)
<dd|ff>:           90 b            0 skpd (  0.0%)    0.002 s ( 0.022 ms/b)
<dd|fg>:           45 b            0 skpd (  0.0%)    0.003 s ( 0.064 ms/b)
<dd|gg>:           15 b            0 skpd (  0.0%)    0.004 s ( 0.272 ms/b)
<df|df>:          120 b            0 skpd (  0.0%)    0.004 s ( 0.033 ms/b)
<df|dg>:           75 b            0 skpd (  0.0%)    0.006 s ( 0.082 ms/b)
<df|ff>:           90 b            0 skpd (  0.0%)    0.003 s ( 0.030 ms/b)
<df|fg>:           45 b            0 skpd (  0.0%)    0.004 s ( 0.079 ms/b)
<df|gg>:           15 b            0 skpd (  0.0%)    0.005 s ( 0.318 ms/b)
<dg|dg>:           15 b            0 skpd (  0.0%)    0.003 s ( 0.207 ms/b)
<dg|ff>:           30 b            0 skpd (  0.0%)    0.001 s ( 0.039 ms/b)
<dg|fg>:           15 b            0 skpd (  0.0%)    0.002 s ( 0.127 ms/b)
<dg|gg>:            5 b            0 skpd (  0.0%)    0.002 s ( 0.497 ms/b)
<ff|ff>:           21 b            0 skpd (  0.0%)    0.001 s ( 0.052 ms/b)
<ff|fg>:           18 b            0 skpd (  0.0%)    0.002 s ( 0.122 ms/b)
<ff|gg>:            6 b            0 skpd (  0.0%)    0.003 s ( 0.454 ms/b)
<fg|fg>:            6 b            0 skpd (  0.0%)    0.001 s ( 0.249 ms/b)
<fg|gg>:            3 b            0 skpd (  0.0%)    0.002 s ( 0.733 ms/b)
<gg|gg>:            1 b            0 skpd (  0.0%)    0.002 s ( 1.904 ms/b)
Recanonicalizing the internal orbitals
Recanonicalizing the virtual orbitals
Time needed for Fock operator              ...            0.552 sec
Reference energy                           ...  -1381.366060095
Warning: for UHF the TrafoType has to be JK
Warning: for UHF the K(C)-option cannot be MO but must be AOX

-------------------------------
PARTIAL EXCHANGE TRANSFORMATION
-------------------------------

Transformation type                        ... two-operators
Generation of integrals (i,mue|j,nue)      ... ON
Generation of integrals (mue,kappa|nue,tau)... ON
Generation of integrals (i,mue|a,nue)      ... ON
Dimension of the basis                     ...   84
Number of internal alpha-MOs               ...   10 (   5-  14)
Number of internal beta-MOs                ...    7 (   5-  11)
Number of external alpha-MOs               ...   69 (  15-  83)
Number of external beta-MOs                ...   72 (  12-  83)
Pair cutoff                                ... 0.000e+00 Eh
Number of AO pairs in the trafo            ... 3570
Total Number of distinct AO pairs          ... 3570
Memory devoted for trafo                   ... 2500.0 MB 
Max. Number of MO pairs treated together   ... 46439      
Number Format for Storage                  ... Double (8 Byte)
Integral package used                      ... LIBINT

Starting integral evaluation:
    ... done with AO integral generation
Closing buffer AOK[aa] ( 0.00 GB; CompressionRatio= 0.99)
Closing buffer AOK[bb] ( 0.00 GB; CompressionRatio= 0.97)
Closing buffer AOK[ab] ( 0.00 GB; CompressionRatio= 0.98)
Closing buffer AOK[ba] ( 0.00 GB; CompressionRatio= 0.98)
Collecting buffer AOK 
Closing buffer IAAO1[aa] ( 0.00 GB; CompressionRatio= 1.00)
Closing buffer IAAO1[bb] ( 0.00 GB; CompressionRatio= 1.00)
Closing buffer IAAO1[ab] ( 0.00 GB; CompressionRatio= 1.00)
Closing buffer IAAO1[ba] ( 0.00 GB; CompressionRatio= 1.00)
Closing buffer IAAO2[aa] ( 0.00 GB; CompressionRatio= 1.00)
Closing buffer IAAO2[bb] ( 0.00 GB; CompressionRatio= 1.00)
Closing buffer IAAO2[ab] ( 0.00 GB; CompressionRatio= 1.00)
Closing buffer IAAO2[ba] ( 0.00 GB; CompressionRatio= 1.00)
Collecting buffer IAAO 
Closing buffer PRQS    ( 0.00 GB; CompressionRatio= 1.00)
Collecting buffer PRQS 
Number of alpha/alpha MO pairs in trafo    ...   55
Number of beta /beta  MO pairs in trafo    ...   28
Number of alpha/ beta MO pairs in trafo    ...   70
------------------------
SORTING OF (i,mue|j,nue)
------------------------

SORTING OF ALPHA/ALPHA PAIRS
IBATCH = 1 of  1
Closing buffer KAO[aa] ( 0.00 GB; CompressionRatio= 1.00)
Collecting buffer KAO 
SORTING OF BETA /BETA  PAIRS
IBATCH = 1 of  1
Closing buffer KAO[bb] ( 0.00 GB; CompressionRatio= 1.00)
Collecting buffer KAO 
SORTING OF ALPHA/BETA  PAIRS
IBATCH = 1 of  1
Closing buffer KAO[ab] ( 0.00 GB; CompressionRatio= 0.999787460149)
Collecting buffer KAO[ab] 
------------------------
SORTING OF (i,mue|a,nue)
------------------------

Number of alpha/alpha (i,a) pairs in trafo  ...  690
Number of beta /beta  (i,a) pairs in trafo  ...  504
Number of alpha/ beta (i,a) pairs in trafo  ...  720
Number of beta /alpha (i,a) pairs in trafo  ...  483
Setting up the alpha/alpha list             ... done
Setting up the beta /beta  list             ... done
Setting up the alpha/beta  list             ... done
Setting up the beta /alpha list             ... done
    ... Now sorting (i,mue|a,nue)integrals
    ... Integrals (i,b|a,c) will be made on the fly
SORTING OF ALPHA/ALPHA PAIRS
IBATCH = 1 of  1
Closing buffer IPAQ[aa]  0.00 GB; CompressionRatio= 1.00)
SORTING OF BETA /BETA  PAIRS
IBATCH = 1 of  1
Closing buffer IPAQ[bb]( 0.00 GB; CompressionRatio= 1.00)
SORTING OF ALPHA/BETA  PAIRS (NMatSort_ab=30)
IBATCH = 1 of  1
Closing buffer IPAQ[ab]( 0.00 GB; CompressionRatio= 1.00)
SORTING OF BETA/ALPHA  PAIRS
IBATCH = 1 of  1
Closing buffer IPAQ[ba]( 0.00 GB; CompressionRatio= 1.00)
N(AO-Batches) Done                         ...      2028 
N(AO-Batches) Skipped                      ...         0 
N(IJ)-pairs Skipped                        ...         0 
TOTAL TIME for half transformation         ...     6.186 sec
AO-integral generation                     ...     0.053 sec
Half transformation                        ...     0.500 sec
K-integral sorting                         ...     1.331 sec
<ss|**>: 
------------------------------
PARTIAL COULOMB TRANSFORMATION
------------------------------

Transformation type                        ... two-operators
Dimension of the basis                     ...   84
Number of internal alpha-MOs               ...   10 (5-14)
Number of internal beta-MOs                ...    7 (5-11)
Pair cutoff                                ... 0.000e+00 Eh
Number of AO pairs included in the trafo   ... 3570
Total Number of distinct AO pairs          ... 3570
Memory devoted for trafo                   ... 2500.0 MB 
Max. Number of MO pairs treated together   ... 91787      
Max. Number of MOs treated per batch       ... 1092      
Number Format for Storage                  ... Double (8 Byte)
AO-integral source                         ... DIRECT
Integral package used                      ... LIBINT

Starting integral evaluation:
       23166 b        0 skpd     0.022 s (  0.001 ms/b)
<sp|**>: <sd|**>:        23166 b        0 skpd     0.036 s (  0.002 ms/b)
<sf|**>:        19305 b        0 skpd     0.072 s (  0.004 ms/b)
       11583 b        0 skpd     0.059 s (  0.005 ms/b)
<sg|**>:         3861 b        0 skpd     0.032 s (  0.008 ms/b)
<pp|**>:         7371 b        0 skpd     0.062 s (  0.008 ms/b)
<pd|**>:        10530 b        0 skpd     0.109 s (  0.010 ms/b)
<pf|**>:         6318 b        0 skpd     0.063 s (  0.010 ms/b)
<pg|**>:         2106 b        0 skpd     0.066 s (  0.031 ms/b)
<dd|**>:         5265 b        0 skpd     0.103 s (  0.020 ms/b)
<df|**>:         5265 b        0 skpd     0.093 s (  0.018 ms/b)
<dg|**>:         1755 b        0 skpd     0.093 s (  0.053 ms/b)
<ff|**>:         2106 b        0 skpd     0.058 s (  0.028 ms/b)
<fg|**>:         1053 b        0 skpd     0.075 s (  0.071 ms/b)
<gg|**>:          351 b        0 skpd     0.058 s (  0.165 ms/b)
Closing buffer AOJ[aa] ( 0.00 GB; CompressionRatio= 0.97)
Closing buffer AOJ[bb] ( 0.00 GB; CompressionRatio= 0.00)
Collecting buffer AOJ 
    ... done with AO integral generation
Number of Alpha-MO pairs included          ...   55
Number of Beta-MO pairs included           ...   28
    ... Now sorting integrals
SORTING ALPHA/ALPHA PAIRS
IBATCH = 1 of  1
Closing buffer JAO[aa] ( 0.00 GB; CompressionRatio= 1.00)
SORTING BETA/BETA PAIRS
IBATCH = 1 of  1
Closing buffer JAO[bb] ( 0.00 GB; CompressionRatio= 1.00)
Collecting buffer JAO 
TOTAL TIME for half transformation         ...     1.174 sec
AO-integral generation                     ...     0.697 sec
Half transformation                        ...     0.304 sec
J-integral sorting                         ...     0.129 sec

-------------------------- SECOND HALF TRANSFORMATION -------------------------
Formation of (ij|kl),(ij|ka), (ij|ab)      ... ok (     0.190 sec)
Formation of (ik|jl),(ik|ja), (ia|jb)      ... ok (     0.300 sec)


-----------------------
SPIN UNRESTRICTED GUESS
-----------------------

Entering MDCI_UHF_Guess, Tailored=0
Spin-components of the MP2 energy:
EMP2(aa)=     -0.147695790
EMP2(bb)=     -0.072151727
EMP2(ab)=     -0.433634503

Initial guess performed in     0.022 sec
E(0)                                       ...  -1381.366060095
E(MP2)                                     ...     -0.653482020
Initial E(tot)                             ...  -1382.019542114
<T|T>                                      ...      0.102916945
Number of pairs included                   ... 136

------------------------------------------------
                  UHF COUPLED CLUSTER ITERATIONS
------------------------------------------------

Number of amplitudes to be optimized       ...       509889

Iter       E(tot)           E(Corr)          Delta-E          Residual     Time      <S|S>**1/2
  0  -1382.019542114     -0.653482020     -0.000000000      0.031973676    0.76      0.000003343
                           *** Turning on DIIS ***
  1  -1381.944589807     -0.578529712      0.074952308      0.011310988    0.71      0.070012257
  2  -1381.969906312     -0.603846218     -0.025316506      0.005550087    0.74      0.059178886
  3  -1381.970292918     -0.604232823     -0.000386605      0.004089603    0.74      0.073548937
  4  -1381.971572901     -0.605512806     -0.001279983      0.002455746    0.74      0.080685980
  5  -1381.972359684     -0.606299589     -0.000786782      0.000820469    0.73      0.088120895
  6  -1381.972483130     -0.606423035     -0.000123447      0.000266887    0.75      0.090324141
  7  -1381.972501278     -0.606441183     -0.000018147      0.000069763    0.77      0.091204246
  8  -1381.972511908     -0.606451813     -0.000010631      0.000029421    0.74      0.091324820
  9  -1381.972510629     -0.606450534      0.000001280      0.000020730    0.73      0.091331026
 10  -1381.972509594     -0.606449499      0.000001035      0.000011006    0.72      0.091311859
 11  -1381.972510589     -0.606450494     -0.000000995      0.000004356    0.73      0.091296684
               --- The Coupled-Cluster iterations have converged ---

----------------------
COUPLED CLUSTER ENERGY
----------------------

E(0)                                       ...  -1381.366060095
E(CORR)                                    ...     -0.606450494
E(TOT)                                     ...  -1381.972510589
Singles norm <S|S>**1/2                    ...      0.091296684 ( 0.060811387, 0.030485297)  
T1 diagnostic                              ...      0.022142698                              

------------------
LARGEST AMPLITUDES
------------------
  14a-> 18a  -1a-> -1a       0.063204
  14a-> 27a  -1a-> -1a       0.039430
  11b-> 24b  -1b-> -1b       0.033210
  10b-> 23b  -1b-> -1b       0.032412
   9b-> 22b  -1b-> -1b       0.032253
  10b-> 32b  -1b-> -1b       0.025008
  11b-> 33b  -1b-> -1b       0.024462
   9b-> 31b  -1b-> -1b       0.024326
  13a-> 26a  -1a-> -1a       0.024069
  12a-> 25a  -1a-> -1a       0.024033
  11a-> 24a  -1a-> -1a       0.023919
   9a-> 32a  -1a-> -1a       0.020206
  10a-> 31a  -1a-> -1a       0.020206
  10a-> 23a  -1a-> -1a       0.019922
   9a-> 22a  -1a-> -1a       0.019922
  12a-> 34a  10b-> 32b       0.019477

----------------------
UHF TRIPLES CORRECTION (Algorithm 1)
----------------------

Multiplier for the singles contribution    ...      1.000000000

SPIN-CASE Alpha-Alpha-Alpha:
10% done
20% done
30% done
40% done
50% done
60% done
70% done
80% done
90% done


SPIN-CASE Beta-Beta-Beta:
10% done
20% done
30% done
40% done
50% done
60% done
70% done
80% done
90% done


SPIN-CASE Alpha-Alpha-Beta:
10% done
20% done
30% done
40% done
50% done
60% done
70% done
80% done
90% done


SPIN-CASE Beta-Beta-Alpha:
10% done
20% done
30% done
40% done
50% done
60% done
70% done
80% done
90% done


Triples Correction (T)                     ...     -0.020106355
    alpha-alpha-alpha ... -0.001698984 (  8.4%)
    alpha-alpha-beta  ... -0.011590136 ( 57.6%)
    alpha-beta -beta  ... -0.006497923 ( 32.3%)
    beta -beta -beta  ... -0.000319312 (  1.6%)
Scaling of triples based on CCSD energies (Peterson et al. Molecular Physics 113, 1551 (2015))
E(T*) = f*E(T) where f = E(F12-CCSD)/E(CCSD) 
f = CCSD (with F12)/ CCSD (without F12)    ...      1.000000000
Scaled triples correction (T)              ...     -0.020106355

Final correlation energy                   ...     -0.626556849
E(CCSD)                                    ...  -1381.972510589
E(CCSD(T))                                 ...  -1381.992616944



        !!!!!!!!!!!!!!!!!!!!!!!!!!!!!!!!!!!!!!!!!!!!!!!!!!!!!!!!!!!!!!!!!!!!!!!!!! 
        !  Warning: Densities are linearized densities                           !
        !!!!!!!!!!!!!!!!!!!!!!!!!!!!!!!!!!!!!!!!!!!!!!!!!!!!!!!!!!!!!!!!!!!!!!!!!! 

NORM  =      1.107177583 sqrt=     1.052225063
W(HF) =      0.903197477
------------------------------------------------------------------------------
                           ORCA POPULATION ANALYSIS
------------------------------------------------------------------------------
Input electron density              ... 27_Co.mdcip
Input spin density                  ... 27_Co.mdcir
BaseName (.gbw .S,...)              ... 27_Co

                    ********************************
                    * MULLIKEN POPULATION ANALYSIS *
                    ********************************

------------------------------------------
MULLIKEN ATOMIC CHARGES AND SPIN DENSITIES
------------------------------------------
   0 Co:   -0.000000    3.000000
Sum of atomic charges       :   -0.0000000
Sum of atomic spin densities:    3.0000000

---------------------------------------------------
MULLIKEN REDUCED ORBITAL CHARGES AND SPIN DENSITIES
---------------------------------------------------
CHARGE
  0 Cos       :     6.987777  s :     6.987777
      pz      :     4.002634  p :    12.007902
      px      :     4.002634
      py      :     4.002634
      dz2     :     1.001595  d :     7.964868
      dxz     :     1.987226
      dyz     :     1.987226
      dx2y2   :     1.001595
      dxy     :     1.987226
      f0      :     0.004690  f :     0.036011
      f+1     :     0.005040
      f-1     :     0.005040
      f+2     :     0.005251
      f-2     :     0.006190
      f+3     :     0.004900
      f-3     :     0.004900
      g0      :     0.000360  g :     0.003442
      g+1     :     0.000371
      g-1     :     0.000371
      g+2     :     0.000379
      g-2     :     0.000414
      g+3     :     0.000408
      g-3     :     0.000408
      g+4     :     0.000365
      g-4     :     0.000365

SPIN
  0 Cos       :     0.987259  s :     0.987259
      pz      :     0.004642  p :     0.013925
      px      :     0.004642
      py      :     0.004642
      dz2     :     0.989440  d :     1.991248
      dxz     :     0.004123
      dyz     :     0.004123
      dx2y2   :     0.989440
      dxy     :     0.004123
      f0      :     0.001549  f :     0.006840
      f+1     :     0.001114
      f-1     :     0.001114
      f+2     :     0.000852
      f-2     :    -0.000365
      f+3     :     0.001288
      f-3     :     0.001288
      g0      :     0.000102  g :     0.000728
      g+1     :     0.000094
      g-1     :     0.000094
      g+2     :     0.000099
      g-2     :     0.000041
      g+3     :     0.000048
      g-3     :     0.000048
      g+4     :     0.000101
      g-4     :     0.000101


                     *******************************
                     * LOEWDIN POPULATION ANALYSIS *
                     *******************************

-----------------------------------------
LOEWDIN ATOMIC CHARGES AND SPIN DENSITIES
-----------------------------------------
   0 Co:   -0.000000    3.000000

--------------------------------------------------
LOEWDIN REDUCED ORBITAL CHARGES AND SPIN DENSITIES
--------------------------------------------------
CHARGE
  0 Cos       :     6.987777  s :     6.987777
      pz      :     4.002634  p :    12.007902
      px      :     4.002634
      py      :     4.002634
      dz2     :     1.001595  d :     7.964868
      dxz     :     1.987226
      dyz     :     1.987226
      dx2y2   :     1.001595
      dxy     :     1.987226
      f0      :     0.004690  f :     0.036011
      f+1     :     0.005040
      f-1     :     0.005040
      f+2     :     0.005251
      f-2     :     0.006190
      f+3     :     0.004900
      f-3     :     0.004900
      g0      :     0.000360  g :     0.003442
      g+1     :     0.000371
      g-1     :     0.000371
      g+2     :     0.000379
      g-2     :     0.000414
      g+3     :     0.000408
      g-3     :     0.000408
      g+4     :     0.000365
      g-4     :     0.000365

SPIN
  0 Cos       :     0.987259  s :     0.987259
      pz      :     0.004642  p :     0.013925
      px      :     0.004642
      py      :     0.004642
      dz2     :     0.989440  d :     1.991248
      dxz     :     0.004123
      dyz     :     0.004123
      dx2y2   :     0.989440
      dxy     :     0.004123
      f0      :     0.001549  f :     0.006840
      f+1     :     0.001114
      f-1     :     0.001114
      f+2     :     0.000852
      f-2     :    -0.000365
      f+3     :     0.001288
      f-3     :     0.001288
      g0      :     0.000102  g :     0.000728
      g+1     :     0.000094
      g-1     :     0.000094
      g+2     :     0.000099
      g-2     :     0.000041
      g+3     :     0.000048
      g-3     :     0.000048
      g+4     :     0.000101
      g-4     :     0.000101


                      *****************************
                      * MAYER POPULATION ANALYSIS *
                      *****************************

  NA   - Mulliken gross atomic population
  ZA   - Total nuclear charge
  QA   - Mulliken gross atomic charge
  VA   - Mayer's total valence
  BVA  - Mayer's bonded valence
  FA   - Mayer's free valence

  ATOM       NA         ZA         QA         VA         BVA        FA
  0 Co    27.0000    27.0000    -0.0000     3.6254     0.0000     3.6254





------------------------------------------------------------------------------- 
                                     TIMINGS                                   
------------------------------------------------------------------------------- 


Total execution time                   ...       18.684 sec

Fock Matrix Formation                  ...        0.552 sec (  3.0%)
Initial Guess                          ...        0.022 sec (  0.1%)
DIIS Solver                            ...        0.511 sec (  2.7%)
State Vector Update                    ...        0.027 sec (  0.1%)
Sigma-vector construction              ...        8.321 sec ( 44.5%)
  <0|H|D>                              ...        0.002 sec (  0.0% of sigma)
  <D|H|D>(0-ext Fock)                  ...        0.009 sec (  0.1% of sigma)
  <D|H|D>(0-ext)                       ...        0.030 sec (  0.4% of sigma)
  <D|H|D>(2-ext Fock)                  ...        0.004 sec (  0.0% of sigma)
  <D|H|D>(2-ext)                       ...        0.111 sec (  1.3% of sigma)
  <D|H|D>(4-ext)                       ...        3.355 sec ( 40.3% of sigma)
  <S|H|0>                              ...        0.207 sec (  2.5% of sigma)
  <S|H|S>                              ...        0.001 sec (  0.0% of sigma)
  <S|H|D>(1-ext)                       ...        0.003 sec (  0.0% of sigma)
  <D|H|S>(1-ext)                       ...        0.043 sec (  0.5% of sigma)
  Fock-dressing                        ...        3.046 sec ( 36.6% of sigma)
  (ik|jl)-dressing                     ...        0.038 sec (  0.5% of sigma)
  (ij|ab),(ia|jb)-dressing             ...        1.141 sec ( 13.7% of sigma)
  Pair energies                        ...        0.002 sec (  0.0% of sigma)
Total Time for computing (T)           ...        0.657 sec (  3.5% of ALL)
  I/O of integral and amplitudes       ...        0.147 sec ( 22.4% of (T))
  External N**7 contributions          ...        0.164 sec ( 25.0% of (T))
  Internal N**7 contributions          ...        0.090 sec ( 13.7% of (T))
  N**6 triples energy contributions    ...        0.233 sec ( 35.5% of (T))


-------------------------   --------------------
FINAL SINGLE POINT ENERGY     -1381.992616944317
-------------------------   --------------------


                            ***************************************
                            *     ORCA property calculations      *
                            ***************************************

                                    ---------------------
                                    Active property flags
                                    ---------------------
   (+) Dipole Moment


------------------------------------------------------------------------------
                       ORCA ELECTRIC PROPERTIES CALCULATION
------------------------------------------------------------------------------

Dipole Moment Calculation                       ... on
Quadrupole Moment Calculation                   ... off
Polarizability Calculation                      ... off
GBWName                                         ... 27_Co.gbw
Electron density file                           ... 27_Co.scfp
The origin for moment calculation is the CENTER OF MASS  = ( 0.000000,  0.000000  0.000000)

-------------
DIPOLE MOMENT
-------------
                                X             Y             Z
Electronic contribution:      0.00000       0.00000      -0.00000
Nuclear contribution   :      0.00000       0.00000       0.00000
                        -----------------------------------------
Total Dipole Moment    :      0.00000       0.00000      -0.00000
                        -----------------------------------------
Magnitude (a.u.)       :      0.00000
Magnitude (Debye)      :      0.00000



--------------------
Rotational spectrum 
--------------------
 
Rotational constants in cm-1:     0.000000     0.000000     0.000000 
Rotational constants in MHz :     0.000000     0.000000     0.000000 

 Dipole components along the rotational axes: 
x,y,z [a.u.] :     0.000000     0.000000    -0.000000 
x,y,z [Debye]:     0.000000     0.000000    -0.000000 

 

                           *** MDCI DENSITY ***

------------------------------------------------------------------------------
                       ORCA ELECTRIC PROPERTIES CALCULATION
------------------------------------------------------------------------------

Dipole Moment Calculation                       ... on
Quadrupole Moment Calculation                   ... off
Polarizability Calculation                      ... off
GBWName                                         ... 27_Co.gbw
Electron density file                           ... 27_Co.mdcip
The origin for moment calculation is the CENTER OF MASS  = ( 0.000000,  0.000000  0.000000)

-------------
DIPOLE MOMENT
-------------
                                X             Y             Z
Electronic contribution:     -0.00000      -0.00000       0.00000
Nuclear contribution   :      0.00000       0.00000       0.00000
                        -----------------------------------------
Total Dipole Moment    :     -0.00000      -0.00000       0.00000
                        -----------------------------------------
Magnitude (a.u.)       :      0.00000
Magnitude (Debye)      :      0.00000



--------------------
Rotational spectrum 
--------------------
 
Rotational constants in cm-1:     0.000000     0.000000     0.000000 
Rotational constants in MHz :     0.000000     0.000000     0.000000 

 Dipole components along the rotational axes: 
x,y,z [a.u.] :    -0.000000    -0.000000     0.000000 
x,y,z [Debye]:    -0.000000    -0.000000     0.000000 

 

Timings for individual modules:

Sum of individual times         ...       25.247 sec (=   0.421 min)
GTO integral calculation        ...        0.861 sec (=   0.014 min)   3.4 %
SCF iterations                  ...        5.071 sec (=   0.085 min)  20.1 %
MDCI module                     ...       19.314 sec (=   0.322 min)  76.5 %
                             ****ORCA TERMINATED NORMALLY****
TOTAL RUN TIME: 0 days 0 hours 0 minutes 26 seconds 46 msec
