
                                 *****************
                                 * O   R   C   A *
                                 *****************

           --- An Ab Initio, DFT and Semiempirical electronic structure package ---

                  #######################################################
                  #                        -***-                        #
                  #          Department of theory and spectroscopy      #
                  #               Directorship: Frank Neese             #
                  #        Max Planck Institute fuer Kohlenforschung    #
                  #                Kaiser Wilhelm Platz 1               #
                  #                 D-45470 Muelheim/Ruhr               #
                  #                      Germany                        #
                  #                                                     #
                  #                  All rights reserved                #
                  #                        -***-                        #
                  #######################################################


                         Program Version 4.2.0 -  RELEASE  -


 With contributions from (in alphabetic order):
   Daniel Aravena         : Magnetic Suceptibility
   Michael Atanasov       : Ab Initio Ligand Field Theory (pilot matlab implementation)
   Alexander A. Auer      : GIAO ZORA, VPT2
   Ute Becker             : Parallelization
   Giovanni Bistoni       : ED, misc. LED, open-shell LED, HFLED
   Martin Brehm           : Molecular dynamics
   Dmytro Bykov           : SCF Hessian
   Vijay G. Chilkuri      : MRCI spin determinant printing, contributions to CSF-ICE
   Dipayan Datta          : RHF DLPNO-CCSD density
   Achintya Kumar Dutta   : EOM-CC, STEOM-CC
   Dmitry Ganyushin       : Spin-Orbit,Spin-Spin,Magnetic field MRCI
   Miquel Garcia          : C-PCM Hessian, Gaussian charge scheme
   Yang Guo               : DLPNO-NEVPT2, CIM, IAO-localization
   Andreas Hansen         : Spin unrestricted coupled pair/coupled cluster methods
   Benjamin Helmich-Paris : CASSCF linear response (MC-RPA)
   Lee Huntington         : MR-EOM, pCC
   Robert Izsak           : Overlap fitted RIJCOSX, COSX-SCS-MP3, EOM
   Christian Kollmar      : KDIIS, OOCD, Brueckner-CCSD(T), CCSD density
   Simone Kossmann        : Meta GGA functionals, TD-DFT gradient, OOMP2, MP2 Hessian
   Martin Krupicka        : AUTO-CI
   Lucas Lang             : DCDCAS
   Dagmar Lenk            : GEPOL surface, SMD
   Dimitrios Liakos       : Extrapolation schemes; Compound Job, initial MDCI parallelization
   Dimitrios Manganas     : Further ROCIS development; embedding schemes
   Dimitrios Pantazis     : SARC Basis sets
   Taras Petrenko         : DFT Hessian,TD-DFT gradient, ASA, ECA, R-Raman, ABS, FL, XAS/XES, NRVS
   Peter Pinski           : DLPNO-MP2, DLPNO-MP2 Gradient
   Christoph Reimann      : Effective Core Potentials
   Marius Retegan         : Local ZFS, SOC
   Christoph Riplinger    : Optimizer, TS searches, QM/MM, DLPNO-CCSD(T), (RO)-DLPNO pert. Triples
   Tobias Risthaus        : Range-separated hybrids, TD-DFT gradient, RPA, STAB
   Michael Roemelt        : Original ROCIS implementation
   Masaaki Saitow         : Open-shell DLPNO-CCSD energy and density
   Barbara Sandhoefer     : DKH picture change effects
   Avijit Sen             : IP-ROCIS
   Kantharuban Sivalingam : CASSCF convergence, NEVPT2, FIC-MRCI
   Bernardo de Souza      : ESD, SOC TD-DFT
   Georgi Stoychev        : AutoAux, RI-MP2 NMR
   Willem Van den Heuvel  : Paramagnetic NMR
   Boris Wezisla          : Elementary symmetry handling
   Frank Wennmohs         : Technical directorship


 We gratefully acknowledge several colleagues who have allowed us to
 interface, adapt or use parts of their codes:
   Stefan Grimme, W. Hujo, H. Kruse,             : VdW corrections, initial TS optimization,
                  C. Bannwarth                     DFT functionals, gCP, sTDA/sTD-DF
   Ed Valeev, F. Pavosevic, A. Kumar             : LibInt (2-el integral package), F12 methods
   Garnet Chan, S. Sharma, J. Yang, R. Olivares  : DMRG
   Ulf Ekstrom                                   : XCFun DFT Library
   Mihaly Kallay                                 : mrcc  (arbitrary order and MRCC methods)
   Andreas Klamt, Michael Diedenhofen            : otool_cosmo (COSMO solvation model)
   Jiri Pittner, Ondrej Demel                    : Mk-CCSD
   Frank Weinhold                                : gennbo (NPA and NBO analysis)
   Christopher J. Cramer and Donald G. Truhlar   : smd solvation model
   Lars Goerigk                                  : TD-DFT with DH, B97 family of functionals
   V. Asgeirsson, H. Jonsson                     : NEB implementation
   FAccTs GmbH                                   : IRC, NEB, NEB-TS, Multilevel, MM, QM/MM, CI optimization
   S Lehtola, MJT Oliveira, MAL Marques          : LibXC Library


 Your calculation uses the libint2 library for the computation of 2-el integrals
 For citations please refer to: http://libint.valeyev.net

 Your ORCA version has been built with support for libXC version: 4.2.3
 For citations please refer to: https://tddft.org/programs/libxc/

 This ORCA versions uses:
   CBLAS   interface :  Fast vector & matrix operations
   LAPACKE interface :  Fast linear algebra routines
   SCALAPACK package :  Parallel linear algebra routines


----- Orbital basis set information -----
Your calculation utilizes the basis: def2-QZVP
   F. Weigend and R. Ahlrichs, Phys. Chem. Chem. Phys. 7, 3297 (2005).

================================================================================
                                        WARNINGS
                       Please study these warnings very carefully!
================================================================================


WARNING: your system is open-shell and RHF/RKS was chosen
  ===> : WILL SWITCH to UHF/UKS


WARNING: MDCI localization with Augmented Hessian Foster-Boys
  ===> : Switching off randomization!

WARNING: Post HF methods need fully converged wavefunctions
  ===> : Setting SCFConvForced true
         You can overwrite this default with %scf ConvForced false 


INFO   : the flag for use of LIBINT has been found!

================================================================================
                                       INPUT FILE
================================================================================
NAME = 28_Ni.in
|  1> #
|  2> # 28_Ni CCSD(T)/Def2-QZVP
|  3> #
|  4> ! CCSD(T) Def2-QZVP tightscf slowconv
|  5> 
|  6> *xyz 0 3
|  7>  Ni 0.0 0.0 0.0
|  8> *
|  9> 
| 10> %maxcore 5000 
| 11> 
| 12> %pal
| 13> nprocs 24
| 14> end
| 15> 
| 16> 
| 17>                          ****END OF INPUT****
================================================================================

                       ****************************
                       * Single Point Calculation *
                       ****************************

---------------------------------
CARTESIAN COORDINATES (ANGSTROEM)
---------------------------------
  Ni     0.000000    0.000000    0.000000

----------------------------
CARTESIAN COORDINATES (A.U.)
----------------------------
  NO LB      ZA    FRAG     MASS         X           Y           Z
   0 Ni   28.0000    0    58.700    0.000000    0.000000    0.000000

--------------------------------
INTERNAL COORDINATES (ANGSTROEM)
--------------------------------
 Ni     0   0   0     0.000000000000     0.00000000     0.00000000

---------------------------
INTERNAL COORDINATES (A.U.)
---------------------------
 Ni     0   0   0     0.000000000000     0.00000000     0.00000000

---------------------
BASIS SET INFORMATION
---------------------
There are 1 groups of distinct atoms

 Group   1 Type Ni  : 24s18p10d3f1g contracted to 11s6p5d3f1g pattern {114111111111/951111/61111/111/1}

Atom   0Ni   basis set group =>   1

Checking for AutoStart:
The File: 28_Ni.gbw exists
Trying to determine its content:
     ... Fine, the file contains calculation information
     ... Fine, the calculation information was read
     ... Fine, the file contains a basis set
     ... Fine, the basis set was read
     ... Fine, the file contains a geometry
     ... Fine, the geometry was read
     ... Fine, the file contains a set of orbitals
     ... Fine, the orbitals can be read
     => possible old guess file was deleted
     => GBW file was renamed to GES file
     => GES file is set as startup file
     => Guess is set to MORead
     ... now leaving AutoStart



           ************************************************************
           *        Program running with 24 parallel MPI-processes    *
           *              working on a common directory               *
           ************************************************************
------------------------------------------------------------------------------
                           ORCA GTO INTEGRAL CALCULATION
------------------------------------------------------------------------------

                         BASIS SET STATISTICS AND STARTUP INFO

 # of primitive gaussian shells          ...   56
 # of primitive gaussian functions       ...  158
 # of contracted shells                  ...   26
 # of contracted basis functions         ...   84
 Highest angular momentum                ...    4
 Maximum contraction depth               ...   11
 Integral package used                   ... LIBINT
 Integral threshhold            Thresh   ...  2.500e-11
 Primitive cut-off              TCut     ...  2.500e-12


------------------------------ INTEGRAL EVALUATION ----------------------------


 * One electron integrals 
 Pre-screening matrix                    ... done
 Shell pair data                         ... done (   0.000 sec)



           ************************************************************
           *        Program running with 24 parallel MPI-processes    *
           *              working on a common directory               *
           ************************************************************
-------------------------------------------------------------------------------
                                 ORCA SCF
-------------------------------------------------------------------------------

------------
SCF SETTINGS
------------
Hamiltonian:
 Ab initio Hamiltonian  Method          .... Hartree-Fock(GTOs)


General Settings:
 Integral files         IntName         .... 28_Ni
 Hartree-Fock type      HFTyp           .... UHF
 Total Charge           Charge          ....    0
 Multiplicity           Mult            ....    3
 Number of Electrons    NEL             ....   28
 Basis Dimension        Dim             ....   84
 Nuclear Repulsion      ENuc            ....      0.0000000000 Eh

Convergence Acceleration:
 DIIS                   CNVDIIS         .... on
   Start iteration      DIISMaxIt       ....     0
   Startup error        DIISStart       ....  0.200000
   # of expansion vecs  DIISMaxEq       ....     5
   Bias factor          DIISBfac        ....   1.050
   Max. coefficient     DIISMaxC        ....  10.000
 Newton-Raphson         CNVNR           .... off
 SOSCF                  CNVSOSCF        .... off
 Level Shifting         CNVShift        .... on
   Level shift para.    LevelShift      ....    0.2500
   Turn off err/grad.   ShiftErr        ....    0.0000
 Zerner damping         CNVZerner       .... off
 Static damping         CNVDamp         .... on
   Fraction old density DampFac         ....    0.8500
   Max. Damping (<1)    DampMax         ....    0.9800
   Min. Damping (>=0)   DampMin         ....    0.0000
   Turn off err/grad.   DampErr         ....    0.0300
 Fernandez-Rico         CNVRico         .... off

SCF Procedure:
 Maximum # iterations   MaxIter         ....   125
 SCF integral mode      SCFMode         .... Direct
   Integral package                     .... LIBINT
 Reset frequency        DirectResetFreq ....    20
 Integral Threshold     Thresh          ....  2.500e-11 Eh
 Primitive CutOff       TCut            ....  2.500e-12 Eh

Convergence Tolerance:
 Convergence Check Mode ConvCheckMode   .... Total+1el-Energy
 Convergence forced     ConvForced      .... 1
 Energy Change          TolE            ....  1.000e-08 Eh
 1-El. energy change                    ....  1.000e-05 Eh
 DIIS Error             TolErr          ....  5.000e-07


Diagonalization of the overlap matrix:
Smallest eigenvalue                        ... 1.195e-03
Time for diagonalization                   ...    0.003 sec
Threshold for overlap eigenvalues          ... 1.000e-08
Number of eigenvalues below threshold      ... 0
Time for construction of square roots      ...    0.011 sec
Total time needed                          ...    0.014 sec

---------------------
INITIAL GUESS: MOREAD
---------------------
Guess MOs are being read from file: 28_Ni.ges
Input Geometry matches current geometry (good)
Input basis set matches current basis set (good)
MOs were renormalized
MOs were reorthogonalized (Cholesky)
                      ------------------
                      INITIAL GUESS DONE (   0.0 sec)
                      ------------------
--------------
SCF ITERATIONS
--------------
ITER       Energy         Delta-E        Max-DP      RMS-DP      [F,P]     Damp
               ***  Starting incremental Fock matrix formation  ***
  0  -1506.8291711700   0.000000000000 0.00000078  0.00000001  0.0000129 0.8500
                 **** Energy Check signals convergence ****

               *****************************************************
               *                     SUCCESS                       *
               *           SCF CONVERGED AFTER   1 CYCLES          *
               *****************************************************


----------------
TOTAL SCF ENERGY
----------------

Total Energy       :        -1506.82917117 Eh          -41002.90630 eV

Components:
Nuclear Repulsion  :            0.00000000 Eh               0.00000 eV
Electronic Energy  :        -1506.82917117 Eh          -41002.90630 eV
One Electron Energy:        -2099.26469310 Eh          -57123.89642 eV
Two Electron Energy:          592.43552193 Eh           16120.99013 eV

Virial components:
Potential Energy   :        -3013.61657432 Eh          -82004.67602 eV
Kinetic Energy     :         1506.78740315 Eh           41001.76973 eV
Virial Ratio       :            2.00002772


---------------
SCF CONVERGENCE
---------------

  Last Energy change         ...    1.4279e-10  Tolerance :   1.0000e-08
  Last MAX-Density change    ...    9.0986e-07  Tolerance :   1.0000e-07
  Last RMS-Density change    ...    1.4125e-08  Tolerance :   5.0000e-09
  Last DIIS Error            ...    1.2838e-05  Tolerance :   5.0000e-07

             **** THE GBW FILE WAS UPDATED (28_Ni.gbw) ****
             **** DENSITY FILE WAS UPDATED (28_Ni.scfp) ****
             **** ENERGY FILE WAS UPDATED (28_Ni.en.tmp) ****
----------------------
UHF SPIN CONTAMINATION
----------------------

Expectation value of <S**2>     :     2.000930
Ideal value S*(S+1) for S=1.0   :     2.000000
Deviation                       :     0.000930

             **** THE GBW FILE WAS UPDATED (28_Ni.gbw) ****
             **** DENSITY FILE WAS UPDATED (28_Ni.scfp) ****
----------------
ORBITAL ENERGIES
----------------
                 SPIN UP ORBITALS
  NO   OCC          E(Eh)            E(eV) 
   0   1.0000    -305.399228     -8310.3355 
   1   1.0000     -37.690148     -1025.6011 
   2   1.0000     -32.736990      -890.8188 
   3   1.0000     -32.719998      -890.3564 
   4   1.0000     -32.694835      -889.6717 
   5   1.0000      -4.705500      -128.0432 
   6   1.0000      -3.161061       -86.0168 
   7   1.0000      -3.124006       -85.0085 
   8   1.0000      -3.069922       -83.5368 
   9   1.0000      -0.548946       -14.9376 
  10   1.0000      -0.491086       -13.3631 
  11   1.0000      -0.470783       -12.8106 
  12   1.0000      -0.456687       -12.4271 
  13   1.0000      -0.452340       -12.3088 
  14   1.0000      -0.236279        -6.4295 
  15   0.0000       0.035682         0.9709 
  16   0.0000       0.037442         1.0188 
  17   0.0000       0.039863         1.0847 
  18   0.0000       0.114487         3.1154 
  19   0.0000       0.168902         4.5961 
  20   0.0000       0.172004         4.6805 
  21   0.0000       0.176533         4.8037 
  22   0.0000       0.205052         5.5797 
  23   0.0000       0.206602         5.6219 
  24   0.0000       0.208108         5.6629 
  25   0.0000       0.209137         5.6909 
  26   0.0000       0.209464         5.6998 
  27   0.0000       0.591442        16.0940 
  28   0.0000       0.593650        16.1540 
  29   0.0000       0.599974        16.3261 
  30   0.0000       0.609309        16.5801 
  31   0.0000       0.703121        19.1329 
  32   0.0000       0.711404        19.3583 
  33   0.0000       0.716591        19.4994 
  34   0.0000       0.720153        19.5964 
  35   0.0000       0.721354        19.6290 
  36   0.0000       2.085988        56.7626 
  37   0.0000       2.090411        56.8830 
  38   0.0000       2.103349        57.2350 
  39   0.0000       2.112378        57.4807 
  40   0.0000       2.122978        57.7692 
  41   0.0000       2.127490        57.8920 
  42   0.0000       2.130218        57.9662 
  43   0.0000       2.132321        58.0234 
  44   0.0000       2.305888        62.7464 
  45   0.0000       2.307866        62.8002 
  46   0.0000       2.318432        63.0877 
  47   0.0000       2.330928        63.4278 
  48   0.0000       2.333062        63.4858 
  49   0.0000       2.337351        63.6025 
  50   0.0000       2.337912        63.6178 
  51   0.0000       3.022896        82.2572 
  52   0.0000       5.843224       159.0022 
  53   0.0000       5.881484       160.0433 
  54   0.0000       5.897443       160.4776 
  55   0.0000       5.908357       160.7746 
  56   0.0000       5.911576       160.8622 
  57   0.0000       7.121680       193.7908 
  58   0.0000       7.129820       194.0123 
  59   0.0000       7.151087       194.5910 
  60   0.0000       7.185134       195.5174 
  61   0.0000       7.187681       195.5867 
  62   0.0000       7.194137       195.7624 
  63   0.0000       7.194821       195.7810 
  64   0.0000      12.150714       330.6377 
  65   0.0000      12.186833       331.6206 
  66   0.0000      12.188383       331.6628 
  67   0.0000      12.209093       332.2263 
  68   0.0000      12.222469       332.5903 
  69   0.0000      12.227315       332.7222 
  70   0.0000      12.256634       333.5200 
  71   0.0000      12.256852       333.5259 
  72   0.0000      12.258537       333.5718 
  73   0.0000      12.258630       333.5743 
  74   0.0000      21.180882       576.3611 
  75   0.0000      21.190043       576.6104 
  76   0.0000      21.214239       577.2688 
  77   0.0000      21.251794       578.2907 
  78   0.0000      21.254784       578.3721 
  79   0.0000      21.262524       578.5827 
  80   0.0000      21.263307       578.6040 
  81   0.0000      41.564803      1131.0358 
  82   0.0000     139.180925      3787.3055 
  83   0.0000     875.661176     23827.9520 

                 SPIN DOWN ORBITALS
  NO   OCC          E(Eh)            E(eV) 
   0   1.0000    -305.396766     -8310.2685 
   1   1.0000     -37.653557     -1024.6054 
   2   1.0000     -32.684304      -889.3851 
   3   1.0000     -32.683109      -889.3526 
   4   1.0000     -32.682422      -889.3339 
   5   1.0000      -4.605568      -125.3239 
   6   1.0000      -3.038291       -82.6761 
   7   1.0000      -3.000688       -81.6529 
   8   1.0000      -2.974663       -80.9447 
   9   1.0000      -0.473341       -12.8803 
  10   1.0000      -0.434404       -11.8207 
  11   1.0000      -0.408099       -11.1049 
  12   1.0000      -0.400632       -10.9018 
  13   0.0000       0.016068         0.4372 
  14   0.0000       0.059600         1.6218 
  15   0.0000       0.059997         1.6326 
  16   0.0000       0.060626         1.6497 
  17   0.0000       0.155528         4.2321 
  18   0.0000       0.203894         5.5482 
  19   0.0000       0.209419         5.6986 
  20   0.0000       0.210264         5.7216 
  21   0.0000       0.211593         5.7577 
  22   0.0000       0.218896         5.9565 
  23   0.0000       0.220379         5.9968 
  24   0.0000       0.221404         6.0247 
  25   0.0000       0.221724         6.0334 
  26   0.0000       0.392588        10.6829 
  27   0.0000       0.629579        17.1317 
  28   0.0000       0.630115        17.1463 
  29   0.0000       0.631538        17.1850 
  30   0.0000       0.634548        17.2669 
  31   0.0000       0.732453        19.9311 
  32   0.0000       0.738924        20.1071 
  33   0.0000       0.743399        20.2289 
  34   0.0000       0.744727        20.2651 
  35   0.0000       0.823431        22.4067 
  36   0.0000       2.128758        57.9265 
  37   0.0000       2.131670        58.0057 
  38   0.0000       2.136709        58.1428 
  39   0.0000       2.142856        58.3101 
  40   0.0000       2.144973        58.3677 
  41   0.0000       2.152481        58.5720 
  42   0.0000       2.155243        58.6472 
  43   0.0000       2.218702        60.3739 
  44   0.0000       2.344215        63.7893 
  45   0.0000       2.346578        63.8536 
  46   0.0000       2.354358        64.0653 
  47   0.0000       2.356762        64.1308 
  48   0.0000       2.366285        64.3899 
  49   0.0000       2.366663        64.4002 
  50   0.0000       2.372397        64.5562 
  51   0.0000       3.057220        83.1912 
  52   0.0000       5.894013       160.3842 
  53   0.0000       5.915302       160.9636 
  54   0.0000       5.929777       161.3574 
  55   0.0000       5.933898       161.4696 
  56   0.0000       5.984849       162.8560 
  57   0.0000       7.191992       195.7041 
  58   0.0000       7.197094       195.8429 
  59   0.0000       7.214729       196.3228 
  60   0.0000       7.220592       196.4823 
  61   0.0000       7.243107       197.0950 
  62   0.0000       7.243611       197.1087 
  63   0.0000       7.257275       197.4805 
  64   0.0000      12.185442       331.5827 
  65   0.0000      12.256246       333.5094 
  66   0.0000      12.257520       333.5441 
  67   0.0000      12.259408       333.5954 
  68   0.0000      12.260301       333.6197 
  69   0.0000      12.261896       333.6631 
  70   0.0000      12.270962       333.9099 
  71   0.0000      12.271096       333.9135 
  72   0.0000      12.279992       334.1556 
  73   0.0000      12.280006       334.1559 
  74   0.0000      21.261100       578.5439 
  75   0.0000      21.264113       578.6259 
  76   0.0000      21.274535       578.9095 
  77   0.0000      21.286800       579.2433 
  78   0.0000      21.294730       579.4591 
  79   0.0000      21.294949       579.4650 
  80   0.0000      21.296589       579.5096 
  81   0.0000      41.585830      1131.6080 
  82   0.0000     139.190225      3787.5586 
  83   0.0000     875.664334     23828.0379 

                    ********************************
                    * MULLIKEN POPULATION ANALYSIS *
                    ********************************

--------------------------------------------
MULLIKEN ATOMIC CHARGES AND SPIN POPULATIONS
--------------------------------------------
   0 Ni:   -0.000000    2.000000
Sum of atomic charges         :   -0.0000000
Sum of atomic spin populations:    2.0000000

-----------------------------------------------------
MULLIKEN REDUCED ORBITAL CHARGES AND SPIN POPULATIONS
-----------------------------------------------------
CHARGE
  0 Nis       :     6.999698  s :     6.999698
      pz      :     3.999832  p :    11.999513
      px      :     3.999722
      py      :     3.999960
      dz2     :     1.444054  d :     9.000232
      dxz     :     1.999994
      dyz     :     1.999990
      dx2y2   :     1.556208
      dxy     :     1.999986
      f0      :     0.000096  f :     0.000487
      f+1     :     0.000167
      f-1     :     0.000005
      f+2     :     0.000072
      f-2     :     0.000000
      f+3     :     0.000111
      f-3     :     0.000035
      g0      :     0.000011  g :     0.000070
      g+1     :     0.000001
      g-1     :     0.000004
      g+2     :     0.000013
      g-2     :     0.000001
      g+3     :     0.000005
      g-3     :     0.000007
      g+4     :     0.000016
      g-4     :     0.000012

SPIN
  0 Nis       :     0.999716  s :     0.999716
      pz      :     0.000143  p :     0.000298
      px      :     0.000158
      py      :    -0.000003
      dz2     :     0.555940  d :     1.000264
      dxz     :    -0.000004
      dyz     :     0.000001
      dx2y2   :     0.444338
      dxy     :    -0.000011
      f0      :    -0.000081  f :    -0.000298
      f+1     :    -0.000141
      f-1     :     0.000003
      f+2     :    -0.000061
      f-2     :    -0.000000
      f+3     :    -0.000017
      f-3     :    -0.000001
      g0      :    -0.000001  g :     0.000019
      g+1     :     0.000001
      g-1     :     0.000003
      g+2     :    -0.000003
      g-2     :    -0.000001
      g+3     :     0.000003
      g-3     :    -0.000004
      g+4     :     0.000010
      g-4     :     0.000012


                     *******************************
                     * LOEWDIN POPULATION ANALYSIS *
                     *******************************

-------------------------------------------
LOEWDIN ATOMIC CHARGES AND SPIN POPULATIONS
-------------------------------------------
   0 Ni:    0.000000    2.000000

----------------------------------------------------
LOEWDIN REDUCED ORBITAL CHARGES AND SPIN POPULATIONS
----------------------------------------------------
CHARGE
  0 Nis       :     6.999698  s :     6.999698
      pz      :     3.999832  p :    11.999513
      px      :     3.999722
      py      :     3.999960
      dz2     :     1.444054  d :     9.000232
      dxz     :     1.999994
      dyz     :     1.999990
      dx2y2   :     1.556208
      dxy     :     1.999986
      f0      :     0.000096  f :     0.000487
      f+1     :     0.000167
      f-1     :     0.000005
      f+2     :     0.000072
      f-2     :     0.000000
      f+3     :     0.000111
      f-3     :     0.000035
      g0      :     0.000011  g :     0.000070
      g+1     :     0.000001
      g-1     :     0.000004
      g+2     :     0.000013
      g-2     :     0.000001
      g+3     :     0.000005
      g-3     :     0.000007
      g+4     :     0.000016
      g-4     :     0.000012

SPIN
  0 Nis       :     0.999716  s :     0.999716
      pz      :     0.000143  p :     0.000298
      px      :     0.000158
      py      :    -0.000003
      dz2     :     0.555940  d :     1.000264
      dxz     :    -0.000004
      dyz     :     0.000001
      dx2y2   :     0.444338
      dxy     :    -0.000011
      f0      :    -0.000081  f :    -0.000298
      f+1     :    -0.000141
      f-1     :     0.000003
      f+2     :    -0.000061
      f-2     :    -0.000000
      f+3     :    -0.000017
      f-3     :    -0.000001
      g0      :    -0.000001  g :     0.000019
      g+1     :     0.000001
      g-1     :     0.000003
      g+2     :    -0.000003
      g-2     :    -0.000001
      g+3     :     0.000003
      g-3     :    -0.000004
      g+4     :     0.000010
      g-4     :     0.000012


                      *****************************
                      * MAYER POPULATION ANALYSIS *
                      *****************************

  NA   - Mulliken gross atomic population
  ZA   - Total nuclear charge
  QA   - Mulliken gross atomic charge
  VA   - Mayer's total valence
  BVA  - Mayer's bonded valence
  FA   - Mayer's free valence

  ATOM       NA         ZA         QA         VA         BVA        FA
  0 Ni    28.0000    28.0000    -0.0000     2.0019     0.0000     2.0019

  Mayer bond orders larger than 0.100000


-------
TIMINGS
-------

Total SCF time: 0 days 0 hours 0 min 0 sec 

Total time                  ....       0.857 sec
Sum of individual times     ....       0.500 sec  ( 58.3%)

Fock matrix formation       ....       0.411 sec  ( 48.0%)
Diagonalization             ....       0.010 sec  (  1.2%)
Density matrix formation    ....       0.001 sec  (  0.1%)
Population analysis         ....       0.065 sec  (  7.6%)
Initial guess               ....       0.011 sec  (  1.3%)
Orbital Transformation      ....       0.000 sec  (  0.0%)
Orbital Orthonormalization  ....       0.004 sec  (  0.5%)
DIIS solution               ....       0.000 sec  (  0.1%)


           ************************************************************
           *        Program running with 24 parallel MPI-processes    *
           *              working on a common directory               *
           ************************************************************


------------------------------------------------------------------------------- 
                              ORCA-MATRIX DRIVEN CI                            
------------------------------------------------------------------------------- 

--------------------------------
AUTOMATIC CHOICE OF INCORE LEVEL
--------------------------------

Memory available                           ...   2500.00 MB
Memory needed for S+T                      ...      5.99 MB
Memory needed for J+K                      ...     12.04 MB
Memory needed for DIIS                     ...     83.91 MB
Memory needed for 3-ext                    ...     25.06 MB
Memory needed for 4-ext                    ...     87.72 MB
Memory needed for triples                  ...     12.53 MB
 -> Final InCoreLevel    ... 5
 -> check shows that triples correction can be computed


Wavefunction type
-----------------
Correlation treatment                      ...      CCSD     
Single excitations                         ... ON
Orbital optimization                       ... OFF
Calculation of Z vector                    ... OFF
Calculation of Brueckner orbitals          ... OFF
Perturbative triple excitations            ... ON
Calculation of F12 correction              ... OFF
Frozen core treatment                      ... chemical core (10 el)
Reference Wavefunction                     ... UHF
  Alpha-MOs occ    :     5 ...   14 ( 10 MO's/ 10 electrons)
  Beta-MOs occ     :     5 ...   12 (  8 MO's/  8 electrons)
  Alpha-MOs virt   :    15 ...   83 ( 69 MO's              )
  Beta-MOs virt    :    13 ...   83 ( 71 MO's              )
Number of AO's                             ...     84
Number of electrons                        ...     28
Number of correlated electrons             ...     18

Algorithmic settings
--------------------
Integral transformation                    ... AO direct full transformation
K(C) Formation                             ... FULL-MO TRAFO
Maximum number of iterations               ...        50
Convergence tolerance (max. residuum)      ... 1.000e-05
Level shift for amplitude update           ... 2.000e-01
Maximum number of DIIS vectors             ...         7
DIIS turned on at iteration                ...         0
Damping before turning on DIIS             ...     0.500
Damping after turning on DIIS              ...     0.000
Pair specific amplitude update             ... OFF
Natural orbital iterations                 ... OFF
Perturbative natural orbital generation    ... OFF
Printlevel                                 ... 2

Memory handling:
----------------
Maximum memory for working arrays          ...   2500 MB
Data storage in matrix containers          ... UNCOMPRESSED
Data type for integral storage             ... DOUBLE
In-Core Storage of quantities:
   Amplitudes+Sigma Vector      ... YES
   J+K operators                ... YES
   DIIS vectors                 ... YES
   3-external integrals         ... YES
   4-external integrals         ... YES


Initializing the integral package          ... done
Warning: reference  - re-canonicalizations have been set to INT 1 VIRT 1

--------------------------
UNRESTRICTED FOCK OPERATOR
--------------------------

<ss|ss>:         2211 b            0 skpd (  0.0%)    0.001 s ( 0.001 ms/b)
<ss|sp>:         4356 b            0 skpd (  0.0%)    0.003 s ( 0.001 ms/b)
<ss|sd>:         3630 b            0 skpd (  0.0%)    0.003 s ( 0.001 ms/b)
<ss|sf>:         2178 b            0 skpd (  0.0%)    0.001 s ( 0.000 ms/b)
<ss|sg>:          726 b            0 skpd (  0.0%)    0.001 s ( 0.001 ms/b)
<ss|pp>:         1386 b            0 skpd (  0.0%)    0.003 s ( 0.002 ms/b)
<ss|pd>:         1980 b            0 skpd (  0.0%)    0.003 s ( 0.002 ms/b)
<ss|pf>:         1188 b            0 skpd (  0.0%)    0.001 s ( 0.001 ms/b)
<ss|pg>:          396 b            0 skpd (  0.0%)    0.001 s ( 0.002 ms/b)
<ss|dd>:          990 b            0 skpd (  0.0%)    0.002 s ( 0.002 ms/b)
<ss|df>:          990 b            0 skpd (  0.0%)    0.001 s ( 0.001 ms/b)
<ss|dg>:          330 b            0 skpd (  0.0%)    0.001 s ( 0.003 ms/b)
<ss|ff>:          396 b            0 skpd (  0.0%)    0.000 s ( 0.001 ms/b)
<ss|fg>:          198 b            0 skpd (  0.0%)    0.000 s ( 0.002 ms/b)
<ss|gg>:           66 b            0 skpd (  0.0%)    0.001 s ( 0.009 ms/b)
<sp|sp>:         2211 b            0 skpd (  0.0%)    0.004 s ( 0.002 ms/b)
<sp|sd>:         3630 b            0 skpd (  0.0%)    0.004 s ( 0.001 ms/b)
<sp|sf>:         2178 b            0 skpd (  0.0%)    0.001 s ( 0.000 ms/b)
<sp|sg>:          726 b            0 skpd (  0.0%)    0.001 s ( 0.002 ms/b)
<sp|pp>:         1386 b            0 skpd (  0.0%)    0.005 s ( 0.004 ms/b)
<sp|pd>:         1980 b            0 skpd (  0.0%)    0.006 s ( 0.003 ms/b)
<sp|pf>:         1188 b            7 skpd (  0.6%)    0.002 s ( 0.001 ms/b)
<sp|pg>:          396 b            0 skpd (  0.0%)    0.002 s ( 0.006 ms/b)
<sp|dd>:          990 b            0 skpd (  0.0%)    0.006 s ( 0.006 ms/b)
<sp|df>:          990 b            0 skpd (  0.0%)    0.002 s ( 0.002 ms/b)
<sp|dg>:          330 b            0 skpd (  0.0%)    0.003 s ( 0.008 ms/b)
<sp|ff>:          396 b            0 skpd (  0.0%)    0.001 s ( 0.002 ms/b)
<sp|fg>:          198 b            0 skpd (  0.0%)    0.001 s ( 0.006 ms/b)
<sp|gg>:           66 b            0 skpd (  0.0%)    0.002 s ( 0.023 ms/b)
<sd|sd>:         1540 b           10 skpd (  0.6%)    0.002 s ( 0.002 ms/b)
<sd|sf>:         1815 b            4 skpd (  0.2%)    0.001 s ( 0.001 ms/b)
<sd|sg>:          605 b            0 skpd (  0.0%)    0.002 s ( 0.003 ms/b)
<sd|pp>:         1155 b            2 skpd (  0.2%)    0.005 s ( 0.005 ms/b)
<sd|pd>:         1650 b            4 skpd (  0.2%)    0.007 s ( 0.004 ms/b)
<sd|pf>:          990 b            9 skpd (  0.9%)    0.002 s ( 0.002 ms/b)
<sd|pg>:          330 b            2 skpd (  0.6%)    0.003 s ( 0.010 ms/b)
<sd|dd>:          825 b            0 skpd (  0.0%)    0.008 s ( 0.009 ms/b)
<sd|df>:          825 b            2 skpd (  0.2%)    0.003 s ( 0.003 ms/b)
<sd|dg>:          275 b            1 skpd (  0.4%)    0.004 s ( 0.015 ms/b)
<sd|ff>:          330 b            0 skpd (  0.0%)    0.001 s ( 0.004 ms/b)
<sd|fg>:          165 b            0 skpd (  0.0%)    0.002 s ( 0.011 ms/b)
<sd|gg>:           55 b            0 skpd (  0.0%)    0.003 s ( 0.046 ms/b)
<sf|sf>:          561 b            0 skpd (  0.0%)    0.001 s ( 0.001 ms/b)
<sf|sg>:          363 b            0 skpd (  0.0%)    0.001 s ( 0.003 ms/b)
<sf|pp>:          693 b            0 skpd (  0.0%)    0.003 s ( 0.005 ms/b)
<sf|pd>:          990 b            1 skpd (  0.1%)    0.005 s ( 0.005 ms/b)
<sf|pf>:          594 b            8 skpd (  1.3%)    0.001 s ( 0.002 ms/b)
<sf|pg>:          198 b            0 skpd (  0.0%)    0.002 s ( 0.012 ms/b)
<sf|dd>:          495 b            0 skpd (  0.0%)    0.005 s ( 0.011 ms/b)
<sf|df>:          495 b            2 skpd (  0.4%)    0.002 s ( 0.004 ms/b)
<sf|dg>:          165 b            0 skpd (  0.0%)    0.003 s ( 0.018 ms/b)
<sf|ff>:          198 b            0 skpd (  0.0%)    0.001 s ( 0.006 ms/b)
<sf|fg>:           99 b            0 skpd (  0.0%)    0.002 s ( 0.020 ms/b)
<sf|gg>:           33 b            0 skpd (  0.0%)    0.002 s ( 0.063 ms/b)
<sg|sg>:           66 b            0 skpd (  0.0%)    0.000 s ( 0.005 ms/b)
<sg|pp>:          231 b            0 skpd (  0.0%)    0.002 s ( 0.010 ms/b)
<sg|pd>:          330 b            2 skpd (  0.6%)    0.003 s ( 0.009 ms/b)
<sg|pf>:          198 b            0 skpd (  0.0%)    0.001 s ( 0.004 ms/b)
<sg|pg>:           66 b            0 skpd (  0.0%)    0.002 s ( 0.025 ms/b)
<sg|dd>:          165 b            0 skpd (  0.0%)    0.003 s ( 0.021 ms/b)
<sg|df>:          165 b            0 skpd (  0.0%)    0.001 s ( 0.008 ms/b)
<sg|dg>:           55 b            0 skpd (  0.0%)    0.002 s ( 0.039 ms/b)
<sg|ff>:           66 b            0 skpd (  0.0%)    0.001 s ( 0.008 ms/b)
<sg|fg>:           33 b            0 skpd (  0.0%)    0.001 s ( 0.029 ms/b)
<sg|gg>:           11 b            0 skpd (  0.0%)    0.001 s ( 0.114 ms/b)
<pp|pp>:          231 b            0 skpd (  0.0%)    0.005 s ( 0.023 ms/b)
<pp|pd>:          630 b            0 skpd (  0.0%)    0.007 s ( 0.011 ms/b)
<pp|pf>:          378 b            0 skpd (  0.0%)    0.002 s ( 0.005 ms/b)
<pp|pg>:          126 b            0 skpd (  0.0%)    0.003 s ( 0.023 ms/b)
<pp|dd>:          315 b            0 skpd (  0.0%)    0.007 s ( 0.023 ms/b)
<pp|df>:          315 b            0 skpd (  0.0%)    0.002 s ( 0.008 ms/b)
<pp|dg>:          105 b            0 skpd (  0.0%)    0.004 s ( 0.035 ms/b)
<pp|ff>:          126 b            0 skpd (  0.0%)    0.001 s ( 0.008 ms/b)
<pp|fg>:           63 b            0 skpd (  0.0%)    0.001 s ( 0.022 ms/b)
<pp|gg>:           21 b            0 skpd (  0.0%)    0.002 s ( 0.094 ms/b)
<pd|pd>:          465 b            0 skpd (  0.0%)    0.009 s ( 0.020 ms/b)
<pd|pf>:          540 b            0 skpd (  0.0%)    0.003 s ( 0.006 ms/b)
<pd|pg>:          180 b            0 skpd (  0.0%)    0.006 s ( 0.033 ms/b)
<pd|dd>:          450 b            0 skpd (  0.0%)    0.014 s ( 0.031 ms/b)
<pd|df>:          450 b            0 skpd (  0.0%)    0.005 s ( 0.012 ms/b)
<pd|dg>:          150 b            0 skpd (  0.0%)    0.008 s ( 0.052 ms/b)
<pd|ff>:          180 b            0 skpd (  0.0%)    0.002 s ( 0.013 ms/b)
<pd|fg>:           90 b            0 skpd (  0.0%)    0.003 s ( 0.037 ms/b)
<pd|gg>:           30 b            0 skpd (  0.0%)    0.005 s ( 0.153 ms/b)
<pf|pf>:          171 b            0 skpd (  0.0%)    0.002 s ( 0.009 ms/b)
<pf|pg>:          108 b            0 skpd (  0.0%)    0.004 s ( 0.036 ms/b)
<pf|dd>:          270 b            0 skpd (  0.0%)    0.008 s ( 0.031 ms/b)
<pf|df>:          270 b            0 skpd (  0.0%)    0.003 s ( 0.012 ms/b)
<pf|dg>:           90 b            0 skpd (  0.0%)    0.005 s ( 0.056 ms/b)
<pf|ff>:          108 b            0 skpd (  0.0%)    0.002 s ( 0.018 ms/b)
<pf|fg>:           54 b            0 skpd (  0.0%)    0.003 s ( 0.047 ms/b)
<pf|gg>:           18 b            0 skpd (  0.0%)    0.003 s ( 0.188 ms/b)
<pg|pg>:           21 b            0 skpd (  0.0%)    0.002 s ( 0.072 ms/b)
<pg|dd>:           90 b            0 skpd (  0.0%)    0.006 s ( 0.063 ms/b)
<pg|df>:           90 b            0 skpd (  0.0%)    0.002 s ( 0.022 ms/b)
<pg|dg>:           30 b            0 skpd (  0.0%)    0.003 s ( 0.109 ms/b)
<pg|ff>:           36 b            0 skpd (  0.0%)    0.001 s ( 0.024 ms/b)
<pg|fg>:           18 b            0 skpd (  0.0%)    0.001 s ( 0.082 ms/b)
<pg|gg>:            6 b            0 skpd (  0.0%)    0.002 s ( 0.318 ms/b)
<dd|dd>:          120 b            0 skpd (  0.0%)    0.011 s ( 0.090 ms/b)
<dd|df>:          225 b            0 skpd (  0.0%)    0.004 s ( 0.018 ms/b)
<dd|dg>:           75 b            0 skpd (  0.0%)    0.007 s ( 0.087 ms/b)
<dd|ff>:           90 b            0 skpd (  0.0%)    0.002 s ( 0.022 ms/b)
<dd|fg>:           45 b            0 skpd (  0.0%)    0.003 s ( 0.062 ms/b)
<dd|gg>:           15 b            0 skpd (  0.0%)    0.004 s ( 0.263 ms/b)
<df|df>:          120 b            0 skpd (  0.0%)    0.004 s ( 0.032 ms/b)
<df|dg>:           75 b            0 skpd (  0.0%)    0.006 s ( 0.079 ms/b)
<df|ff>:           90 b            0 skpd (  0.0%)    0.003 s ( 0.033 ms/b)
<df|fg>:           45 b            0 skpd (  0.0%)    0.003 s ( 0.077 ms/b)
<df|gg>:           15 b            0 skpd (  0.0%)    0.005 s ( 0.312 ms/b)
<dg|dg>:           15 b            0 skpd (  0.0%)    0.003 s ( 0.201 ms/b)
<dg|ff>:           30 b            0 skpd (  0.0%)    0.001 s ( 0.037 ms/b)
<dg|fg>:           15 b            0 skpd (  0.0%)    0.002 s ( 0.124 ms/b)
<dg|gg>:            5 b            0 skpd (  0.0%)    0.002 s ( 0.481 ms/b)
<ff|ff>:           21 b            0 skpd (  0.0%)    0.001 s ( 0.051 ms/b)
<ff|fg>:           18 b            0 skpd (  0.0%)    0.002 s ( 0.104 ms/b)
<ff|gg>:            6 b            0 skpd (  0.0%)    0.003 s ( 0.439 ms/b)
<fg|fg>:            6 b            0 skpd (  0.0%)    0.001 s ( 0.243 ms/b)
<fg|gg>:            3 b            0 skpd (  0.0%)    0.002 s ( 0.751 ms/b)
<gg|gg>:            1 b            0 skpd (  0.0%)    0.002 s ( 1.924 ms/b)
Recanonicalizing the internal orbitals
Recanonicalizing the virtual orbitals
Time needed for Fock operator              ...            0.512 sec
Reference energy                           ...  -1506.829171171
Warning: for UHF the TrafoType has to be JK
Warning: for UHF the K(C)-option cannot be MO but must be AOX

-------------------------------
PARTIAL EXCHANGE TRANSFORMATION
-------------------------------

Transformation type                        ... two-operators
Generation of integrals (i,mue|j,nue)      ... ON
Generation of integrals (mue,kappa|nue,tau)... ON
Generation of integrals (i,mue|a,nue)      ... ON
Dimension of the basis                     ...   84
Number of internal alpha-MOs               ...   10 (   5-  14)
Number of internal beta-MOs                ...    8 (   5-  12)
Number of external alpha-MOs               ...   69 (  15-  83)
Number of external beta-MOs                ...   71 (  13-  83)
Pair cutoff                                ... 0.000e+00 Eh
Number of AO pairs in the trafo            ... 3570
Total Number of distinct AO pairs          ... 3570
Memory devoted for trafo                   ... 2500.0 MB 
Max. Number of MO pairs treated together   ... 46439      
Number Format for Storage                  ... Double (8 Byte)
Integral package used                      ... LIBINT

Starting integral evaluation:
    ... done with AO integral generation
Closing buffer AOK[aa] ( 0.00 GB; CompressionRatio= 0.99)
Closing buffer AOK[bb] ( 0.00 GB; CompressionRatio= 0.98)
Closing buffer AOK[ab] ( 0.00 GB; CompressionRatio= 0.98)
Closing buffer AOK[ba] ( 0.00 GB; CompressionRatio= 0.98)
Collecting buffer AOK 
Closing buffer IAAO1[aa] ( 0.00 GB; CompressionRatio= 1.00)
Closing buffer IAAO1[bb] ( 0.00 GB; CompressionRatio= 1.00)
Closing buffer IAAO1[ab] ( 0.00 GB; CompressionRatio= 1.00)
Closing buffer IAAO1[ba] ( 0.00 GB; CompressionRatio= 1.00)
Closing buffer IAAO2[aa] ( 0.00 GB; CompressionRatio= 1.00)
Closing buffer IAAO2[bb] ( 0.00 GB; CompressionRatio= 1.00)
Closing buffer IAAO2[ab] ( 0.00 GB; CompressionRatio= 1.00)
Closing buffer IAAO2[ba] ( 0.00 GB; CompressionRatio= 1.00)
Collecting buffer IAAO 
Closing buffer PRQS    ( 0.00 GB; CompressionRatio= 1.00)
Collecting buffer PRQS 
Number of alpha/alpha MO pairs in trafo    ...   55
Number of beta /beta  MO pairs in trafo    ...   36
Number of alpha/ beta MO pairs in trafo    ...   80
------------------------
SORTING OF (i,mue|j,nue)
------------------------

SORTING OF ALPHA/ALPHA PAIRS
IBATCH = 1 of  1
Closing buffer KAO[aa] ( 0.00 GB; CompressionRatio= 1.00)
Collecting buffer KAO 
SORTING OF BETA /BETA  PAIRS
IBATCH = 1 of  1
Closing buffer KAO[bb] ( 0.00 GB; CompressionRatio= 1.00)
Collecting buffer KAO 
SORTING OF ALPHA/BETA  PAIRS
IBATCH = 1 of  1
Closing buffer KAO[ab] ( 0.00 GB; CompressionRatio= 0.999787460149)
Collecting buffer KAO[ab] 
------------------------
SORTING OF (i,mue|a,nue)
------------------------

Number of alpha/alpha (i,a) pairs in trafo  ...  690
Number of beta /beta  (i,a) pairs in trafo  ...  568
Number of alpha/ beta (i,a) pairs in trafo  ...  710
Number of beta /alpha (i,a) pairs in trafo  ...  552
Setting up the alpha/alpha list             ... done
Setting up the beta /beta  list             ... done
Setting up the alpha/beta  list             ... done
Setting up the beta /alpha list             ... done
    ... Now sorting (i,mue|a,nue)integrals
    ... Integrals (i,b|a,c) will be made on the fly
SORTING OF ALPHA/ALPHA PAIRS
IBATCH = 1 of  1
Closing buffer IPAQ[aa]  0.00 GB; CompressionRatio= 1.00)
SORTING OF BETA /BETA  PAIRS
IBATCH = 1 of  1
Closing buffer IPAQ[bb]( 0.00 GB; CompressionRatio= 1.00)
SORTING OF ALPHA/BETA  PAIRS (NMatSort_ab=30)
IBATCH = 1 of  1
Closing buffer IPAQ[ab]( 0.00 GB; CompressionRatio= 1.00)
SORTING OF BETA/ALPHA  PAIRS
IBATCH = 1 of  1
Closing buffer IPAQ[ba]( 0.00 GB; CompressionRatio= 1.00)
N(AO-Batches) Done                         ...      2028 
N(AO-Batches) Skipped                      ...         0 
N(IJ)-pairs Skipped                        ...         0 
TOTAL TIME for half transformation         ...     5.976 sec
AO-integral generation                     ...     0.053 sec
Half transformation                        ...     0.546 sec
K-integral sorting                         ...     1.293 sec
<ss|**>: 
------------------------------
PARTIAL COULOMB TRANSFORMATION
------------------------------

Transformation type                        ... two-operators
Dimension of the basis                     ...   84
Number of internal alpha-MOs               ...   10 (5-14)
Number of internal beta-MOs                ...    8 (5-12)
Pair cutoff                                ... 0.000e+00 Eh
Number of AO pairs included in the trafo   ... 3570
Total Number of distinct AO pairs          ... 3570
Memory devoted for trafo                   ... 2500.0 MB 
Max. Number of MO pairs treated together   ... 91787      
Max. Number of MOs treated per batch       ... 1092      
Number Format for Storage                  ... Double (8 Byte)
AO-integral source                         ... DIRECT
Integral package used                      ... LIBINT

Starting integral evaluation:
<sp|**>:        23166 b        0 skpd     0.021 s (  0.001 ms/b)
<sd|**>:        23166 b        0 skpd     0.040 s (  0.002 ms/b)
       19305 b        0 skpd     0.074 s (  0.004 ms/b)
<sf|**>:        11583 b        0 skpd     0.057 s (  0.005 ms/b)
<sg|**>: <pp|**>:         3861 b        0 skpd     0.031 s (  0.008 ms/b)
        7371 b        0 skpd     0.058 s (  0.008 ms/b)
<pd|**>:        10530 b        0 skpd     0.104 s (  0.010 ms/b)
<pf|**>:         6318 b        0 skpd     0.064 s (  0.010 ms/b)
<pg|**>:         2106 b        0 skpd     0.068 s (  0.032 ms/b)
<dd|**>:         5265 b        0 skpd     0.101 s (  0.019 ms/b)
<df|**>:         5265 b        0 skpd     0.091 s (  0.017 ms/b)
<dg|**>:         1755 b        0 skpd     0.090 s (  0.051 ms/b)
<ff|**>:         2106 b        0 skpd     0.059 s (  0.028 ms/b)
<fg|**>:         1053 b        0 skpd     0.074 s (  0.071 ms/b)
<gg|**>:          351 b        0 skpd     0.062 s (  0.175 ms/b)
Closing buffer AOJ[aa] ( 0.00 GB; CompressionRatio= 0.97)
Closing buffer AOJ[bb] ( 0.00 GB; CompressionRatio= 0.00)
Collecting buffer AOJ 
    ... done with AO integral generation
Number of Alpha-MO pairs included          ...   55
Number of Beta-MO pairs included           ...   36
    ... Now sorting integrals
SORTING ALPHA/ALPHA PAIRS
IBATCH = 1 of  1
Closing buffer JAO[aa] ( 0.00 GB; CompressionRatio= 1.00)
SORTING BETA/BETA PAIRS
IBATCH = 1 of  1
Closing buffer JAO[bb] ( 0.00 GB; CompressionRatio= 1.00)
Collecting buffer JAO 
TOTAL TIME for half transformation         ...     1.173 sec
AO-integral generation                     ...     0.684 sec
Half transformation                        ...     0.311 sec
J-integral sorting                         ...     0.130 sec

-------------------------- SECOND HALF TRANSFORMATION -------------------------
Formation of (ij|kl),(ij|ka), (ij|ab)      ... ok (     0.193 sec)
Formation of (ik|jl),(ik|ja), (ia|jb)      ... ok (     0.283 sec)


-----------------------
SPIN UNRESTRICTED GUESS
-----------------------

Entering MDCI_UHF_Guess, Tailored=0
Spin-components of the MP2 energy:
EMP2(aa)=     -0.149733950
EMP2(bb)=     -0.104268657
EMP2(ab)=     -0.495569588

Initial guess performed in     0.020 sec
E(0)                                       ...  -1506.829171171
E(MP2)                                     ...     -0.749572195
Initial E(tot)                             ...  -1507.578743365
<T|T>                                      ...      0.111672423
Number of pairs included                   ... 153

------------------------------------------------
                  UHF COUPLED CLUSTER ITERATIONS
------------------------------------------------

Number of amplitudes to be optimized       ...       570209

Iter       E(tot)           E(Corr)          Delta-E          Residual     Time      <S|S>**1/2
  0  -1507.578743365     -0.749572195     -0.000000000      0.037521739    0.89      0.000009215
                           *** Turning on DIIS ***
  1  -1507.466273592     -0.637102421      0.112469774      0.015748465    0.77      0.078970127
  2  -1507.502498735     -0.673327564     -0.036225143      0.005801208    0.80      0.060642715
  3  -1507.502021164     -0.672849993      0.000477571      0.004416976    0.78      0.075251423
  4  -1507.503329863     -0.674158692     -0.001308699      0.002652425    0.78      0.082173344
  5  -1507.504154556     -0.674983386     -0.000824694      0.001069067    0.79      0.088617442
  6  -1507.504344271     -0.675173100     -0.000189715      0.000340204    0.82      0.091269650
  7  -1507.504346598     -0.675175427     -0.000002326      0.000076701    0.81      0.092194216
  8  -1507.504360786     -0.675189615     -0.000014188      0.000032480    0.80      0.092313257
  9  -1507.504361813     -0.675190643     -0.000001027      0.000013635    0.78      0.092348267
 10  -1507.504358811     -0.675187641      0.000003002      0.000007496    0.78      0.092343762
               --- The Coupled-Cluster iterations have converged ---

----------------------
COUPLED CLUSTER ENERGY
----------------------

E(0)                                       ...  -1506.829171171
E(CORR)                                    ...     -0.675187641
E(TOT)                                     ...  -1507.504358811
Singles norm <S|S>**1/2                    ...      0.092343762 ( 0.057938956, 0.034404806)  
T1 diagnostic                              ...      0.021765633                              

------------------
LARGEST AMPLITUDES
------------------
  14a-> 18a  -1a-> -1a       0.064226
  14a-> 27a  -1a-> -1a       0.038767
  12b-> 25b  -1b-> -1b       0.030294
  11b-> 24b  -1b-> -1b       0.030248
  10b-> 23b  -1b-> -1b       0.029690
   9b-> 22b  -1b-> -1b       0.028042
  13a-> 26a  -1a-> -1a       0.026214
  12a-> 25a  -1a-> -1a       0.025884
   9b-> 31b  -1b-> -1b       0.025186
  11a-> 24a  -1a-> -1a       0.024372
  10b-> 32b  -1b-> -1b       0.024197
  11b-> 33b  -1b-> -1b       0.023068
  12b-> 34b  -1b-> -1b       0.022667
   9a-> 22a  -1a-> -1a       0.022475
  10a-> 23a  -1a-> -1a       0.021843
   9a-> 31a  -1a-> -1a       0.021046

----------------------
UHF TRIPLES CORRECTION (Algorithm 1)
----------------------

Multiplier for the singles contribution    ...      1.000000000

SPIN-CASE Alpha-Alpha-Alpha:
10% done
20% done
30% done
40% done
50% done
60% done
70% done
80% done
90% done


SPIN-CASE Beta-Beta-Beta:
10% done
20% done
30% done
40% done
50% done
60% done
70% done
80% done
90% done


SPIN-CASE Alpha-Alpha-Beta:
10% done
20% done
30% done
40% done
50% done
60% done
70% done
80% done
90% done


SPIN-CASE Beta-Beta-Alpha:
10% done
20% done
30% done
40% done
50% done
60% done
70% done
80% done
90% done


Triples Correction (T)                     ...     -0.022629184
    alpha-alpha-alpha ... -0.001516279 (  6.7%)
    alpha-alpha-beta  ... -0.012042423 ( 53.2%)
    alpha-beta -beta  ... -0.008508505 ( 37.6%)
    beta -beta -beta  ... -0.000561978 (  2.5%)
Scaling of triples based on CCSD energies (Peterson et al. Molecular Physics 113, 1551 (2015))
E(T*) = f*E(T) where f = E(F12-CCSD)/E(CCSD) 
f = CCSD (with F12)/ CCSD (without F12)    ...      1.000000000
Scaled triples correction (T)              ...     -0.022629184

Final correlation energy                   ...     -0.697816825
E(CCSD)                                    ...  -1507.504358811
E(CCSD(T))                                 ...  -1507.526987996



        !!!!!!!!!!!!!!!!!!!!!!!!!!!!!!!!!!!!!!!!!!!!!!!!!!!!!!!!!!!!!!!!!!!!!!!!!! 
        !  Warning: Densities are linearized densities                           !
        !!!!!!!!!!!!!!!!!!!!!!!!!!!!!!!!!!!!!!!!!!!!!!!!!!!!!!!!!!!!!!!!!!!!!!!!!! 

NORM  =      1.108180800 sqrt=     1.052701667
W(HF) =      0.902379828
------------------------------------------------------------------------------
                           ORCA POPULATION ANALYSIS
------------------------------------------------------------------------------
Input electron density              ... 28_Ni.mdcip
Input spin density                  ... 28_Ni.mdcir
BaseName (.gbw .S,...)              ... 28_Ni

                    ********************************
                    * MULLIKEN POPULATION ANALYSIS *
                    ********************************

------------------------------------------
MULLIKEN ATOMIC CHARGES AND SPIN DENSITIES
------------------------------------------
   0 Ni:   -0.000000    2.000000
Sum of atomic charges       :   -0.0000000
Sum of atomic spin densities:    2.0000000

---------------------------------------------------
MULLIKEN REDUCED ORBITAL CHARGES AND SPIN DENSITIES
---------------------------------------------------
CHARGE
  0 Nis       :     6.988842  s :     6.988842
      pz      :     4.004159  p :    12.013387
      px      :     4.002309
      py      :     4.006919
      dz2     :     1.440505  d :     8.958450
      dxz     :     1.989696
      dyz     :     1.988525
      dx2y2   :     1.550722
      dxy     :     1.989002
      f0      :     0.004841  f :     0.035904
      f+1     :     0.004838
      f-1     :     0.005264
      f+2     :     0.005244
      f-2     :     0.005565
      f+3     :     0.005077
      f-3     :     0.005075
      g0      :     0.000371  g :     0.003416
      g+1     :     0.000367
      g-1     :     0.000383
      g+2     :     0.000378
      g-2     :     0.000387
      g+3     :     0.000388
      g-3     :     0.000388
      g+4     :     0.000377
      g-4     :     0.000377

SPIN
  0 Nis       :     0.987003  s :     0.987003
      pz      :     0.003079  p :     0.008681
      px      :     0.004187
      py      :     0.001414
      dz2     :     0.551381  d :     1.001003
      dxz     :     0.001910
      dyz     :     0.003476
      dx2y2   :     0.441398
      dxy     :     0.002837
      f0      :     0.000815  f :     0.002935
      f+1     :     0.000721
      f-1     :     0.000318
      f+2     :     0.000255
      f-2     :    -0.000206
      f+3     :     0.000516
      f-3     :     0.000515
      g0      :     0.000065  g :     0.000378
      g+1     :     0.000068
      g-1     :     0.000041
      g+2     :     0.000045
      g-2     :     0.000018
      g+3     :     0.000018
      g-3     :     0.000018
      g+4     :     0.000052
      g-4     :     0.000052


                     *******************************
                     * LOEWDIN POPULATION ANALYSIS *
                     *******************************

-----------------------------------------
LOEWDIN ATOMIC CHARGES AND SPIN DENSITIES
-----------------------------------------
   0 Ni:    0.000000    2.000000

--------------------------------------------------
LOEWDIN REDUCED ORBITAL CHARGES AND SPIN DENSITIES
--------------------------------------------------
CHARGE
  0 Nis       :     6.988842  s :     6.988842
      pz      :     4.004159  p :    12.013387
      px      :     4.002309
      py      :     4.006919
      dz2     :     1.440505  d :     8.958450
      dxz     :     1.989696
      dyz     :     1.988525
      dx2y2   :     1.550722
      dxy     :     1.989002
      f0      :     0.004841  f :     0.035904
      f+1     :     0.004838
      f-1     :     0.005264
      f+2     :     0.005244
      f-2     :     0.005565
      f+3     :     0.005077
      f-3     :     0.005075
      g0      :     0.000371  g :     0.003416
      g+1     :     0.000367
      g-1     :     0.000383
      g+2     :     0.000378
      g-2     :     0.000387
      g+3     :     0.000388
      g-3     :     0.000388
      g+4     :     0.000377
      g-4     :     0.000377

SPIN
  0 Nis       :     0.987003  s :     0.987003
      pz      :     0.003079  p :     0.008681
      px      :     0.004187
      py      :     0.001414
      dz2     :     0.551381  d :     1.001003
      dxz     :     0.001910
      dyz     :     0.003476
      dx2y2   :     0.441398
      dxy     :     0.002837
      f0      :     0.000815  f :     0.002935
      f+1     :     0.000721
      f-1     :     0.000318
      f+2     :     0.000255
      f-2     :    -0.000206
      f+3     :     0.000516
      f-3     :     0.000515
      g0      :     0.000065  g :     0.000378
      g+1     :     0.000068
      g-1     :     0.000041
      g+2     :     0.000045
      g-2     :     0.000018
      g+3     :     0.000018
      g-3     :     0.000018
      g+4     :     0.000052
      g-4     :     0.000052


                      *****************************
                      * MAYER POPULATION ANALYSIS *
                      *****************************

  NA   - Mulliken gross atomic population
  ZA   - Total nuclear charge
  QA   - Mulliken gross atomic charge
  VA   - Mayer's total valence
  BVA  - Mayer's bonded valence
  FA   - Mayer's free valence

  ATOM       NA         ZA         QA         VA         BVA        FA
  0 Ni    28.0000    28.0000    -0.0000     2.6620     0.0000     2.6620





------------------------------------------------------------------------------- 
                                     TIMINGS                                   
------------------------------------------------------------------------------- 


Total execution time                   ...       18.913 sec

Fock Matrix Formation                  ...        0.512 sec (  2.7%)
Initial Guess                          ...        0.020 sec (  0.1%)
DIIS Solver                            ...        0.495 sec (  2.6%)
State Vector Update                    ...        0.024 sec (  0.1%)
Sigma-vector construction              ...        8.288 sec ( 43.8%)
  <0|H|D>                              ...        0.002 sec (  0.0% of sigma)
  <D|H|D>(0-ext Fock)                  ...        0.009 sec (  0.1% of sigma)
  <D|H|D>(0-ext)                       ...        0.033 sec (  0.4% of sigma)
  <D|H|D>(2-ext Fock)                  ...        0.003 sec (  0.0% of sigma)
  <D|H|D>(2-ext)                       ...        0.123 sec (  1.5% of sigma)
  <D|H|D>(4-ext)                       ...        3.521 sec ( 42.5% of sigma)
  <S|H|0>                              ...        0.235 sec (  2.8% of sigma)
  <S|H|S>                              ...        0.001 sec (  0.0% of sigma)
  <S|H|D>(1-ext)                       ...        0.003 sec (  0.0% of sigma)
  <D|H|S>(1-ext)                       ...        0.042 sec (  0.5% of sigma)
  Fock-dressing                        ...        2.752 sec ( 33.2% of sigma)
  (ik|jl)-dressing                     ...        0.041 sec (  0.5% of sigma)
  (ij|ab),(ia|jb)-dressing             ...        1.173 sec ( 14.2% of sigma)
  Pair energies                        ...        0.003 sec (  0.0% of sigma)
Total Time for computing (T)           ...        0.935 sec (  4.9% of ALL)
  I/O of integral and amplitudes       ...        0.243 sec ( 26.0% of (T))
  External N**7 contributions          ...        0.228 sec ( 24.4% of (T))
  Internal N**7 contributions          ...        0.126 sec ( 13.5% of (T))
  N**6 triples energy contributions    ...        0.309 sec ( 33.1% of (T))


-------------------------   --------------------
FINAL SINGLE POINT ENERGY     -1507.526987995731
-------------------------   --------------------


                            ***************************************
                            *     ORCA property calculations      *
                            ***************************************

                                    ---------------------
                                    Active property flags
                                    ---------------------
   (+) Dipole Moment


------------------------------------------------------------------------------
                       ORCA ELECTRIC PROPERTIES CALCULATION
------------------------------------------------------------------------------

Dipole Moment Calculation                       ... on
Quadrupole Moment Calculation                   ... off
Polarizability Calculation                      ... off
GBWName                                         ... 28_Ni.gbw
Electron density file                           ... 28_Ni.scfp
The origin for moment calculation is the CENTER OF MASS  = ( 0.000000,  0.000000  0.000000)

-------------
DIPOLE MOMENT
-------------
                                X             Y             Z
Electronic contribution:      0.00000      -0.00000      -0.00000
Nuclear contribution   :      0.00000       0.00000       0.00000
                        -----------------------------------------
Total Dipole Moment    :      0.00000      -0.00000      -0.00000
                        -----------------------------------------
Magnitude (a.u.)       :      0.00000
Magnitude (Debye)      :      0.00000



--------------------
Rotational spectrum 
--------------------
 
Rotational constants in cm-1:     0.000000     0.000000     0.000000 
Rotational constants in MHz :     0.000000     0.000000     0.000000 

 Dipole components along the rotational axes: 
x,y,z [a.u.] :     0.000000    -0.000000    -0.000000 
x,y,z [Debye]:     0.000000    -0.000000    -0.000000 

 

                           *** MDCI DENSITY ***

------------------------------------------------------------------------------
                       ORCA ELECTRIC PROPERTIES CALCULATION
------------------------------------------------------------------------------

Dipole Moment Calculation                       ... on
Quadrupole Moment Calculation                   ... off
Polarizability Calculation                      ... off
GBWName                                         ... 28_Ni.gbw
Electron density file                           ... 28_Ni.mdcip
The origin for moment calculation is the CENTER OF MASS  = ( 0.000000,  0.000000  0.000000)

-------------
DIPOLE MOMENT
-------------
                                X             Y             Z
Electronic contribution:      0.00000       0.00000       0.00000
Nuclear contribution   :      0.00000       0.00000       0.00000
                        -----------------------------------------
Total Dipole Moment    :      0.00000       0.00000       0.00000
                        -----------------------------------------
Magnitude (a.u.)       :      0.00000
Magnitude (Debye)      :      0.00000



--------------------
Rotational spectrum 
--------------------
 
Rotational constants in cm-1:     0.000000     0.000000     0.000000 
Rotational constants in MHz :     0.000000     0.000000     0.000000 

 Dipole components along the rotational axes: 
x,y,z [a.u.] :     0.000000     0.000000     0.000000 
x,y,z [Debye]:     0.000000     0.000000     0.000000 

 

Timings for individual modules:

Sum of individual times         ...       21.873 sec (=   0.365 min)
GTO integral calculation        ...        0.994 sec (=   0.017 min)   4.5 %
SCF iterations                  ...        1.255 sec (=   0.021 min)   5.7 %
MDCI module                     ...       19.624 sec (=   0.327 min)  89.7 %
                             ****ORCA TERMINATED NORMALLY****
TOTAL RUN TIME: 0 days 0 hours 0 minutes 22 seconds 900 msec
