
                                 *****************
                                 * O   R   C   A *
                                 *****************

           --- An Ab Initio, DFT and Semiempirical electronic structure package ---

                  #######################################################
                  #                        -***-                        #
                  #          Department of theory and spectroscopy      #
                  #               Directorship: Frank Neese             #
                  #        Max Planck Institute fuer Kohlenforschung    #
                  #                Kaiser Wilhelm Platz 1               #
                  #                 D-45470 Muelheim/Ruhr               #
                  #                      Germany                        #
                  #                                                     #
                  #                  All rights reserved                #
                  #                        -***-                        #
                  #######################################################


                         Program Version 4.2.0 -  RELEASE  -


 With contributions from (in alphabetic order):
   Daniel Aravena         : Magnetic Suceptibility
   Michael Atanasov       : Ab Initio Ligand Field Theory (pilot matlab implementation)
   Alexander A. Auer      : GIAO ZORA, VPT2
   Ute Becker             : Parallelization
   Giovanni Bistoni       : ED, misc. LED, open-shell LED, HFLED
   Martin Brehm           : Molecular dynamics
   Dmytro Bykov           : SCF Hessian
   Vijay G. Chilkuri      : MRCI spin determinant printing, contributions to CSF-ICE
   Dipayan Datta          : RHF DLPNO-CCSD density
   Achintya Kumar Dutta   : EOM-CC, STEOM-CC
   Dmitry Ganyushin       : Spin-Orbit,Spin-Spin,Magnetic field MRCI
   Miquel Garcia          : C-PCM Hessian, Gaussian charge scheme
   Yang Guo               : DLPNO-NEVPT2, CIM, IAO-localization
   Andreas Hansen         : Spin unrestricted coupled pair/coupled cluster methods
   Benjamin Helmich-Paris : CASSCF linear response (MC-RPA)
   Lee Huntington         : MR-EOM, pCC
   Robert Izsak           : Overlap fitted RIJCOSX, COSX-SCS-MP3, EOM
   Christian Kollmar      : KDIIS, OOCD, Brueckner-CCSD(T), CCSD density
   Simone Kossmann        : Meta GGA functionals, TD-DFT gradient, OOMP2, MP2 Hessian
   Martin Krupicka        : AUTO-CI
   Lucas Lang             : DCDCAS
   Dagmar Lenk            : GEPOL surface, SMD
   Dimitrios Liakos       : Extrapolation schemes; Compound Job, initial MDCI parallelization
   Dimitrios Manganas     : Further ROCIS development; embedding schemes
   Dimitrios Pantazis     : SARC Basis sets
   Taras Petrenko         : DFT Hessian,TD-DFT gradient, ASA, ECA, R-Raman, ABS, FL, XAS/XES, NRVS
   Peter Pinski           : DLPNO-MP2, DLPNO-MP2 Gradient
   Christoph Reimann      : Effective Core Potentials
   Marius Retegan         : Local ZFS, SOC
   Christoph Riplinger    : Optimizer, TS searches, QM/MM, DLPNO-CCSD(T), (RO)-DLPNO pert. Triples
   Tobias Risthaus        : Range-separated hybrids, TD-DFT gradient, RPA, STAB
   Michael Roemelt        : Original ROCIS implementation
   Masaaki Saitow         : Open-shell DLPNO-CCSD energy and density
   Barbara Sandhoefer     : DKH picture change effects
   Avijit Sen             : IP-ROCIS
   Kantharuban Sivalingam : CASSCF convergence, NEVPT2, FIC-MRCI
   Bernardo de Souza      : ESD, SOC TD-DFT
   Georgi Stoychev        : AutoAux, RI-MP2 NMR
   Willem Van den Heuvel  : Paramagnetic NMR
   Boris Wezisla          : Elementary symmetry handling
   Frank Wennmohs         : Technical directorship


 We gratefully acknowledge several colleagues who have allowed us to
 interface, adapt or use parts of their codes:
   Stefan Grimme, W. Hujo, H. Kruse,             : VdW corrections, initial TS optimization,
                  C. Bannwarth                     DFT functionals, gCP, sTDA/sTD-DF
   Ed Valeev, F. Pavosevic, A. Kumar             : LibInt (2-el integral package), F12 methods
   Garnet Chan, S. Sharma, J. Yang, R. Olivares  : DMRG
   Ulf Ekstrom                                   : XCFun DFT Library
   Mihaly Kallay                                 : mrcc  (arbitrary order and MRCC methods)
   Andreas Klamt, Michael Diedenhofen            : otool_cosmo (COSMO solvation model)
   Jiri Pittner, Ondrej Demel                    : Mk-CCSD
   Frank Weinhold                                : gennbo (NPA and NBO analysis)
   Christopher J. Cramer and Donald G. Truhlar   : smd solvation model
   Lars Goerigk                                  : TD-DFT with DH, B97 family of functionals
   V. Asgeirsson, H. Jonsson                     : NEB implementation
   FAccTs GmbH                                   : IRC, NEB, NEB-TS, Multilevel, MM, QM/MM, CI optimization
   S Lehtola, MJT Oliveira, MAL Marques          : LibXC Library


 Your calculation uses the libint2 library for the computation of 2-el integrals
 For citations please refer to: http://libint.valeyev.net

 Your ORCA version has been built with support for libXC version: 4.2.3
 For citations please refer to: https://tddft.org/programs/libxc/

 This ORCA versions uses:
   CBLAS   interface :  Fast vector & matrix operations
   LAPACKE interface :  Fast linear algebra routines
   SCALAPACK package :  Parallel linear algebra routines


----- Orbital basis set information -----
Your calculation utilizes the basis: def2-QZVP
   F. Weigend and R. Ahlrichs, Phys. Chem. Chem. Phys. 7, 3297 (2005).

================================================================================
                                        WARNINGS
                       Please study these warnings very carefully!
================================================================================


WARNING: your system is open-shell and RHF/RKS was chosen
  ===> : WILL SWITCH to UHF/UKS


WARNING: MDCI localization with Augmented Hessian Foster-Boys
  ===> : Switching off randomization!

WARNING: Post HF methods need fully converged wavefunctions
  ===> : Setting SCFConvForced true
         You can overwrite this default with %scf ConvForced false 


INFO   : the flag for use of LIBINT has been found!

================================================================================
                                       INPUT FILE
================================================================================
NAME = 31_Ga.in
|  1> #
|  2> # 31_Ga CCSD(T)/Def2-QZVP
|  3> #
|  4> ! CCSD(T) Def2-QZVP tightscf
|  5> 
|  6> *xyz 0 2
|  7>  Ga 0.0 0.0 0.0
|  8> *
|  9> 
| 10> %maxcore 5000 
| 11> 
| 12> %pal
| 13> nprocs 24
| 14> end
| 15> 
| 16> 
| 17>                          ****END OF INPUT****
================================================================================

                       ****************************
                       * Single Point Calculation *
                       ****************************

---------------------------------
CARTESIAN COORDINATES (ANGSTROEM)
---------------------------------
  Ga     0.000000    0.000000    0.000000

----------------------------
CARTESIAN COORDINATES (A.U.)
----------------------------
  NO LB      ZA    FRAG     MASS         X           Y           Z
   0 Ga   31.0000    0    69.720    0.000000    0.000000    0.000000

--------------------------------
INTERNAL COORDINATES (ANGSTROEM)
--------------------------------
 Ga     0   0   0     0.000000000000     0.00000000     0.00000000

---------------------------
INTERNAL COORDINATES (A.U.)
---------------------------
 Ga     0   0   0     0.000000000000     0.00000000     0.00000000

---------------------
BASIS SET INFORMATION
---------------------
There are 1 groups of distinct atoms

 Group   1 Type Ga  : 24s19p10d2f1g contracted to 11s7p4d2f1g pattern {114111111111/9241111/7111/11/1}

Atom   0Ga   basis set group =>   1


           ************************************************************
           *        Program running with 24 parallel MPI-processes    *
           *              working on a common directory               *
           ************************************************************
------------------------------------------------------------------------------
                           ORCA GTO INTEGRAL CALCULATION
------------------------------------------------------------------------------

                         BASIS SET STATISTICS AND STARTUP INFO

 # of primitive gaussian shells          ...   56
 # of primitive gaussian functions       ...  154
 # of contracted shells                  ...   25
 # of contracted basis functions         ...   75
 Highest angular momentum                ...    4
 Maximum contraction depth               ...   11
 Integral package used                   ... LIBINT
 Integral threshhold            Thresh   ...  2.500e-11
 Primitive cut-off              TCut     ...  2.500e-12


------------------------------ INTEGRAL EVALUATION ----------------------------


 * One electron integrals 
 Pre-screening matrix                    ... done
 Shell pair data                         ... done (   0.000 sec)



           ************************************************************
           *        Program running with 24 parallel MPI-processes    *
           *              working on a common directory               *
           ************************************************************
-------------------------------------------------------------------------------
                                 ORCA SCF
-------------------------------------------------------------------------------

------------
SCF SETTINGS
------------
Hamiltonian:
 Ab initio Hamiltonian  Method          .... Hartree-Fock(GTOs)


General Settings:
 Integral files         IntName         .... 31_Ga
 Hartree-Fock type      HFTyp           .... UHF
 Total Charge           Charge          ....    0
 Multiplicity           Mult            ....    2
 Number of Electrons    NEL             ....   31
 Basis Dimension        Dim             ....   75
 Nuclear Repulsion      ENuc            ....      0.0000000000 Eh

Convergence Acceleration:
 DIIS                   CNVDIIS         .... on
   Start iteration      DIISMaxIt       ....    12
   Startup error        DIISStart       ....  0.200000
   # of expansion vecs  DIISMaxEq       ....     5
   Bias factor          DIISBfac        ....   1.050
   Max. coefficient     DIISMaxC        ....  10.000
 Newton-Raphson         CNVNR           .... off
 SOSCF                  CNVSOSCF        .... off
 Level Shifting         CNVShift        .... on
   Level shift para.    LevelShift      ....    0.2500
   Turn off err/grad.   ShiftErr        ....    0.0010
 Zerner damping         CNVZerner       .... off
 Static damping         CNVDamp         .... on
   Fraction old density DampFac         ....    0.7000
   Max. Damping (<1)    DampMax         ....    0.9800
   Min. Damping (>=0)   DampMin         ....    0.0000
   Turn off err/grad.   DampErr         ....    0.1000
 Fernandez-Rico         CNVRico         .... off

SCF Procedure:
 Maximum # iterations   MaxIter         ....   125
 SCF integral mode      SCFMode         .... Direct
   Integral package                     .... LIBINT
 Reset frequency        DirectResetFreq ....    20
 Integral Threshold     Thresh          ....  2.500e-11 Eh
 Primitive CutOff       TCut            ....  2.500e-12 Eh

Convergence Tolerance:
 Convergence Check Mode ConvCheckMode   .... Total+1el-Energy
 Convergence forced     ConvForced      .... 1
 Energy Change          TolE            ....  1.000e-08 Eh
 1-El. energy change                    ....  1.000e-05 Eh
 DIIS Error             TolErr          ....  5.000e-07


Diagonalization of the overlap matrix:
Smallest eigenvalue                        ... 1.070e-03
Time for diagonalization                   ...    0.002 sec
Threshold for overlap eigenvalues          ... 1.000e-08
Number of eigenvalues below threshold      ... 0
Time for construction of square roots      ...    0.011 sec
Total time needed                          ...    0.013 sec

-------------------
DFT GRID GENERATION
-------------------

General Integration Accuracy     IntAcc      ...  4.340
Radial Grid Type                 RadialGrid  ... Gauss-Chebyshev
Angular Grid (max. acc.)         AngularGrid ... Lebedev-110
Angular grid pruning method      GridPruning ... 3 (G Style)
Weight generation scheme         WeightScheme... Becke
Basis function cutoff            BFCut       ...    1.0000e-11
Integration weight cutoff        WCut        ...    1.0000e-14
Grids for H and He will be reduced by one unit

# of grid points (after initial pruning)     ...   2972 (   0.0 sec)
# of grid points (after weights+screening)   ...   2972 (   0.0 sec)
Grid point division into batches done        ...    0.0 sec
Reduced shell lists constructed in    0.0 sec

Total number of grid points                  ...     2972
Total number of batches                      ...       47
Average number of points per batch           ...       63
Average number of grid points per atom       ...     2972
Average number of shells per batch           ...     7.33 (29.33%)
Average number of basis functions per batch  ...    30.00 (40.00%)
Average number of large shells per batch     ...     5.33 (72.73%)
Average number of large basis fcns per batch ...    17.33 (57.78%)
Maximum spatial batch extension              ...  17.39, 26.34, 26.34 au
Average spatial batch extension              ...   0.74,  1.12,  1.12 au

Time for grid setup =    0.064 sec

------------------------------
INITIAL GUESS: MODEL POTENTIAL
------------------------------
Loading Hartree-Fock densities                     ... done
Calculating cut-offs                               ... done
Setting up the integral package                    ... done
Initializing the effective Hamiltonian             ... done
Starting the Coulomb interaction                   ... done (   0.0 sec)
Reading the grid                                   ... done
Mapping shells                                     ... done
Starting the XC term evaluation                    ... done (   0.0 sec)
Transforming the Hamiltonian                       ... done (   0.0 sec)
Diagonalizing the Hamiltonian                      ... done (   0.0 sec)
Back transforming the eigenvectors                 ... done (   0.0 sec)
Now organizing SCF variables                       ... done
                      ------------------
                      INITIAL GUESS DONE (   0.2 sec)
                      ------------------
--------------
SCF ITERATIONS
--------------
ITER       Energy         Delta-E        Max-DP      RMS-DP      [F,P]     Damp
               ***  Starting incremental Fock matrix formation  ***
  0  -1923.1891503773   0.000000000000 0.01480587  0.00062718  0.7169605 0.7000
  1  -1923.2144197069  -0.025269329554 0.01137452  0.00042363  0.5017438 0.7000
  2  -1923.2289659907  -0.014546283802 0.01140993  0.00032142  0.3517209 0.7000
  3  -1923.2387828873  -0.009816896579 0.01019249  0.00026447  0.2469707 0.7000
                               ***Turning on DIIS***
  4  -1923.2457855140  -0.007002626696 0.00858502  0.00021680  0.1736208 0.7000
  5  -1923.1758822312   0.069903282757 0.00818940  0.00020398  0.1221534 0.7000
  6  -1923.2458426829  -0.069960451696 0.02266441  0.00055406  0.0857826 0.0000
  7  -1923.2640752357  -0.018232552849 0.00238003  0.00006729  0.0022395 0.0000
  8  -1923.2638153411   0.000259894665 0.00153004  0.00004139  0.0010518 0.0000
  9  -1923.2621862554   0.001629085714 0.00161794  0.00003550  0.0004537 0.0000
 10  -1923.2648771344  -0.002690879053 0.00075854  0.00001358  0.0001522 0.0000
 11  -1923.2633018630   0.001575271376 0.00043240  0.00000666  0.0000717 0.0000
 12  -1923.2634740536  -0.000172190523 0.00008298  0.00000155  0.0000157 0.0000
 13  -1923.2635334997  -0.000059446101 0.00002830  0.00000048  0.0000032 0.0000
                            ***DIIS convergence achieved***

               *****************************************************
               *                     SUCCESS                       *
               *           SCF CONVERGED AFTER  14 CYCLES          *
               *****************************************************


----------------
TOTAL SCF ENERGY
----------------

Total Energy       :        -1923.26356680 Eh          -52334.66230 eV

Components:
Nuclear Repulsion  :            0.00000000 Eh               0.00000 eV
Electronic Energy  :        -1923.26356680 Eh          -52334.66230 eV
One Electron Energy:        -2684.94228359 Eh          -73060.99389 eV
Two Electron Energy:          761.67871679 Eh           20726.33159 eV

Virial components:
Potential Energy   :        -3846.52237239 Eh         -104669.19503 eV
Kinetic Energy     :         1923.25880559 Eh           52334.53274 eV
Virial Ratio       :            2.00000248


---------------
SCF CONVERGENCE
---------------

  Last Energy change         ...   -3.3297e-05  Tolerance :   1.0000e-08
  Last MAX-Density change    ...    5.5182e-06  Tolerance :   1.0000e-07
  Last RMS-Density change    ...    1.2867e-07  Tolerance :   5.0000e-09
  Last DIIS Error            ...    6.2174e-07  Tolerance :   5.0000e-07

             **** THE GBW FILE WAS UPDATED (31_Ga.gbw) ****
             **** DENSITY FILE WAS UPDATED (31_Ga.scfp) ****
             **** ENERGY FILE WAS UPDATED (31_Ga.en.tmp) ****
----------------------
UHF SPIN CONTAMINATION
----------------------

Expectation value of <S**2>     :     0.762996
Ideal value S*(S+1) for S=0.5   :     0.750000
Deviation                       :     0.012996

             **** THE GBW FILE WAS UPDATED (31_Ga.gbw) ****
             **** DENSITY FILE WAS UPDATED (31_Ga.scfp) ****
----------------
ORBITAL ENERGIES
----------------
                 SPIN UP ORBITALS
  NO   OCC          E(Eh)            E(eV) 
   0   1.0000    -378.817790    -10308.1561 
   1   1.0000     -48.167067     -1310.6925 
   2   1.0000     -42.493265     -1156.3005 
   3   1.0000     -42.493142     -1156.2972 
   4   1.0000     -42.493142     -1156.2972 
   5   1.0000      -6.393760      -173.9831 
   6   1.0000      -4.482197      -121.9668 
   7   1.0000      -4.482197      -121.9668 
   8   1.0000      -4.481950      -121.9601 
   9   1.0000      -1.196095       -32.5474 
  10   1.0000      -1.196095       -32.5474 
  11   1.0000      -1.190383       -32.3920 
  12   1.0000      -1.190383       -32.3920 
  13   1.0000      -1.188630       -32.3443 
  14   1.0000      -0.456069       -12.4103 
  15   1.0000      -0.215594        -5.8666 
  16   0.0000       0.020146         0.5482 
  17   0.0000       0.020146         0.5482 
  18   0.0000       0.138777         3.7763 
  19   0.0000       0.170020         4.6265 
  20   0.0000       0.194030         5.2798 
  21   0.0000       0.194030         5.2798 
  22   0.0000       0.272382         7.4119 
  23   0.0000       0.275260         7.4902 
  24   0.0000       0.275260         7.4902 
  25   0.0000       0.287284         7.8174 
  26   0.0000       0.287284         7.8174 
  27   0.0000       0.673694        18.3321 
  28   0.0000       0.673694        18.3321 
  29   0.0000       0.678538        18.4639 
  30   0.0000       0.678538        18.4639 
  31   0.0000       0.681116        18.5341 
  32   0.0000       0.681116        18.5341 
  33   0.0000       0.681930        18.5563 
  34   0.0000       0.792658        21.5693 
  35   0.0000       0.894983        24.3537 
  36   0.0000       0.898442        24.4478 
  37   0.0000       0.898442        24.4478 
  38   0.0000       0.979752        26.6604 
  39   0.0000       0.979752        26.6604 
  40   0.0000       0.980663        26.6852 
  41   0.0000       0.980663        26.6852 
  42   0.0000       0.981075        26.6964 
  43   0.0000       1.934693        52.6457 
  44   0.0000       1.934693        52.6457 
  45   0.0000       1.942410        52.8556 
  46   0.0000       1.942410        52.8556 
  47   0.0000       1.944693        52.9178 
  48   0.0000       1.944693        52.9178 
  49   0.0000       1.950753        53.0827 
  50   0.0000       1.950753        53.0827 
  51   0.0000       1.952470        53.1294 
  52   0.0000       1.952470        53.1294 
  53   0.0000       1.952781        53.1379 
  54   0.0000       1.959700        53.3261 
  55   0.0000       1.959700        53.3261 
  56   0.0000       1.964050        53.4445 
  57   0.0000       1.964050        53.4445 
  58   0.0000       1.965502        53.4840 
  59   0.0000       3.054676        83.1220 
  60   0.0000       3.054676        83.1220 
  61   0.0000       3.065378        83.4132 
  62   0.0000       3.065378        83.4132 
  63   0.0000       3.068971        83.5109 
  64   0.0000       4.029309       109.6431 
  65   0.0000       6.566299       178.6781 
  66   0.0000       6.566299       178.6781 
  67   0.0000       6.571250       178.8128 
  68   0.0000      16.241345       441.9495 
  69   0.0000      55.268399      1503.9296 
  70   0.0000     180.494269      4911.4987 
  71   0.0000     180.494269      4911.4987 
  72   0.0000     180.498513      4911.6142 
  73   0.0000     185.239900      5040.6339 
  74   0.0000    1133.919529     30855.5191 

                 SPIN DOWN ORBITALS
  NO   OCC          E(Eh)            E(eV) 
   0   1.0000    -378.816667    -10308.1256 
   1   1.0000     -48.167381     -1310.7011 
   2   1.0000     -42.493418     -1156.3047 
   3   1.0000     -42.493418     -1156.3047 
   4   1.0000     -42.490686     -1156.2304 
   5   1.0000      -6.392793      -173.9567 
   6   1.0000      -4.483465      -122.0013 
   7   1.0000      -4.483465      -122.0013 
   8   1.0000      -4.473009      -121.7168 
   9   1.0000      -1.197123       -32.5754 
  10   1.0000      -1.197123       -32.5754 
  11   1.0000      -1.188985       -32.3539 
  12   1.0000      -1.188985       -32.3539 
  13   1.0000      -1.186458       -32.2852 
  14   1.0000      -0.394126       -10.7247 
  15   0.0000       0.028720         0.7815 
  16   0.0000       0.028720         0.7815 
  17   0.0000       0.059748         1.6258 
  18   0.0000       0.150375         4.0919 
  19   0.0000       0.198385         5.3983 
  20   0.0000       0.198385         5.3983 
  21   0.0000       0.228127         6.2077 
  22   0.0000       0.290302         7.8995 
  23   0.0000       0.290302         7.8995 
  24   0.0000       0.313482         8.5303 
  25   0.0000       0.313482         8.5303 
  26   0.0000       0.322409         8.7732 
  27   0.0000       0.674872        18.3642 
  28   0.0000       0.674872        18.3642 
  29   0.0000       0.695419        18.9233 
  30   0.0000       0.695419        18.9233 
  31   0.0000       0.708313        19.2742 
  32   0.0000       0.708313        19.2742 
  33   0.0000       0.712828        19.3970 
  34   0.0000       0.805019        21.9057 
  35   0.0000       0.902216        24.5505 
  36   0.0000       0.902216        24.5505 
  37   0.0000       0.934753        25.4359 
  38   0.0000       0.981243        26.7010 
  39   0.0000       0.981243        26.7010 
  40   0.0000       1.008023        27.4297 
  41   0.0000       1.008023        27.4297 
  42   0.0000       1.017796        27.6956 
  43   0.0000       1.935030        52.6548 
  44   0.0000       1.935030        52.6548 
  45   0.0000       1.942344        52.8539 
  46   0.0000       1.942344        52.8539 
  47   0.0000       1.956232        53.2318 
  48   0.0000       1.956232        53.2318 
  49   0.0000       1.961683        53.3801 
  50   0.0000       1.961683        53.3801 
  51   0.0000       1.969411        53.5904 
  52   0.0000       1.969411        53.5904 
  53   0.0000       1.973900        53.7125 
  54   0.0000       1.975905        53.7671 
  55   0.0000       1.975905        53.7671 
  56   0.0000       1.984618        54.0042 
  57   0.0000       1.984618        54.0042 
  58   0.0000       1.987555        54.0841 
  59   0.0000       3.055026        83.1315 
  60   0.0000       3.055026        83.1315 
  61   0.0000       3.073793        83.6422 
  62   0.0000       3.073793        83.6422 
  63   0.0000       3.080236        83.8175 
  64   0.0000       4.033980       109.7702 
  65   0.0000       6.566572       178.6855 
  66   0.0000       6.566572       178.6855 
  67   0.0000       6.583072       179.1345 
  68   0.0000      16.242678       441.9857 
  69   0.0000      55.268961      1503.9449 
  70   0.0000     180.494212      4911.4972 
  71   0.0000     180.494212      4911.4972 
  72   0.0000     180.500740      4911.6748 
  73   0.0000     185.240367      5040.6466 
  74   0.0000    1133.919742     30855.5248 

                    ********************************
                    * MULLIKEN POPULATION ANALYSIS *
                    ********************************

--------------------------------------------
MULLIKEN ATOMIC CHARGES AND SPIN POPULATIONS
--------------------------------------------
   0 Ga:   -0.000000    1.000000
Sum of atomic charges         :   -0.0000000
Sum of atomic spin populations:    1.0000000

-----------------------------------------------------
MULLIKEN REDUCED ORBITAL CHARGES AND SPIN POPULATIONS
-----------------------------------------------------
CHARGE
  0 Gas       :     7.993631  s :     7.993631
      pz      :     4.999690  p :    12.999965
      px      :     4.000275
      py      :     4.000000
      dz2     :     2.006358  d :    10.006351
      dxz     :     2.000001
      dyz     :     1.999996
      dx2y2   :     1.999998
      dxy     :     1.999998
      f0      :     0.000034  f :     0.000035
      f+1     :     0.000001
      f-1     :     0.000000
      f+2     :     0.000000
      f-2     :     0.000000
      f+3     :     0.000000
      f-3     :     0.000000
      g0      :     0.000005  g :     0.000018
      g+1     :     0.000004
      g-1     :     0.000004
      g+2     :     0.000002
      g-2     :     0.000002
      g+3     :     0.000000
      g-3     :     0.000000
      g+4     :     0.000000
      g-4     :     0.000000

SPIN
  0 Gas       :    -0.001589  s :    -0.001589
      pz      :     0.999691  p :     0.999968
      px      :     0.000275
      py      :     0.000001
      dz2     :     0.001592  d :     0.001603
      dxz     :     0.000005
      dyz     :     0.000003
      dx2y2   :     0.000002
      dxy     :     0.000002
      f0      :     0.000033  f :     0.000032
      f+1     :    -0.000000
      f-1     :    -0.000000
      f+2     :    -0.000000
      f-2     :    -0.000000
      f+3     :    -0.000000
      f-3     :    -0.000000
      g0      :    -0.000004  g :    -0.000015
      g+1     :    -0.000003
      g-1     :    -0.000003
      g+2     :    -0.000002
      g-2     :    -0.000002
      g+3     :    -0.000000
      g-3     :    -0.000000
      g+4     :    -0.000000
      g-4     :    -0.000000


                     *******************************
                     * LOEWDIN POPULATION ANALYSIS *
                     *******************************

-------------------------------------------
LOEWDIN ATOMIC CHARGES AND SPIN POPULATIONS
-------------------------------------------
   0 Ga:   -0.000000    1.000000

----------------------------------------------------
LOEWDIN REDUCED ORBITAL CHARGES AND SPIN POPULATIONS
----------------------------------------------------
CHARGE
  0 Gas       :     7.993631  s :     7.993631
      pz      :     4.999690  p :    12.999965
      px      :     4.000275
      py      :     4.000000
      dz2     :     2.006358  d :    10.006351
      dxz     :     2.000001
      dyz     :     1.999996
      dx2y2   :     1.999998
      dxy     :     1.999998
      f0      :     0.000034  f :     0.000035
      f+1     :     0.000001
      f-1     :     0.000000
      f+2     :     0.000000
      f-2     :     0.000000
      f+3     :     0.000000
      f-3     :     0.000000
      g0      :     0.000005  g :     0.000018
      g+1     :     0.000004
      g-1     :     0.000004
      g+2     :     0.000002
      g-2     :     0.000002
      g+3     :     0.000000
      g-3     :     0.000000
      g+4     :     0.000000
      g-4     :     0.000000

SPIN
  0 Gas       :    -0.001589  s :    -0.001589
      pz      :     0.999691  p :     0.999968
      px      :     0.000275
      py      :     0.000001
      dz2     :     0.001592  d :     0.001603
      dxz     :     0.000005
      dyz     :     0.000003
      dx2y2   :     0.000002
      dxy     :     0.000002
      f0      :     0.000033  f :     0.000032
      f+1     :    -0.000000
      f-1     :    -0.000000
      f+2     :    -0.000000
      f-2     :    -0.000000
      f+3     :    -0.000000
      f-3     :    -0.000000
      g0      :    -0.000004  g :    -0.000015
      g+1     :    -0.000003
      g-1     :    -0.000003
      g+2     :    -0.000002
      g-2     :    -0.000002
      g+3     :    -0.000000
      g-3     :    -0.000000
      g+4     :    -0.000000
      g-4     :    -0.000000


                      *****************************
                      * MAYER POPULATION ANALYSIS *
                      *****************************

  NA   - Mulliken gross atomic population
  ZA   - Total nuclear charge
  QA   - Mulliken gross atomic charge
  VA   - Mayer's total valence
  BVA  - Mayer's bonded valence
  FA   - Mayer's free valence

  ATOM       NA         ZA         QA         VA         BVA        FA
  0 Ga    31.0000    31.0000    -0.0000     1.0260     0.0000     1.0260

  Mayer bond orders larger than 0.100000


-------
TIMINGS
-------

Total SCF time: 0 days 0 hours 0 min 4 sec 

Total time                  ....       4.158 sec
Sum of individual times     ....       3.747 sec  ( 90.1%)

Fock matrix formation       ....       3.086 sec  ( 74.2%)
Diagonalization             ....       0.124 sec  (  3.0%)
Density matrix formation    ....       0.009 sec  (  0.2%)
Population analysis         ....       0.077 sec  (  1.8%)
Initial guess               ....       0.120 sec  (  2.9%)
Orbital Transformation      ....       0.000 sec  (  0.0%)
Orbital Orthonormalization  ....       0.000 sec  (  0.0%)
DIIS solution               ....       0.267 sec  (  6.4%)


           ************************************************************
           *        Program running with 24 parallel MPI-processes    *
           *              working on a common directory               *
           ************************************************************


------------------------------------------------------------------------------- 
                              ORCA-MATRIX DRIVEN CI                            
------------------------------------------------------------------------------- 

--------------------------------
AUTOMATIC CHOICE OF INCORE LEVEL
--------------------------------

Memory available                           ...   2500.00 MB
Memory needed for S+T                      ...      2.23 MB
Memory needed for J+K                      ...      4.49 MB
Memory needed for DIIS                     ...     31.23 MB
Memory needed for 3-ext                    ...     10.97 MB
Memory needed for 4-ext                    ...     47.01 MB
Memory needed for triples                  ...      7.83 MB
 -> Final InCoreLevel    ... 5
 -> check shows that triples correction can be computed


Wavefunction type
-----------------
Correlation treatment                      ...      CCSD     
Single excitations                         ... ON
Orbital optimization                       ... OFF
Calculation of Z vector                    ... OFF
Calculation of Brueckner orbitals          ... OFF
Perturbative triple excitations            ... ON
Calculation of F12 correction              ... OFF
Frozen core treatment                      ... chemical core (18 el)
Reference Wavefunction                     ... UHF
  Alpha-MOs occ    :     9 ...   15 (  7 MO's/  7 electrons)
  Beta-MOs occ     :     9 ...   14 (  6 MO's/  6 electrons)
  Alpha-MOs virt   :    16 ...   74 ( 59 MO's              )
  Beta-MOs virt    :    15 ...   74 ( 60 MO's              )
Number of AO's                             ...     75
Number of electrons                        ...     31
Number of correlated electrons             ...     13

Algorithmic settings
--------------------
Integral transformation                    ... AO direct full transformation
K(C) Formation                             ... FULL-MO TRAFO
Maximum number of iterations               ...        50
Convergence tolerance (max. residuum)      ... 1.000e-05
Level shift for amplitude update           ... 2.000e-01
Maximum number of DIIS vectors             ...         7
DIIS turned on at iteration                ...         0
Damping before turning on DIIS             ...     0.500
Damping after turning on DIIS              ...     0.000
Pair specific amplitude update             ... OFF
Natural orbital iterations                 ... OFF
Perturbative natural orbital generation    ... OFF
Printlevel                                 ... 2

Memory handling:
----------------
Maximum memory for working arrays          ...   2500 MB
Data storage in matrix containers          ... UNCOMPRESSED
Data type for integral storage             ... DOUBLE
In-Core Storage of quantities:
   Amplitudes+Sigma Vector      ... YES
   J+K operators                ... YES
   DIIS vectors                 ... YES
   3-external integrals         ... YES
   4-external integrals         ... YES


Initializing the integral package          ... done
Warning: reference  - re-canonicalizations have been set to INT 1 VIRT 1

--------------------------
UNRESTRICTED FOCK OPERATOR
--------------------------

<ss|ss>:         2211 b            0 skpd (  0.0%)    0.001 s ( 0.001 ms/b)
<ss|sp>:         5082 b            0 skpd (  0.0%)    0.003 s ( 0.001 ms/b)
<ss|sd>:         2904 b            0 skpd (  0.0%)    0.003 s ( 0.001 ms/b)
<ss|sf>:         1452 b            0 skpd (  0.0%)    0.001 s ( 0.000 ms/b)
<ss|sg>:          726 b            0 skpd (  0.0%)    0.001 s ( 0.001 ms/b)
<ss|pp>:         1848 b            0 skpd (  0.0%)    0.004 s ( 0.002 ms/b)
<ss|pd>:         1848 b            0 skpd (  0.0%)    0.003 s ( 0.002 ms/b)
<ss|pf>:          924 b            0 skpd (  0.0%)    0.001 s ( 0.001 ms/b)
<ss|pg>:          462 b            0 skpd (  0.0%)    0.002 s ( 0.003 ms/b)
<ss|dd>:          660 b            0 skpd (  0.0%)    0.003 s ( 0.005 ms/b)
<ss|df>:          528 b            0 skpd (  0.0%)    0.001 s ( 0.002 ms/b)
<ss|dg>:          264 b            0 skpd (  0.0%)    0.001 s ( 0.004 ms/b)
<ss|ff>:          198 b            0 skpd (  0.0%)    0.000 s ( 0.002 ms/b)
<ss|fg>:          132 b            0 skpd (  0.0%)    0.000 s ( 0.003 ms/b)
<ss|gg>:           66 b            0 skpd (  0.0%)    0.001 s ( 0.009 ms/b)
<sp|sp>:         3003 b            0 skpd (  0.0%)    0.004 s ( 0.001 ms/b)
<sp|sd>:         3388 b            0 skpd (  0.0%)    0.005 s ( 0.001 ms/b)
<sp|sf>:         1694 b            7 skpd (  0.4%)    0.001 s ( 0.001 ms/b)
<sp|sg>:          847 b           17 skpd (  2.0%)    0.002 s ( 0.003 ms/b)
<sp|pp>:         2156 b            0 skpd (  0.0%)    0.006 s ( 0.003 ms/b)
<sp|pd>:         2156 b            0 skpd (  0.0%)    0.007 s ( 0.003 ms/b)
<sp|pf>:         1078 b            2 skpd (  0.2%)    0.003 s ( 0.002 ms/b)
<sp|pg>:          539 b            3 skpd (  0.6%)    0.002 s ( 0.005 ms/b)
<sp|dd>:          770 b            0 skpd (  0.0%)    0.009 s ( 0.011 ms/b)
<sp|df>:          616 b            0 skpd (  0.0%)    0.003 s ( 0.006 ms/b)
<sp|dg>:          308 b            0 skpd (  0.0%)    0.003 s ( 0.010 ms/b)
<sp|ff>:          231 b            0 skpd (  0.0%)    0.001 s ( 0.004 ms/b)
<sp|fg>:          154 b            0 skpd (  0.0%)    0.001 s ( 0.008 ms/b)
<sp|gg>:           77 b            0 skpd (  0.0%)    0.002 s ( 0.022 ms/b)
<sd|sd>:          990 b            3 skpd (  0.3%)    0.003 s ( 0.003 ms/b)
<sd|sf>:          968 b           31 skpd (  3.2%)    0.002 s ( 0.002 ms/b)
<sd|sg>:          484 b           31 skpd (  6.4%)    0.001 s ( 0.003 ms/b)
<sd|pp>:         1232 b            0 skpd (  0.0%)    0.007 s ( 0.006 ms/b)
<sd|pd>:         1232 b            7 skpd (  0.6%)    0.008 s ( 0.006 ms/b)
<sd|pf>:          616 b           29 skpd (  4.7%)    0.002 s ( 0.003 ms/b)
<sd|pg>:          308 b           18 skpd (  5.8%)    0.003 s ( 0.009 ms/b)
<sd|dd>:          440 b            0 skpd (  0.0%)    0.011 s ( 0.024 ms/b)
<sd|df>:          352 b            0 skpd (  0.0%)    0.003 s ( 0.009 ms/b)
<sd|dg>:          176 b            0 skpd (  0.0%)    0.005 s ( 0.026 ms/b)
<sd|ff>:          132 b            0 skpd (  0.0%)    0.001 s ( 0.009 ms/b)
<sd|fg>:           88 b            0 skpd (  0.0%)    0.002 s ( 0.019 ms/b)
<sd|gg>:           44 b            0 skpd (  0.0%)    0.002 s ( 0.053 ms/b)
<sf|sf>:          253 b           28 skpd ( 11.1%)    0.000 s ( 0.001 ms/b)
<sf|sg>:          242 b           42 skpd ( 17.4%)    0.000 s ( 0.001 ms/b)
<sf|pp>:          616 b            5 skpd (  0.8%)    0.003 s ( 0.004 ms/b)
<sf|pd>:          616 b           37 skpd (  6.0%)    0.003 s ( 0.006 ms/b)
<sf|pf>:          308 b           52 skpd ( 16.9%)    0.000 s ( 0.002 ms/b)
<sf|pg>:          154 b           27 skpd ( 17.5%)    0.001 s ( 0.005 ms/b)
<sf|dd>:          220 b            0 skpd (  0.0%)    0.005 s ( 0.023 ms/b)
<sf|df>:          176 b            8 skpd (  4.5%)    0.002 s ( 0.009 ms/b)
<sf|dg>:           88 b            1 skpd (  1.1%)    0.002 s ( 0.022 ms/b)
<sf|ff>:           66 b           11 skpd ( 16.7%)    0.001 s ( 0.010 ms/b)
<sf|fg>:           44 b            9 skpd ( 20.5%)    0.001 s ( 0.019 ms/b)
<sf|gg>:           22 b            3 skpd ( 13.6%)    0.001 s ( 0.057 ms/b)
<sg|sg>:           66 b           15 skpd ( 22.7%)    0.000 s ( 0.003 ms/b)
<sg|pp>:          308 b            8 skpd (  2.6%)    0.002 s ( 0.008 ms/b)
<sg|pd>:          308 b           36 skpd ( 11.7%)    0.003 s ( 0.013 ms/b)
<sg|pf>:          154 b           37 skpd ( 24.0%)    0.000 s ( 0.002 ms/b)
<sg|pg>:           77 b           29 skpd ( 37.7%)    0.000 s ( 0.008 ms/b)
<sg|dd>:          110 b            1 skpd (  0.9%)    0.005 s ( 0.045 ms/b)
<sg|df>:           88 b            6 skpd (  6.8%)    0.001 s ( 0.011 ms/b)
<sg|dg>:           44 b            4 skpd (  9.1%)    0.001 s ( 0.027 ms/b)
<sg|ff>:           33 b            8 skpd ( 24.2%)    0.000 s ( 0.012 ms/b)
<sg|fg>:           22 b            6 skpd ( 27.3%)    0.001 s ( 0.032 ms/b)
<sg|gg>:           11 b            3 skpd ( 27.3%)    0.001 s ( 0.079 ms/b)
<pp|pp>:          406 b            0 skpd (  0.0%)    0.005 s ( 0.013 ms/b)
<pp|pd>:          784 b            0 skpd (  0.0%)    0.008 s ( 0.010 ms/b)
<pp|pf>:          392 b            0 skpd (  0.0%)    0.002 s ( 0.005 ms/b)
<pp|pg>:          196 b            0 skpd (  0.0%)    0.003 s ( 0.017 ms/b)
<pp|dd>:          280 b            0 skpd (  0.0%)    0.011 s ( 0.039 ms/b)
<pp|df>:          224 b            0 skpd (  0.0%)    0.003 s ( 0.014 ms/b)
<pp|dg>:          112 b            0 skpd (  0.0%)    0.005 s ( 0.043 ms/b)
<pp|ff>:           84 b            0 skpd (  0.0%)    0.001 s ( 0.014 ms/b)
<pp|fg>:           56 b            0 skpd (  0.0%)    0.002 s ( 0.031 ms/b)
<pp|gg>:           28 b            0 skpd (  0.0%)    0.002 s ( 0.085 ms/b)
<pd|pd>:          406 b            0 skpd (  0.0%)    0.011 s ( 0.028 ms/b)
<pd|pf>:          392 b            1 skpd (  0.3%)    0.004 s ( 0.009 ms/b)
<pd|pg>:          196 b            1 skpd (  0.5%)    0.007 s ( 0.034 ms/b)
<pd|dd>:          280 b            0 skpd (  0.0%)    0.020 s ( 0.073 ms/b)
<pd|df>:          224 b            0 skpd (  0.0%)    0.006 s ( 0.027 ms/b)
<pd|dg>:          112 b            0 skpd (  0.0%)    0.010 s ( 0.085 ms/b)
<pd|ff>:           84 b            0 skpd (  0.0%)    0.002 s ( 0.028 ms/b)
<pd|fg>:           56 b            0 skpd (  0.0%)    0.003 s ( 0.061 ms/b)
<pd|gg>:           28 b            0 skpd (  0.0%)    0.005 s ( 0.171 ms/b)
<pf|pf>:          105 b            2 skpd (  1.9%)    0.001 s ( 0.008 ms/b)
<pf|pg>:           98 b            2 skpd (  2.0%)    0.003 s ( 0.030 ms/b)
<pf|dd>:          140 b            0 skpd (  0.0%)    0.008 s ( 0.058 ms/b)
<pf|df>:          112 b            1 skpd (  0.9%)    0.003 s ( 0.025 ms/b)
<pf|dg>:           56 b            0 skpd (  0.0%)    0.004 s ( 0.076 ms/b)
<pf|ff>:           42 b            0 skpd (  0.0%)    0.002 s ( 0.038 ms/b)
<pf|fg>:           28 b            0 skpd (  0.0%)    0.002 s ( 0.072 ms/b)
<pf|gg>:           14 b            0 skpd (  0.0%)    0.003 s ( 0.186 ms/b)
<pg|pg>:           28 b            1 skpd (  3.6%)    0.002 s ( 0.057 ms/b)
<pg|dd>:           70 b            0 skpd (  0.0%)    0.008 s ( 0.120 ms/b)
<pg|df>:           56 b            0 skpd (  0.0%)    0.002 s ( 0.044 ms/b)
<pg|dg>:           28 b            0 skpd (  0.0%)    0.004 s ( 0.149 ms/b)
<pg|ff>:           21 b            0 skpd (  0.0%)    0.001 s ( 0.047 ms/b)
<pg|fg>:           14 b            0 skpd (  0.0%)    0.002 s ( 0.122 ms/b)
<pg|gg>:            7 b            0 skpd (  0.0%)    0.002 s ( 0.307 ms/b)
<dd|dd>:           55 b            0 skpd (  0.0%)    0.016 s ( 0.295 ms/b)
<dd|df>:           80 b            0 skpd (  0.0%)    0.005 s ( 0.061 ms/b)
<dd|dg>:           40 b            0 skpd (  0.0%)    0.008 s ( 0.199 ms/b)
<dd|ff>:           30 b            0 skpd (  0.0%)    0.002 s ( 0.059 ms/b)
<dd|fg>:           20 b            0 skpd (  0.0%)    0.003 s ( 0.130 ms/b)
<dd|gg>:           10 b            0 skpd (  0.0%)    0.004 s ( 0.372 ms/b)
<df|df>:           36 b            0 skpd (  0.0%)    0.002 s ( 0.049 ms/b)
<df|dg>:           32 b            0 skpd (  0.0%)    0.005 s ( 0.142 ms/b)
<df|ff>:           24 b            0 skpd (  0.0%)    0.002 s ( 0.070 ms/b)
<df|fg>:           16 b            0 skpd (  0.0%)    0.003 s ( 0.157 ms/b)
<df|gg>:            8 b            0 skpd (  0.0%)    0.003 s ( 0.352 ms/b)
<dg|dg>:           10 b            0 skpd (  0.0%)    0.002 s ( 0.247 ms/b)
<dg|ff>:           12 b            0 skpd (  0.0%)    0.001 s ( 0.085 ms/b)
<dg|fg>:            8 b            0 skpd (  0.0%)    0.002 s ( 0.211 ms/b)
<dg|gg>:            4 b            0 skpd (  0.0%)    0.002 s ( 0.551 ms/b)
<ff|ff>:            6 b            0 skpd (  0.0%)    0.001 s ( 0.092 ms/b)
<ff|fg>:            6 b            0 skpd (  0.0%)    0.001 s ( 0.167 ms/b)
<ff|gg>:            3 b            0 skpd (  0.0%)    0.002 s ( 0.594 ms/b)
<fg|fg>:            3 b            0 skpd (  0.0%)    0.001 s ( 0.323 ms/b)
<fg|gg>:            2 b            0 skpd (  0.0%)    0.001 s ( 0.700 ms/b)
<gg|gg>:            1 b            0 skpd (  0.0%)    0.001 s ( 1.172 ms/b)
Recanonicalizing the internal orbitals
Recanonicalizing the virtual orbitals
Time needed for Fock operator              ...            0.437 sec
Reference energy                           ...  -1923.263575402
Warning: for UHF the TrafoType has to be JK
Warning: for UHF the K(C)-option cannot be MO but must be AOX

-------------------------------
PARTIAL EXCHANGE TRANSFORMATION
-------------------------------

Transformation type                        ... two-operators
Generation of integrals (i,mue|j,nue)      ... ON
Generation of integrals (mue,kappa|nue,tau)... ON
Generation of integrals (i,mue|a,nue)      ... ON
Dimension of the basis                     ...   75
Number of internal alpha-MOs               ...    7 (   9-  15)
Number of internal beta-MOs                ...    6 (   9-  14)
Number of external alpha-MOs               ...   59 (  16-  74)
Number of external beta-MOs                ...   60 (  15-  74)
Pair cutoff                                ... 0.000e+00 Eh
Number of AO pairs in the trafo            ... 2850
Total Number of distinct AO pairs          ... 2850
Memory devoted for trafo                   ... 2500.0 MB 
Max. Number of MO pairs treated together   ... 58254      
Number Format for Storage                  ... Double (8 Byte)
Integral package used                      ... LIBINT

Starting integral evaluation:
    ... done with AO integral generation
Closing buffer AOK[aa] ( 0.00 GB; CompressionRatio= 0.97)
Closing buffer AOK[bb] ( 0.00 GB; CompressionRatio= 0.96)
Closing buffer AOK[ab] ( 0.00 GB; CompressionRatio= 0.97)
Closing buffer AOK[ba] ( 0.00 GB; CompressionRatio= 0.97)
Collecting buffer AOK 
Closing buffer IAAO1[aa] ( 0.00 GB; CompressionRatio= 1.00)
Closing buffer IAAO1[bb] ( 0.00 GB; CompressionRatio= 1.00)
Closing buffer IAAO1[ab] ( 0.00 GB; CompressionRatio= 1.00)
Closing buffer IAAO1[ba] ( 0.00 GB; CompressionRatio= 1.00)
Closing buffer IAAO2[aa] ( 0.00 GB; CompressionRatio= 1.00)
Closing buffer IAAO2[bb] ( 0.00 GB; CompressionRatio= 1.00)
Closing buffer IAAO2[ab] ( 0.00 GB; CompressionRatio= 1.00)
Closing buffer IAAO2[ba] ( 0.00 GB; CompressionRatio= 1.00)
Collecting buffer IAAO 
Closing buffer PRQS    ( 0.00 GB; CompressionRatio= 1.00)
Collecting buffer PRQS 
Number of alpha/alpha MO pairs in trafo    ...   28
Number of beta /beta  MO pairs in trafo    ...   21
Number of alpha/ beta MO pairs in trafo    ...   42
------------------------
SORTING OF (i,mue|j,nue)
------------------------

SORTING OF ALPHA/ALPHA PAIRS
IBATCH = 1 of  1
Closing buffer KAO[aa] ( 0.00 GB; CompressionRatio= 1.00)
Collecting buffer KAO 
SORTING OF BETA /BETA  PAIRS
IBATCH = 1 of  1
Closing buffer KAO[bb] ( 0.00 GB; CompressionRatio= 1.00)
Collecting buffer KAO 
SORTING OF ALPHA/BETA  PAIRS
IBATCH = 1 of  1
Closing buffer KAO[ab] ( 0.00 GB; CompressionRatio= 0.999733404425)
Collecting buffer KAO[ab] 
------------------------
SORTING OF (i,mue|a,nue)
------------------------

Number of alpha/alpha (i,a) pairs in trafo  ...  413
Number of beta /beta  (i,a) pairs in trafo  ...  360
Number of alpha/ beta (i,a) pairs in trafo  ...  420
Number of beta /alpha (i,a) pairs in trafo  ...  354
Setting up the alpha/alpha list             ... done
Setting up the beta /beta  list             ... done
Setting up the alpha/beta  list             ... done
Setting up the beta /alpha list             ... done
    ... Now sorting (i,mue|a,nue)integrals
    ... Integrals (i,b|a,c) will be made on the fly
SORTING OF ALPHA/ALPHA PAIRS
IBATCH = 1 of  1
Closing buffer IPAQ[aa]  0.00 GB; CompressionRatio= 1.00)
SORTING OF BETA /BETA  PAIRS
IBATCH = 1 of  1
Closing buffer IPAQ[bb]( 0.00 GB; CompressionRatio= 1.00)
SORTING OF ALPHA/BETA  PAIRS (NMatSort_ab=18)
IBATCH = 1 of  1
Closing buffer IPAQ[ab]( 0.00 GB; CompressionRatio= 1.00)
SORTING OF BETA/ALPHA  PAIRS
IBATCH = 1 of  1
Closing buffer IPAQ[ba]( 0.00 GB; CompressionRatio= 1.00)
N(AO-Batches) Done                         ...      1250 
N(AO-Batches) Skipped                      ...         0 
N(IJ)-pairs Skipped                        ...         0 
TOTAL TIME for half transformation         ...     4.823 sec
AO-integral generation                     ...     0.047 sec
Half transformation                        ...     0.378 sec
K-integral sorting                         ...     0.984 sec
<ss|**>: 
------------------------------
PARTIAL COULOMB TRANSFORMATION
------------------------------

Transformation type                        ... two-operators
Dimension of the basis                     ...   75
Number of internal alpha-MOs               ...    7 (9-15)
Number of internal beta-MOs                ...    6 (9-14)
Pair cutoff                                ... 0.000e+00 Eh
Number of AO pairs included in the trafo   ... 2850
Total Number of distinct AO pairs          ... 2850
Memory devoted for trafo                   ... 2500.0 MB 
Max. Number of MO pairs treated together   ... 114975      
Max. Number of MOs treated per batch       ... 1533      
Number Format for Storage                  ... Double (8 Byte)
AO-integral source                         ... DIRECT
Integral package used                      ... LIBINT

Starting integral evaluation:
       21450 b        0 skpd     0.014 s (  0.001 ms/b)
<sp|**>: <sd|**>:        25025 b        0 skpd     0.049 s (  0.002 ms/b)
       14300 b        0 skpd     0.071 s (  0.005 ms/b)
<sf|**>:         7150 b        0 skpd     0.025 s (  0.003 ms/b)
<sg|**>:         3575 b        0 skpd     0.035 s (  0.010 ms/b)
<pp|**>:         9100 b        0 skpd     0.069 s (  0.008 ms/b)
<pd|**>:         9100 b        0 skpd     0.103 s (  0.011 ms/b)
<pf|**>:         4550 b        0 skpd     0.051 s (  0.011 ms/b)
<pg|**>:         2275 b        0 skpd     0.066 s (  0.029 ms/b)
<dd|**>:         3250 b        0 skpd     0.129 s (  0.040 ms/b)
<df|**>:         2600 b        0 skpd     0.072 s (  0.028 ms/b)
<dg|**>:         1300 b        0 skpd     0.111 s (  0.085 ms/b)
<ff|**>:          975 b        0 skpd     0.051 s (  0.052 ms/b)
<fg|**>:          650 b        0 skpd     0.067 s (  0.103 ms/b)
<gg|**>:          325 b        0 skpd     0.058 s (  0.178 ms/b)
Closing buffer AOJ[aa] ( 0.00 GB; CompressionRatio= 0.95)
Closing buffer AOJ[bb] ( 0.00 GB; CompressionRatio= 0.00)
Collecting buffer AOJ 
    ... done with AO integral generation
Number of Alpha-MO pairs included          ...   28
Number of Beta-MO pairs included           ...   21
    ... Now sorting integrals
SORTING ALPHA/ALPHA PAIRS
IBATCH = 1 of  1
Closing buffer JAO[aa] ( 0.00 GB; CompressionRatio= 1.00)
SORTING BETA/BETA PAIRS
IBATCH = 1 of  1
Closing buffer JAO[bb] ( 0.00 GB; CompressionRatio= 1.00)
Collecting buffer JAO 
TOTAL TIME for half transformation         ...     1.163 sec
AO-integral generation                     ...     0.807 sec
Half transformation                        ...     0.164 sec
J-integral sorting                         ...     0.141 sec

-------------------------- SECOND HALF TRANSFORMATION -------------------------
Formation of (ij|kl),(ij|ka), (ij|ab)      ... ok (     0.162 sec)
Formation of (ik|jl),(ik|ja), (ia|jb)      ... ok (     0.261 sec)


-----------------------
SPIN UNRESTRICTED GUESS
-----------------------

Entering MDCI_UHF_Guess, Tailored=0
Spin-components of the MP2 energy:
EMP2(aa)=     -0.039118181
EMP2(bb)=     -0.033443058
EMP2(ab)=     -0.156648566

Initial guess performed in     0.009 sec
E(0)                                       ...  -1923.263575402
E(MP2)                                     ...     -0.229209805
Initial E(tot)                             ...  -1923.492785208
<T|T>                                      ...      0.059830043
Number of pairs included                   ... 78

------------------------------------------------
                  UHF COUPLED CLUSTER ITERATIONS
------------------------------------------------

Number of amplitudes to be optimized       ...       212606

Iter       E(tot)           E(Corr)          Delta-E          Residual     Time      <S|S>**1/2
  0  -1923.492785208     -0.229209805     -0.000000000      0.031019737    0.47      0.000000424
                           *** Turning on DIIS ***
  1  -1923.476353485     -0.212778083      0.016431722      0.006951757    0.46      0.040237834
  2  -1923.485399709     -0.221824307     -0.009046224      0.004430819    0.44      0.042646862
  3  -1923.488255730     -0.224680328     -0.002856021      0.001658397    0.44      0.051652762
  4  -1923.489076178     -0.225500775     -0.000820448      0.000506722    0.44      0.054306783
  5  -1923.489183948     -0.225608546     -0.000107770      0.000199330    0.45      0.055068356
  6  -1923.489204346     -0.225628944     -0.000020398      0.000089241    0.45      0.055231844
  7  -1923.489207642     -0.225632240     -0.000003297      0.000045648    0.45      0.055249826
  8  -1923.489208007     -0.225632605     -0.000000364      0.000019977    0.44      0.055257651
  9  -1923.489208032     -0.225632630     -0.000000025      0.000006318    0.44      0.055263003
               --- The Coupled-Cluster iterations have converged ---

----------------------
COUPLED CLUSTER ENERGY
----------------------

E(0)                                       ...  -1923.263575402
E(CORR)                                    ...     -0.225632630
E(TOT)                                     ...  -1923.489208032
Singles norm <S|S>**1/2                    ...      0.055263003 ( 0.034055051, 0.021207952)  
T1 diagnostic                              ...      0.015327199                              

------------------
LARGEST AMPLITUDES
------------------
  14a-> 17a  14b-> 16b       0.067668
  14a-> 16a  14b-> 15b       0.067668
  14a-> 16a  14b-> 20b       0.052322
  14a-> 17a  14b-> 19b       0.052322
  15a-> 22a  14b-> 17b       0.048999
  14a-> 20a  14b-> 16b       0.046365
  14a-> 21a  14b-> 15b       0.046365
  15a-> 22a  14b-> 21b       0.040484
  14a-> 21a  14b-> 20b       0.039681
  14a-> 20a  14b-> 19b       0.039681
  15a-> 23a  14b-> 16b       0.035940
  15a-> 24a  14b-> 15b       0.035940
  14a-> 22a  -1a-> -1a       0.029945
  15a-> 23a  14b-> 19b       0.029361
  15a-> 24a  14b-> 20b       0.029361
  15a-> 24a  14b-> 16b       0.028555

----------------------
UHF TRIPLES CORRECTION (Algorithm 1)
----------------------

Multiplier for the singles contribution    ...      1.000000000

SPIN-CASE Alpha-Alpha-Alpha:
10% done
20% done
30% done
40% done
50% done
60% done
70% done
80% done
90% done


SPIN-CASE Beta-Beta-Beta:
10% done
20% done
30% done
40% done
50% done
60% done
70% done
80% done
90% done


SPIN-CASE Alpha-Alpha-Beta:
10% done
20% done
30% done
40% done
50% done
60% done
70% done
80% done
90% done


SPIN-CASE Beta-Beta-Alpha:
10% done
20% done
30% done
40% done
50% done
60% done
70% done
80% done
90% done


Triples Correction (T)                     ...     -0.008833720
    alpha-alpha-alpha ... -0.000395556 (  4.5%)
    alpha-alpha-beta  ... -0.004673091 ( 52.9%)
    alpha-beta -beta  ... -0.003488036 ( 39.5%)
    beta -beta -beta  ... -0.000277037 (  3.1%)
Scaling of triples based on CCSD energies (Peterson et al. Molecular Physics 113, 1551 (2015))
E(T*) = f*E(T) where f = E(F12-CCSD)/E(CCSD) 
f = CCSD (with F12)/ CCSD (without F12)    ...      1.000000000
Scaled triples correction (T)              ...     -0.008833720

Final correlation energy                   ...     -0.234466349
E(CCSD)                                    ...  -1923.489208032
E(CCSD(T))                                 ...  -1923.498041752



        !!!!!!!!!!!!!!!!!!!!!!!!!!!!!!!!!!!!!!!!!!!!!!!!!!!!!!!!!!!!!!!!!!!!!!!!!! 
        !  Warning: Densities are linearized densities                           !
        !!!!!!!!!!!!!!!!!!!!!!!!!!!!!!!!!!!!!!!!!!!!!!!!!!!!!!!!!!!!!!!!!!!!!!!!!! 

NORM  =      1.087055565 sqrt=     1.042619569
W(HF) =      0.919916178
------------------------------------------------------------------------------
                           ORCA POPULATION ANALYSIS
------------------------------------------------------------------------------
Input electron density              ... 31_Ga.mdcip
Input spin density                  ... 31_Ga.mdcir
BaseName (.gbw .S,...)              ... 31_Ga

                    ********************************
                    * MULLIKEN POPULATION ANALYSIS *
                    ********************************

------------------------------------------
MULLIKEN ATOMIC CHARGES AND SPIN DENSITIES
------------------------------------------
   0 Ga:   -0.000000    1.000000
Sum of atomic charges       :   -0.0000000
Sum of atomic spin densities:    1.0000000

---------------------------------------------------
MULLIKEN REDUCED ORBITAL CHARGES AND SPIN DENSITIES
---------------------------------------------------
CHARGE
  0 Gas       :     7.915736  s :     7.915736
      pz      :     4.992490  p :    13.066091
      px      :     4.036932
      py      :     4.036670
      dz2     :     2.006530  d :    10.010351
      dxz     :     2.004380
      dyz     :     2.004378
      dx2y2   :     1.997531
      dxy     :     1.997531
      f0      :     0.001164  f :     0.007212
      f+1     :     0.001125
      f-1     :     0.001125
      f+2     :     0.001014
      f-2     :     0.001014
      f+3     :     0.000885
      f-3     :     0.000885
      g0      :     0.000087  g :     0.000610
      g+1     :     0.000084
      g-1     :     0.000084
      g+2     :     0.000075
      g-2     :     0.000075
      g+3     :     0.000061
      g-3     :     0.000061
      g+4     :     0.000041
      g-4     :     0.000041

SPIN
  0 Gas       :     0.016159  s :     0.016159
      pz      :     0.973949  p :     0.970945
      px      :    -0.001368
      py      :    -0.001636
      dz2     :     0.004923  d :     0.012101
      dxz     :     0.003622
      dyz     :     0.003621
      dx2y2   :    -0.000033
      dxy     :    -0.000033
      f0      :     0.000216  f :     0.000774
      f+1     :     0.000185
      f-1     :     0.000184
      f+2     :     0.000099
      f-2     :     0.000099
      f+3     :    -0.000004
      f-3     :    -0.000004
      g0      :     0.000004  g :     0.000022
      g+1     :     0.000004
      g-1     :     0.000004
      g+2     :     0.000003
      g-2     :     0.000003
      g+3     :     0.000002
      g-3     :     0.000002
      g+4     :    -0.000000
      g-4     :    -0.000000


                     *******************************
                     * LOEWDIN POPULATION ANALYSIS *
                     *******************************

-----------------------------------------
LOEWDIN ATOMIC CHARGES AND SPIN DENSITIES
-----------------------------------------
   0 Ga:   -0.000000    1.000000

--------------------------------------------------
LOEWDIN REDUCED ORBITAL CHARGES AND SPIN DENSITIES
--------------------------------------------------
CHARGE
  0 Gas       :     7.915736  s :     7.915736
      pz      :     4.992490  p :    13.066091
      px      :     4.036932
      py      :     4.036670
      dz2     :     2.006530  d :    10.010351
      dxz     :     2.004380
      dyz     :     2.004378
      dx2y2   :     1.997531
      dxy     :     1.997531
      f0      :     0.001164  f :     0.007212
      f+1     :     0.001125
      f-1     :     0.001125
      f+2     :     0.001014
      f-2     :     0.001014
      f+3     :     0.000885
      f-3     :     0.000885
      g0      :     0.000087  g :     0.000610
      g+1     :     0.000084
      g-1     :     0.000084
      g+2     :     0.000075
      g-2     :     0.000075
      g+3     :     0.000061
      g-3     :     0.000061
      g+4     :     0.000041
      g-4     :     0.000041

SPIN
  0 Gas       :     0.016159  s :     0.016159
      pz      :     0.973949  p :     0.970945
      px      :    -0.001368
      py      :    -0.001636
      dz2     :     0.004923  d :     0.012101
      dxz     :     0.003622
      dyz     :     0.003621
      dx2y2   :    -0.000033
      dxy     :    -0.000033
      f0      :     0.000216  f :     0.000774
      f+1     :     0.000185
      f-1     :     0.000184
      f+2     :     0.000099
      f-2     :     0.000099
      f+3     :    -0.000004
      f-3     :    -0.000004
      g0      :     0.000004  g :     0.000022
      g+1     :     0.000004
      g-1     :     0.000004
      g+2     :     0.000003
      g-2     :     0.000003
      g+3     :     0.000002
      g-3     :     0.000002
      g+4     :    -0.000000
      g-4     :    -0.000000


                      *****************************
                      * MAYER POPULATION ANALYSIS *
                      *****************************

  NA   - Mulliken gross atomic population
  ZA   - Total nuclear charge
  QA   - Mulliken gross atomic charge
  VA   - Mayer's total valence
  BVA  - Mayer's bonded valence
  FA   - Mayer's free valence

  ATOM       NA         ZA         QA         VA         BVA        FA
  0 Ga    31.0000    31.0000    -0.0000     1.5888     0.0000     1.5888





------------------------------------------------------------------------------- 
                                     TIMINGS                                   
------------------------------------------------------------------------------- 


Total execution time                   ...       12.097 sec

Fock Matrix Formation                  ...        0.437 sec (  3.6%)
Initial Guess                          ...        0.009 sec (  0.1%)
DIIS Solver                            ...        0.173 sec (  1.4%)
State Vector Update                    ...        0.008 sec (  0.1%)
Sigma-vector construction              ...        4.305 sec ( 35.6%)
  <D|H|D>(0-ext Fock)                  ...        0.003 sec (  0.1% of sigma)
  <D|H|D>(0-ext)                       ...        0.005 sec (  0.1% of sigma)
  <D|H|D>(2-ext Fock)                  ...        0.001 sec (  0.0% of sigma)
  <D|H|D>(2-ext)                       ...        0.033 sec (  0.8% of sigma)
  <D|H|D>(4-ext)                       ...        1.520 sec ( 35.3% of sigma)
  <S|H|0>                              ...        0.087 sec (  2.0% of sigma)
  <D|H|S>(1-ext)                       ...        0.016 sec (  0.4% of sigma)
  Fock-dressing                        ...        2.064 sec ( 48.0% of sigma)
  (ik|jl)-dressing                     ...        0.007 sec (  0.2% of sigma)
  (ij|ab),(ia|jb)-dressing             ...        0.423 sec (  9.8% of sigma)
  Pair energies                        ...        0.001 sec (  0.0% of sigma)
Total Time for computing (T)           ...        0.199 sec (  1.6% of ALL)
  I/O of integral and amplitudes       ...        0.053 sec ( 26.5% of (T))
  External N**7 contributions          ...        0.051 sec ( 25.4% of (T))
  Internal N**7 contributions          ...        0.025 sec ( 12.4% of (T))
  N**6 triples energy contributions    ...        0.064 sec ( 32.0% of (T))


-------------------------   --------------------
FINAL SINGLE POINT ENERGY     -1923.498041751538
-------------------------   --------------------


                            ***************************************
                            *     ORCA property calculations      *
                            ***************************************

                                    ---------------------
                                    Active property flags
                                    ---------------------
   (+) Dipole Moment


------------------------------------------------------------------------------
                       ORCA ELECTRIC PROPERTIES CALCULATION
------------------------------------------------------------------------------

Dipole Moment Calculation                       ... on
Quadrupole Moment Calculation                   ... off
Polarizability Calculation                      ... off
GBWName                                         ... 31_Ga.gbw
Electron density file                           ... 31_Ga.scfp
The origin for moment calculation is the CENTER OF MASS  = ( 0.000000,  0.000000  0.000000)

-------------
DIPOLE MOMENT
-------------
                                X             Y             Z
Electronic contribution:     -0.00000      -0.00000      -0.00000
Nuclear contribution   :      0.00000       0.00000       0.00000
                        -----------------------------------------
Total Dipole Moment    :     -0.00000      -0.00000      -0.00000
                        -----------------------------------------
Magnitude (a.u.)       :      0.00000
Magnitude (Debye)      :      0.00000



--------------------
Rotational spectrum 
--------------------
 
Rotational constants in cm-1:     0.000000     0.000000     0.000000 
Rotational constants in MHz :     0.000000     0.000000     0.000000 

 Dipole components along the rotational axes: 
x,y,z [a.u.] :    -0.000000    -0.000000    -0.000000 
x,y,z [Debye]:    -0.000000    -0.000000    -0.000000 

 

                           *** MDCI DENSITY ***

------------------------------------------------------------------------------
                       ORCA ELECTRIC PROPERTIES CALCULATION
------------------------------------------------------------------------------

Dipole Moment Calculation                       ... on
Quadrupole Moment Calculation                   ... off
Polarizability Calculation                      ... off
GBWName                                         ... 31_Ga.gbw
Electron density file                           ... 31_Ga.mdcip
The origin for moment calculation is the CENTER OF MASS  = ( 0.000000,  0.000000  0.000000)

-------------
DIPOLE MOMENT
-------------
                                X             Y             Z
Electronic contribution:     -0.00000      -0.00000      -0.00000
Nuclear contribution   :      0.00000       0.00000       0.00000
                        -----------------------------------------
Total Dipole Moment    :     -0.00000      -0.00000      -0.00000
                        -----------------------------------------
Magnitude (a.u.)       :      0.00000
Magnitude (Debye)      :      0.00000



--------------------
Rotational spectrum 
--------------------
 
Rotational constants in cm-1:     0.000000     0.000000     0.000000 
Rotational constants in MHz :     0.000000     0.000000     0.000000 

 Dipole components along the rotational axes: 
x,y,z [a.u.] :    -0.000000    -0.000000    -0.000000 
x,y,z [Debye]:    -0.000000    -0.000000    -0.000000 

 

Timings for individual modules:

Sum of individual times         ...       17.930 sec (=   0.299 min)
GTO integral calculation        ...        0.788 sec (=   0.013 min)   4.4 %
SCF iterations                  ...        4.536 sec (=   0.076 min)  25.3 %
MDCI module                     ...       12.606 sec (=   0.210 min)  70.3 %
                             ****ORCA TERMINATED NORMALLY****
TOTAL RUN TIME: 0 days 0 hours 0 minutes 18 seconds 721 msec
