
                                 *****************
                                 * O   R   C   A *
                                 *****************

           --- An Ab Initio, DFT and Semiempirical electronic structure package ---

                  #######################################################
                  #                        -***-                        #
                  #          Department of theory and spectroscopy      #
                  #               Directorship: Frank Neese             #
                  #        Max Planck Institute fuer Kohlenforschung    #
                  #                Kaiser Wilhelm Platz 1               #
                  #                 D-45470 Muelheim/Ruhr               #
                  #                      Germany                        #
                  #                                                     #
                  #                  All rights reserved                #
                  #                        -***-                        #
                  #######################################################


                         Program Version 4.2.0 -  RELEASE  -


 With contributions from (in alphabetic order):
   Daniel Aravena         : Magnetic Suceptibility
   Michael Atanasov       : Ab Initio Ligand Field Theory (pilot matlab implementation)
   Alexander A. Auer      : GIAO ZORA, VPT2
   Ute Becker             : Parallelization
   Giovanni Bistoni       : ED, misc. LED, open-shell LED, HFLED
   Martin Brehm           : Molecular dynamics
   Dmytro Bykov           : SCF Hessian
   Vijay G. Chilkuri      : MRCI spin determinant printing, contributions to CSF-ICE
   Dipayan Datta          : RHF DLPNO-CCSD density
   Achintya Kumar Dutta   : EOM-CC, STEOM-CC
   Dmitry Ganyushin       : Spin-Orbit,Spin-Spin,Magnetic field MRCI
   Miquel Garcia          : C-PCM Hessian, Gaussian charge scheme
   Yang Guo               : DLPNO-NEVPT2, CIM, IAO-localization
   Andreas Hansen         : Spin unrestricted coupled pair/coupled cluster methods
   Benjamin Helmich-Paris : CASSCF linear response (MC-RPA)
   Lee Huntington         : MR-EOM, pCC
   Robert Izsak           : Overlap fitted RIJCOSX, COSX-SCS-MP3, EOM
   Christian Kollmar      : KDIIS, OOCD, Brueckner-CCSD(T), CCSD density
   Simone Kossmann        : Meta GGA functionals, TD-DFT gradient, OOMP2, MP2 Hessian
   Martin Krupicka        : AUTO-CI
   Lucas Lang             : DCDCAS
   Dagmar Lenk            : GEPOL surface, SMD
   Dimitrios Liakos       : Extrapolation schemes; Compound Job, initial MDCI parallelization
   Dimitrios Manganas     : Further ROCIS development; embedding schemes
   Dimitrios Pantazis     : SARC Basis sets
   Taras Petrenko         : DFT Hessian,TD-DFT gradient, ASA, ECA, R-Raman, ABS, FL, XAS/XES, NRVS
   Peter Pinski           : DLPNO-MP2, DLPNO-MP2 Gradient
   Christoph Reimann      : Effective Core Potentials
   Marius Retegan         : Local ZFS, SOC
   Christoph Riplinger    : Optimizer, TS searches, QM/MM, DLPNO-CCSD(T), (RO)-DLPNO pert. Triples
   Tobias Risthaus        : Range-separated hybrids, TD-DFT gradient, RPA, STAB
   Michael Roemelt        : Original ROCIS implementation
   Masaaki Saitow         : Open-shell DLPNO-CCSD energy and density
   Barbara Sandhoefer     : DKH picture change effects
   Avijit Sen             : IP-ROCIS
   Kantharuban Sivalingam : CASSCF convergence, NEVPT2, FIC-MRCI
   Bernardo de Souza      : ESD, SOC TD-DFT
   Georgi Stoychev        : AutoAux, RI-MP2 NMR
   Willem Van den Heuvel  : Paramagnetic NMR
   Boris Wezisla          : Elementary symmetry handling
   Frank Wennmohs         : Technical directorship


 We gratefully acknowledge several colleagues who have allowed us to
 interface, adapt or use parts of their codes:
   Stefan Grimme, W. Hujo, H. Kruse,             : VdW corrections, initial TS optimization,
                  C. Bannwarth                     DFT functionals, gCP, sTDA/sTD-DF
   Ed Valeev, F. Pavosevic, A. Kumar             : LibInt (2-el integral package), F12 methods
   Garnet Chan, S. Sharma, J. Yang, R. Olivares  : DMRG
   Ulf Ekstrom                                   : XCFun DFT Library
   Mihaly Kallay                                 : mrcc  (arbitrary order and MRCC methods)
   Andreas Klamt, Michael Diedenhofen            : otool_cosmo (COSMO solvation model)
   Jiri Pittner, Ondrej Demel                    : Mk-CCSD
   Frank Weinhold                                : gennbo (NPA and NBO analysis)
   Christopher J. Cramer and Donald G. Truhlar   : smd solvation model
   Lars Goerigk                                  : TD-DFT with DH, B97 family of functionals
   V. Asgeirsson, H. Jonsson                     : NEB implementation
   FAccTs GmbH                                   : IRC, NEB, NEB-TS, Multilevel, MM, QM/MM, CI optimization
   S Lehtola, MJT Oliveira, MAL Marques          : LibXC Library


 Your calculation uses the libint2 library for the computation of 2-el integrals
 For citations please refer to: http://libint.valeyev.net

 Your ORCA version has been built with support for libXC version: 4.2.3
 For citations please refer to: https://tddft.org/programs/libxc/

 This ORCA versions uses:
   CBLAS   interface :  Fast vector & matrix operations
   LAPACKE interface :  Fast linear algebra routines
   SCALAPACK package :  Parallel linear algebra routines


----- Orbital basis set information -----
Your calculation utilizes the basis: def2-QZVP
   F. Weigend and R. Ahlrichs, Phys. Chem. Chem. Phys. 7, 3297 (2005).

================================================================================
                                        WARNINGS
                       Please study these warnings very carefully!
================================================================================


WARNING: your system is open-shell and RHF/RKS was chosen
  ===> : WILL SWITCH to UHF/UKS


WARNING: MDCI localization with Augmented Hessian Foster-Boys
  ===> : Switching off randomization!

WARNING: Post HF methods need fully converged wavefunctions
  ===> : Setting SCFConvForced true
         You can overwrite this default with %scf ConvForced false 


INFO   : the flag for use of LIBINT has been found!

================================================================================
                                       INPUT FILE
================================================================================
NAME = 34_Se.in
|  1> #
|  2> # 34_Se CCSD(T)/Def2-QZVP
|  3> #
|  4> ! CCSD(T) Def2-QZVP tightscf
|  5> 
|  6> *xyz 0 3
|  7>  Se 0.0 0.0 0.0
|  8> *
|  9> 
| 10> %maxcore 5000 
| 11> 
| 12> %pal
| 13> nprocs 24
| 14> end
| 15> 
| 16> 
| 17>                          ****END OF INPUT****
================================================================================

                       ****************************
                       * Single Point Calculation *
                       ****************************

---------------------------------
CARTESIAN COORDINATES (ANGSTROEM)
---------------------------------
  Se     0.000000    0.000000    0.000000

----------------------------
CARTESIAN COORDINATES (A.U.)
----------------------------
  NO LB      ZA    FRAG     MASS         X           Y           Z
   0 Se   34.0000    0    78.960    0.000000    0.000000    0.000000

--------------------------------
INTERNAL COORDINATES (ANGSTROEM)
--------------------------------
 Se     0   0   0     0.000000000000     0.00000000     0.00000000

---------------------------
INTERNAL COORDINATES (A.U.)
---------------------------
 Se     0   0   0     0.000000000000     0.00000000     0.00000000

---------------------
BASIS SET INFORMATION
---------------------
There are 1 groups of distinct atoms

 Group   1 Type Se  : 24s20p10d2f1g contracted to 11s7p4d2f1g pattern {114111111111/10511111/7111/11/1}

Atom   0Se   basis set group =>   1


           ************************************************************
           *        Program running with 24 parallel MPI-processes    *
           *              working on a common directory               *
           ************************************************************
------------------------------------------------------------------------------
                           ORCA GTO INTEGRAL CALCULATION
------------------------------------------------------------------------------

                         BASIS SET STATISTICS AND STARTUP INFO

 # of primitive gaussian shells          ...   57
 # of primitive gaussian functions       ...  157
 # of contracted shells                  ...   25
 # of contracted basis functions         ...   75
 Highest angular momentum                ...    4
 Maximum contraction depth               ...   11
 Integral package used                   ... LIBINT
 Integral threshhold            Thresh   ...  2.500e-11
 Primitive cut-off              TCut     ...  2.500e-12


------------------------------ INTEGRAL EVALUATION ----------------------------


 * One electron integrals 
 Pre-screening matrix                    ... done
 Shell pair data                         ... done (   0.000 sec)



           ************************************************************
           *        Program running with 24 parallel MPI-processes    *
           *              working on a common directory               *
           ************************************************************
-------------------------------------------------------------------------------
                                 ORCA SCF
-------------------------------------------------------------------------------

------------
SCF SETTINGS
------------
Hamiltonian:
 Ab initio Hamiltonian  Method          .... Hartree-Fock(GTOs)


General Settings:
 Integral files         IntName         .... 34_Se
 Hartree-Fock type      HFTyp           .... UHF
 Total Charge           Charge          ....    0
 Multiplicity           Mult            ....    3
 Number of Electrons    NEL             ....   34
 Basis Dimension        Dim             ....   75
 Nuclear Repulsion      ENuc            ....      0.0000000000 Eh

Convergence Acceleration:
 DIIS                   CNVDIIS         .... on
   Start iteration      DIISMaxIt       ....    12
   Startup error        DIISStart       ....  0.200000
   # of expansion vecs  DIISMaxEq       ....     5
   Bias factor          DIISBfac        ....   1.050
   Max. coefficient     DIISMaxC        ....  10.000
 Newton-Raphson         CNVNR           .... off
 SOSCF                  CNVSOSCF        .... off
 Level Shifting         CNVShift        .... on
   Level shift para.    LevelShift      ....    0.2500
   Turn off err/grad.   ShiftErr        ....    0.0010
 Zerner damping         CNVZerner       .... off
 Static damping         CNVDamp         .... on
   Fraction old density DampFac         ....    0.7000
   Max. Damping (<1)    DampMax         ....    0.9800
   Min. Damping (>=0)   DampMin         ....    0.0000
   Turn off err/grad.   DampErr         ....    0.1000
 Fernandez-Rico         CNVRico         .... off

SCF Procedure:
 Maximum # iterations   MaxIter         ....   125
 SCF integral mode      SCFMode         .... Direct
   Integral package                     .... LIBINT
 Reset frequency        DirectResetFreq ....    20
 Integral Threshold     Thresh          ....  2.500e-11 Eh
 Primitive CutOff       TCut            ....  2.500e-12 Eh

Convergence Tolerance:
 Convergence Check Mode ConvCheckMode   .... Total+1el-Energy
 Convergence forced     ConvForced      .... 1
 Energy Change          TolE            ....  1.000e-08 Eh
 1-El. energy change                    ....  1.000e-05 Eh
 DIIS Error             TolErr          ....  5.000e-07


Diagonalization of the overlap matrix:
Smallest eigenvalue                        ... 8.158e-04
Time for diagonalization                   ...    0.003 sec
Threshold for overlap eigenvalues          ... 1.000e-08
Number of eigenvalues below threshold      ... 0
Time for construction of square roots      ...    0.010 sec
Total time needed                          ...    0.012 sec

-------------------
DFT GRID GENERATION
-------------------

General Integration Accuracy     IntAcc      ...  4.340
Radial Grid Type                 RadialGrid  ... Gauss-Chebyshev
Angular Grid (max. acc.)         AngularGrid ... Lebedev-110
Angular grid pruning method      GridPruning ... 3 (G Style)
Weight generation scheme         WeightScheme... Becke
Basis function cutoff            BFCut       ...    1.0000e-11
Integration weight cutoff        WCut        ...    1.0000e-14
Grids for H and He will be reduced by one unit

# of grid points (after initial pruning)     ...   2950 (   0.1 sec)
# of grid points (after weights+screening)   ...   2950 (   0.0 sec)
Grid point division into batches done        ...    0.0 sec
Reduced shell lists constructed in    0.0 sec

Total number of grid points                  ...     2950
Total number of batches                      ...       47
Average number of points per batch           ...       62
Average number of grid points per atom       ...     2950
Average number of shells per batch           ...     7.33 (29.33%)
Average number of basis functions per batch  ...    30.00 (40.00%)
Average number of large shells per batch     ...     7.33 (100.00%)
Average number of large basis fcns per batch ...    30.00 (100.00%)
Maximum spatial batch extension              ...  14.66, 21.55, 21.55 au
Average spatial batch extension              ...   0.62,  0.92,  0.92 au

Time for grid setup =    0.163 sec

------------------------------
INITIAL GUESS: MODEL POTENTIAL
------------------------------
Loading Hartree-Fock densities                     ... done
Calculating cut-offs                               ... done
Setting up the integral package                    ... done
Initializing the effective Hamiltonian             ... done
Starting the Coulomb interaction                   ... done (   0.0 sec)
Reading the grid                                   ... done
Mapping shells                                     ... done
Starting the XC term evaluation                    ... done (   0.0 sec)
Transforming the Hamiltonian                       ... done (   0.0 sec)
Diagonalizing the Hamiltonian                      ... done (   0.0 sec)
Back transforming the eigenvectors                 ... done (   0.0 sec)
Now organizing SCF variables                       ... done
                      ------------------
                      INITIAL GUESS DONE (   0.3 sec)
                      ------------------
--------------
SCF ITERATIONS
--------------
ITER       Energy         Delta-E        Max-DP      RMS-DP      [F,P]     Damp
               ***  Starting incremental Fock matrix formation  ***
  0  -2399.8270624227   0.000000000000 0.01004680  0.00043312  0.9302392 0.7000
  1  -2399.8410292677  -0.013966844969 0.00818124  0.00034450  0.6503534 0.7000
  2  -2399.8505412393  -0.009511971647 0.00687273  0.00026842  0.4549649 0.7000
  3  -2399.8572999278  -0.006758688464 0.00563984  0.00021082  0.3185102 0.7000
  4  -2399.8621704337  -0.004870505874 0.00464265  0.00016617  0.2231079 0.7000
                               ***Turning on DIIS***
  5  -2399.8656871705  -0.003516736834 0.00378975  0.00013126  0.1563500 0.7000
  6  -2399.8455077953   0.020179375194 0.00371066  0.00011845  0.1096056 0.7000
  7  -2399.8654370480  -0.019929252655 0.01033514  0.00032764  0.0768176 0.0000
  8  -2399.8746493060  -0.009212258041 0.00233347  0.00005838  0.0008720 0.0000
  9  -2399.8724519632   0.002197342839 0.00113768  0.00002908  0.0003652 0.0000
 10  -2399.8733511447  -0.000899181531 0.00035052  0.00000870  0.0001382 0.0000
 11  -2399.8751918561  -0.001840711401 0.00004612  0.00000176  0.0000552 0.0000
 12  -2399.8745745886   0.000617267499 0.00001511  0.00000053  0.0000062 0.0000
 13  -2399.8746038709  -0.000029282332 0.00000389  0.00000014  0.0000011 0.0000
                            ***DIIS convergence achieved***

               *****************************************************
               *                     SUCCESS                       *
               *           SCF CONVERGED AFTER  14 CYCLES          *
               *****************************************************


----------------
TOTAL SCF ENERGY
----------------

Total Energy       :        -2399.87460740 Eh          -65303.90805 eV

Components:
Nuclear Repulsion  :            0.00000000 Eh               0.00000 eV
Electronic Energy  :        -2399.87460740 Eh          -65303.90805 eV
One Electron Energy:        -3343.44237165 Eh          -90979.69225 eV
Two Electron Energy:          943.56776425 Eh           25675.78420 eV

Virial components:
Potential Energy   :        -4799.74395846 Eh         -130607.67308 eV
Kinetic Energy     :         2399.86935106 Eh           65303.76502 eV
Virial Ratio       :            2.00000219


---------------
SCF CONVERGENCE
---------------

  Last Energy change         ...   -3.5303e-06  Tolerance :   1.0000e-08
  Last MAX-Density change    ...    1.6058e-06  Tolerance :   1.0000e-07
  Last RMS-Density change    ...    4.8027e-08  Tolerance :   5.0000e-09
  Last DIIS Error            ...    2.3134e-07  Tolerance :   5.0000e-07

             **** THE GBW FILE WAS UPDATED (34_Se.gbw) ****
             **** DENSITY FILE WAS UPDATED (34_Se.scfp) ****
             **** ENERGY FILE WAS UPDATED (34_Se.en.tmp) ****
----------------------
UHF SPIN CONTAMINATION
----------------------

Expectation value of <S**2>     :     2.011224
Ideal value S*(S+1) for S=1.0   :     2.000000
Deviation                       :     0.011224

             **** THE GBW FILE WAS UPDATED (34_Se.gbw) ****
             **** DENSITY FILE WAS UPDATED (34_Se.scfp) ****
----------------
ORBITAL ENERGIES
----------------
                 SPIN UP ORBITALS
  NO   OCC          E(Eh)            E(eV) 
   0   1.0000    -460.870811    -12540.9323 
   1   1.0000     -60.670332     -1650.9237 
   2   1.0000     -54.274732     -1476.8905 
   3   1.0000     -54.274732     -1476.8905 
   4   1.0000     -54.268413     -1476.7186 
   5   1.0000      -8.937842      -243.2111 
   6   1.0000      -6.676526      -181.6775 
   7   1.0000      -6.676526      -181.6775 
   8   1.0000      -6.656540      -181.1337 
   9   1.0000      -2.662731       -72.4566 
  10   1.0000      -2.662731       -72.4566 
  11   1.0000      -2.648626       -72.0728 
  12   1.0000      -2.648626       -72.0728 
  13   1.0000      -2.644016       -71.9473 
  14   1.0000      -0.936218       -25.4758 
  15   1.0000      -0.447815       -12.1857 
  16   1.0000      -0.447815       -12.1857 
  17   1.0000      -0.384139       -10.4529 
  18   0.0000       0.237505         6.4628 
  19   0.0000       0.237505         6.4628 
  20   0.0000       0.256742         6.9863 
  21   0.0000       0.258370         7.0306 
  22   0.0000       0.369722        10.0607 
  23   0.0000       0.369722        10.0607 
  24   0.0000       0.401042        10.9129 
  25   0.0000       0.401042        10.9129 
  26   0.0000       0.413327        11.2472 
  27   0.0000       0.970546        26.4099 
  28   0.0000       0.970546        26.4099 
  29   0.0000       0.994779        27.0693 
  30   0.0000       0.994779        27.0693 
  31   0.0000       1.009750        27.4767 
  32   0.0000       1.009750        27.4767 
  33   0.0000       1.014987        27.6192 
  34   0.0000       1.156085        31.4587 
  35   0.0000       1.156085        31.4587 
  36   0.0000       1.196552        32.5598 
  37   0.0000       1.456532        39.6342 
  38   0.0000       1.456532        39.6342 
  39   0.0000       1.491261        40.5793 
  40   0.0000       1.491261        40.5793 
  41   0.0000       1.502345        40.8809 
  42   0.0000       1.519633        41.3513 
  43   0.0000       2.607658        70.9580 
  44   0.0000       2.607658        70.9580 
  45   0.0000       2.615374        71.1679 
  46   0.0000       2.615374        71.1679 
  47   0.0000       2.632042        71.6215 
  48   0.0000       2.632042        71.6215 
  49   0.0000       2.643961        71.9458 
  50   0.0000       2.643961        71.9458 
  51   0.0000       2.650014        72.1106 
  52   0.0000       2.650014        72.1106 
  53   0.0000       2.661043        72.4107 
  54   0.0000       2.661043        72.4107 
  55   0.0000       2.661810        72.4315 
  56   0.0000       2.661810        72.4315 
  57   0.0000       2.664763        72.5119 
  58   0.0000       2.667904        72.5974 
  59   0.0000       4.023580       109.4872 
  60   0.0000       4.023580       109.4872 
  61   0.0000       4.065540       110.6290 
  62   0.0000       4.795285       130.4863 
  63   0.0000       4.795285       130.4863 
  64   0.0000       4.821396       131.1968 
  65   0.0000       4.821396       131.1968 
  66   0.0000       4.830407       131.4421 
  67   0.0000       6.765671       184.1033 
  68   0.0000      13.559581       368.9750 
  69   0.0000      13.559581       368.9750 
  70   0.0000      13.586655       369.7117 
  71   0.0000      25.268196       687.5826 
  72   0.0000      82.542911      2246.1068 
  73   0.0000     281.092343      7648.9115 
  74   0.0000    1608.957081     43781.9480 

                 SPIN DOWN ORBITALS
  NO   OCC          E(Eh)            E(eV) 
   0   1.0000    -460.863748    -12540.7402 
   1   1.0000     -60.666932     -1650.8311 
   2   1.0000     -54.266352     -1476.6625 
   3   1.0000     -54.264181     -1476.6034 
   4   1.0000     -54.264181     -1476.6034 
   5   1.0000      -8.924721      -242.8540 
   6   1.0000      -6.653775      -181.0584 
   7   1.0000      -6.650647      -180.9733 
   8   1.0000      -6.650647      -180.9733 
   9   1.0000      -2.649376       -72.0932 
  10   1.0000      -2.649376       -72.0932 
  11   1.0000      -2.641856       -71.8886 
  12   1.0000      -2.641856       -71.8886 
  13   1.0000      -2.639489       -71.8241 
  14   1.0000      -0.741674       -20.1820 
  15   1.0000      -0.348864        -9.4931 
  16   0.0000      -0.000545        -0.0148 
  17   0.0000      -0.000545        -0.0148 
  18   0.0000       0.265028         7.2118 
  19   0.0000       0.284663         7.7461 
  20   0.0000       0.289626         7.8811 
  21   0.0000       0.289626         7.8811 
  22   0.0000       0.452437        12.3114 
  23   0.0000       0.458088        12.4652 
  24   0.0000       0.458088        12.4652 
  25   0.0000       0.478342        13.0164 
  26   0.0000       0.478342        13.0164 
  27   0.0000       1.031926        28.0801 
  28   0.0000       1.031926        28.0801 
  29   0.0000       1.035958        28.1898 
  30   0.0000       1.035958        28.1898 
  31   0.0000       1.037842        28.2411 
  32   0.0000       1.037842        28.2411 
  33   0.0000       1.038395        28.2562 
  34   0.0000       1.209489        32.9119 
  35   0.0000       1.218173        33.1482 
  36   0.0000       1.218173        33.1482 
  37   0.0000       1.536606        41.8132 
  38   0.0000       1.537896        41.8483 
  39   0.0000       1.537896        41.8483 
  40   0.0000       1.541964        41.9590 
  41   0.0000       1.541964        41.9590 
  42   0.0000       1.554677        42.3049 
  43   0.0000       2.664450        72.5034 
  44   0.0000       2.664450        72.5034 
  45   0.0000       2.674676        72.7816 
  46   0.0000       2.674676        72.7816 
  47   0.0000       2.675716        72.8099 
  48   0.0000       2.675716        72.8099 
  49   0.0000       2.681935        72.9792 
  50   0.0000       2.681935        72.9792 
  51   0.0000       2.685204        73.0681 
  52   0.0000       2.685204        73.0681 
  53   0.0000       2.686265        73.0970 
  54   0.0000       2.686265        73.0970 
  55   0.0000       2.687704        73.1361 
  56   0.0000       2.690838        73.2214 
  57   0.0000       2.690838        73.2214 
  58   0.0000       2.692702        73.2721 
  59   0.0000       4.063857       110.5832 
  60   0.0000       4.063857       110.5832 
  61   0.0000       4.075174       110.8911 
  62   0.0000       4.824217       131.2736 
  63   0.0000       4.824217       131.2736 
  64   0.0000       4.837460       131.6340 
  65   0.0000       4.837460       131.6340 
  66   0.0000       4.841862       131.7538 
  67   0.0000       6.785311       184.6377 
  68   0.0000      13.580239       369.5371 
  69   0.0000      13.580239       369.5371 
  70   0.0000      13.590576       369.8184 
  71   0.0000      25.277037       687.8231 
  72   0.0000      82.548058      2246.2468 
  73   0.0000     281.096132      7649.0146 
  74   0.0000    1608.958866     43781.9966 

                    ********************************
                    * MULLIKEN POPULATION ANALYSIS *
                    ********************************

--------------------------------------------
MULLIKEN ATOMIC CHARGES AND SPIN POPULATIONS
--------------------------------------------
   0 Se:   -0.000000    2.000000
Sum of atomic charges         :   -0.0000000
Sum of atomic spin populations:    2.0000000

-----------------------------------------------------
MULLIKEN REDUCED ORBITAL CHARGES AND SPIN POPULATIONS
-----------------------------------------------------
CHARGE
  0 Ses       :     7.995438  s :     7.995438
      pz      :     5.104092  p :    15.998094
      px      :     5.154933
      py      :     5.739069
      dz2     :     2.000536  d :    10.004554
      dxz     :     2.000222
      dyz     :     2.001058
      dx2y2   :     2.001167
      dxy     :     2.001573
      f0      :     0.000182  f :     0.001906
      f+1     :     0.000069
      f-1     :     0.000301
      f+2     :     0.000245
      f-2     :     0.000288
      f+3     :     0.000436
      f-3     :     0.000385
      g0      :     0.000001  g :     0.000007
      g+1     :     0.000000
      g-1     :     0.000001
      g+2     :     0.000001
      g-2     :     0.000001
      g+3     :     0.000001
      g-3     :     0.000001
      g+4     :     0.000001
      g-4     :     0.000001

SPIN
  0 Ses       :     0.001642  s :     0.001642
      pz      :     0.894827  p :     1.998211
      px      :     0.843953
      py      :     0.259431
      dz2     :    -0.000194  d :    -0.001649
      dxz     :    -0.000081
      dyz     :    -0.000383
      dx2y2   :    -0.000422
      dxy     :    -0.000568
      f0      :     0.000164  f :     0.001789
      f+1     :     0.000067
      f-1     :     0.000293
      f+2     :     0.000229
      f-2     :     0.000267
      f+3     :     0.000388
      f-3     :     0.000381
      g0      :     0.000001  g :     0.000007
      g+1     :     0.000000
      g-1     :     0.000001
      g+2     :     0.000001
      g-2     :     0.000001
      g+3     :     0.000001
      g-3     :     0.000001
      g+4     :     0.000001
      g-4     :     0.000001


                     *******************************
                     * LOEWDIN POPULATION ANALYSIS *
                     *******************************

-------------------------------------------
LOEWDIN ATOMIC CHARGES AND SPIN POPULATIONS
-------------------------------------------
   0 Se:   -0.000000    2.000000

----------------------------------------------------
LOEWDIN REDUCED ORBITAL CHARGES AND SPIN POPULATIONS
----------------------------------------------------
CHARGE
  0 Ses       :     7.995438  s :     7.995438
      pz      :     5.104092  p :    15.998094
      px      :     5.154933
      py      :     5.739069
      dz2     :     2.000536  d :    10.004554
      dxz     :     2.000222
      dyz     :     2.001058
      dx2y2   :     2.001167
      dxy     :     2.001573
      f0      :     0.000182  f :     0.001906
      f+1     :     0.000069
      f-1     :     0.000301
      f+2     :     0.000245
      f-2     :     0.000288
      f+3     :     0.000436
      f-3     :     0.000385
      g0      :     0.000001  g :     0.000007
      g+1     :     0.000000
      g-1     :     0.000001
      g+2     :     0.000001
      g-2     :     0.000001
      g+3     :     0.000001
      g-3     :     0.000001
      g+4     :     0.000001
      g-4     :     0.000001

SPIN
  0 Ses       :     0.001642  s :     0.001642
      pz      :     0.894827  p :     1.998211
      px      :     0.843953
      py      :     0.259431
      dz2     :    -0.000194  d :    -0.001649
      dxz     :    -0.000081
      dyz     :    -0.000383
      dx2y2   :    -0.000422
      dxy     :    -0.000568
      f0      :     0.000164  f :     0.001789
      f+1     :     0.000067
      f-1     :     0.000293
      f+2     :     0.000229
      f-2     :     0.000267
      f+3     :     0.000388
      f-3     :     0.000381
      g0      :     0.000001  g :     0.000007
      g+1     :     0.000000
      g-1     :     0.000001
      g+2     :     0.000001
      g-2     :     0.000001
      g+3     :     0.000001
      g-3     :     0.000001
      g+4     :     0.000001
      g-4     :     0.000001


                      *****************************
                      * MAYER POPULATION ANALYSIS *
                      *****************************

  NA   - Mulliken gross atomic population
  ZA   - Total nuclear charge
  QA   - Mulliken gross atomic charge
  VA   - Mayer's total valence
  BVA  - Mayer's bonded valence
  FA   - Mayer's free valence

  ATOM       NA         ZA         QA         VA         BVA        FA
  0 Se    34.0000    34.0000    -0.0000     2.0224     0.0000     2.0224

  Mayer bond orders larger than 0.100000


-------
TIMINGS
-------

Total SCF time: 0 days 0 hours 0 min 9 sec 

Total time                  ....       9.333 sec
Sum of individual times     ....       3.909 sec  ( 41.9%)

Fock matrix formation       ....       3.194 sec  ( 34.2%)
Diagonalization             ....       0.090 sec  (  1.0%)
Density matrix formation    ....       0.009 sec  (  0.1%)
Population analysis         ....       0.168 sec  (  1.8%)
Initial guess               ....       0.125 sec  (  1.3%)
Orbital Transformation      ....       0.000 sec  (  0.0%)
Orbital Orthonormalization  ....       0.000 sec  (  0.0%)
DIIS solution               ....       0.160 sec  (  1.7%)


           ************************************************************
           *        Program running with 24 parallel MPI-processes    *
           *              working on a common directory               *
           ************************************************************


------------------------------------------------------------------------------- 
                              ORCA-MATRIX DRIVEN CI                            
------------------------------------------------------------------------------- 

--------------------------------
AUTOMATIC CHOICE OF INCORE LEVEL
--------------------------------

Memory available                           ...   2500.00 MB
Memory needed for S+T                      ...      3.35 MB
Memory needed for J+K                      ...      6.73 MB
Memory needed for DIIS                     ...     46.85 MB
Memory needed for 3-ext                    ...     12.72 MB
Memory needed for 4-ext                    ...     40.97 MB
Memory needed for triples                  ...      7.06 MB
 -> Final InCoreLevel    ... 5
 -> check shows that triples correction can be computed


Wavefunction type
-----------------
Correlation treatment                      ...      CCSD     
Single excitations                         ... ON
Orbital optimization                       ... OFF
Calculation of Z vector                    ... OFF
Calculation of Brueckner orbitals          ... OFF
Perturbative triple excitations            ... ON
Calculation of F12 correction              ... OFF
Frozen core treatment                      ... chemical core (18 el)
Reference Wavefunction                     ... UHF
  Alpha-MOs occ    :     9 ...   17 (  9 MO's/  9 electrons)
  Beta-MOs occ     :     9 ...   15 (  7 MO's/  7 electrons)
  Alpha-MOs virt   :    18 ...   74 ( 57 MO's              )
  Beta-MOs virt    :    16 ...   74 ( 59 MO's              )
Number of AO's                             ...     75
Number of electrons                        ...     34
Number of correlated electrons             ...     16

Algorithmic settings
--------------------
Integral transformation                    ... AO direct full transformation
K(C) Formation                             ... FULL-MO TRAFO
Maximum number of iterations               ...        50
Convergence tolerance (max. residuum)      ... 1.000e-05
Level shift for amplitude update           ... 2.000e-01
Maximum number of DIIS vectors             ...         7
DIIS turned on at iteration                ...         0
Damping before turning on DIIS             ...     0.500
Damping after turning on DIIS              ...     0.000
Pair specific amplitude update             ... OFF
Natural orbital iterations                 ... OFF
Perturbative natural orbital generation    ... OFF
Printlevel                                 ... 2

Memory handling:
----------------
Maximum memory for working arrays          ...   2500 MB
Data storage in matrix containers          ... UNCOMPRESSED
Data type for integral storage             ... DOUBLE
In-Core Storage of quantities:
   Amplitudes+Sigma Vector      ... YES
   J+K operators                ... YES
   DIIS vectors                 ... YES
   3-external integrals         ... YES
   4-external integrals         ... YES


Initializing the integral package          ... done
Warning: reference  - re-canonicalizations have been set to INT 1 VIRT 1

--------------------------
UNRESTRICTED FOCK OPERATOR
--------------------------

<ss|ss>:         2211 b            0 skpd (  0.0%)    0.002 s ( 0.001 ms/b)
<ss|sp>:         5082 b            0 skpd (  0.0%)    0.004 s ( 0.001 ms/b)
<ss|sd>:         2904 b            0 skpd (  0.0%)    0.005 s ( 0.002 ms/b)
<ss|sf>:         1452 b            0 skpd (  0.0%)    0.000 s ( 0.000 ms/b)
<ss|sg>:          726 b            0 skpd (  0.0%)    0.001 s ( 0.001 ms/b)
<ss|pp>:         1848 b            0 skpd (  0.0%)    0.006 s ( 0.003 ms/b)
<ss|pd>:         1848 b            0 skpd (  0.0%)    0.004 s ( 0.002 ms/b)
<ss|pf>:          924 b            0 skpd (  0.0%)    0.001 s ( 0.001 ms/b)
<ss|pg>:          462 b            0 skpd (  0.0%)    0.001 s ( 0.002 ms/b)
<ss|dd>:          660 b            0 skpd (  0.0%)    0.005 s ( 0.007 ms/b)
<ss|df>:          528 b            0 skpd (  0.0%)    0.001 s ( 0.003 ms/b)
<ss|dg>:          264 b            0 skpd (  0.0%)    0.001 s ( 0.004 ms/b)
<ss|ff>:          198 b            0 skpd (  0.0%)    0.000 s ( 0.002 ms/b)
<ss|fg>:          132 b            0 skpd (  0.0%)    0.000 s ( 0.003 ms/b)
<ss|gg>:           66 b            0 skpd (  0.0%)    0.001 s ( 0.009 ms/b)
<sp|sp>:         3003 b            0 skpd (  0.0%)    0.005 s ( 0.002 ms/b)
<sp|sd>:         3388 b            0 skpd (  0.0%)    0.005 s ( 0.002 ms/b)
<sp|sf>:         1694 b            4 skpd (  0.2%)    0.001 s ( 0.001 ms/b)
<sp|sg>:          847 b           12 skpd (  1.4%)    0.002 s ( 0.003 ms/b)
<sp|pp>:         2156 b            0 skpd (  0.0%)    0.008 s ( 0.003 ms/b)
<sp|pd>:         2156 b            0 skpd (  0.0%)    0.009 s ( 0.004 ms/b)
<sp|pf>:         1078 b            0 skpd (  0.0%)    0.002 s ( 0.002 ms/b)
<sp|pg>:          539 b            0 skpd (  0.0%)    0.003 s ( 0.005 ms/b)
<sp|dd>:          770 b            0 skpd (  0.0%)    0.009 s ( 0.012 ms/b)
<sp|df>:          616 b            0 skpd (  0.0%)    0.002 s ( 0.004 ms/b)
<sp|dg>:          308 b            0 skpd (  0.0%)    0.003 s ( 0.011 ms/b)
<sp|ff>:          231 b            0 skpd (  0.0%)    0.001 s ( 0.004 ms/b)
<sp|fg>:          154 b            0 skpd (  0.0%)    0.001 s ( 0.009 ms/b)
<sp|gg>:           77 b            0 skpd (  0.0%)    0.002 s ( 0.023 ms/b)
<sd|sd>:          990 b            1 skpd (  0.1%)    0.003 s ( 0.003 ms/b)
<sd|sf>:          968 b           19 skpd (  2.0%)    0.001 s ( 0.001 ms/b)
<sd|sg>:          484 b           24 skpd (  5.0%)    0.003 s ( 0.006 ms/b)
<sd|pp>:         1232 b            0 skpd (  0.0%)    0.007 s ( 0.006 ms/b)
<sd|pd>:         1232 b            2 skpd (  0.2%)    0.010 s ( 0.008 ms/b)
<sd|pf>:          616 b            3 skpd (  0.5%)    0.002 s ( 0.003 ms/b)
<sd|pg>:          308 b            7 skpd (  2.3%)    0.003 s ( 0.010 ms/b)
<sd|dd>:          440 b            0 skpd (  0.0%)    0.011 s ( 0.024 ms/b)
<sd|df>:          352 b            0 skpd (  0.0%)    0.003 s ( 0.009 ms/b)
<sd|dg>:          176 b            0 skpd (  0.0%)    0.005 s ( 0.026 ms/b)
<sd|ff>:          132 b            0 skpd (  0.0%)    0.001 s ( 0.009 ms/b)
<sd|fg>:           88 b            0 skpd (  0.0%)    0.002 s ( 0.019 ms/b)
<sd|gg>:           44 b            0 skpd (  0.0%)    0.002 s ( 0.053 ms/b)
<sf|sf>:          253 b           21 skpd (  8.3%)    0.000 s ( 0.001 ms/b)
<sf|sg>:          242 b           33 skpd ( 13.6%)    0.000 s ( 0.001 ms/b)
<sf|pp>:          616 b            0 skpd (  0.0%)    0.003 s ( 0.005 ms/b)
<sf|pd>:          616 b            9 skpd (  1.5%)    0.004 s ( 0.006 ms/b)
<sf|pf>:          308 b           15 skpd (  4.9%)    0.001 s ( 0.002 ms/b)
<sf|pg>:          154 b           11 skpd (  7.1%)    0.001 s ( 0.004 ms/b)
<sf|dd>:          220 b            0 skpd (  0.0%)    0.005 s ( 0.023 ms/b)
<sf|df>:          176 b            3 skpd (  1.7%)    0.002 s ( 0.009 ms/b)
<sf|dg>:           88 b            2 skpd (  2.3%)    0.002 s ( 0.022 ms/b)
<sf|ff>:           66 b            0 skpd (  0.0%)    0.001 s ( 0.013 ms/b)
<sf|fg>:           44 b            0 skpd (  0.0%)    0.001 s ( 0.025 ms/b)
<sf|gg>:           22 b            3 skpd ( 13.6%)    0.001 s ( 0.057 ms/b)
<sg|sg>:           66 b           15 skpd ( 22.7%)    0.000 s ( 0.003 ms/b)
<sg|pp>:          308 b            0 skpd (  0.0%)    0.003 s ( 0.010 ms/b)
<sg|pd>:          308 b           33 skpd ( 10.7%)    0.004 s ( 0.014 ms/b)
<sg|pf>:          154 b           21 skpd ( 13.6%)    0.000 s ( 0.002 ms/b)
<sg|pg>:           77 b           27 skpd ( 35.1%)    0.000 s ( 0.009 ms/b)
<sg|dd>:          110 b            1 skpd (  0.9%)    0.005 s ( 0.044 ms/b)
<sg|df>:           88 b            7 skpd (  8.0%)    0.001 s ( 0.011 ms/b)
<sg|dg>:           44 b            5 skpd ( 11.4%)    0.001 s ( 0.027 ms/b)
<sg|ff>:           33 b            4 skpd ( 12.1%)    0.001 s ( 0.019 ms/b)
<sg|fg>:           22 b            6 skpd ( 27.3%)    0.001 s ( 0.031 ms/b)
<sg|gg>:           11 b            3 skpd ( 27.3%)    0.001 s ( 0.080 ms/b)
<pp|pp>:          406 b            0 skpd (  0.0%)    0.008 s ( 0.021 ms/b)
<pp|pd>:          784 b            0 skpd (  0.0%)    0.011 s ( 0.014 ms/b)
<pp|pf>:          392 b            0 skpd (  0.0%)    0.002 s ( 0.006 ms/b)
<pp|pg>:          196 b            0 skpd (  0.0%)    0.004 s ( 0.021 ms/b)
<pp|dd>:          280 b            0 skpd (  0.0%)    0.012 s ( 0.044 ms/b)
<pp|df>:          224 b            0 skpd (  0.0%)    0.003 s ( 0.016 ms/b)
<pp|dg>:          112 b            0 skpd (  0.0%)    0.005 s ( 0.048 ms/b)
<pp|ff>:           84 b            0 skpd (  0.0%)    0.001 s ( 0.015 ms/b)
<pp|fg>:           56 b            0 skpd (  0.0%)    0.002 s ( 0.033 ms/b)
<pp|gg>:           28 b            0 skpd (  0.0%)    0.003 s ( 0.091 ms/b)
<pd|pd>:          406 b            0 skpd (  0.0%)    0.013 s ( 0.032 ms/b)
<pd|pf>:          392 b            0 skpd (  0.0%)    0.004 s ( 0.011 ms/b)
<pd|pg>:          196 b            0 skpd (  0.0%)    0.008 s ( 0.038 ms/b)
<pd|dd>:          280 b            0 skpd (  0.0%)    0.021 s ( 0.077 ms/b)
<pd|df>:          224 b            0 skpd (  0.0%)    0.007 s ( 0.030 ms/b)
<pd|dg>:          112 b            0 skpd (  0.0%)    0.010 s ( 0.089 ms/b)
<pd|ff>:           84 b            0 skpd (  0.0%)    0.002 s ( 0.029 ms/b)
<pd|fg>:           56 b            0 skpd (  0.0%)    0.004 s ( 0.063 ms/b)
<pd|gg>:           28 b            0 skpd (  0.0%)    0.005 s ( 0.176 ms/b)
<pf|pf>:          105 b            0 skpd (  0.0%)    0.001 s ( 0.008 ms/b)
<pf|pg>:           98 b            0 skpd (  0.0%)    0.003 s ( 0.033 ms/b)
<pf|dd>:          140 b            0 skpd (  0.0%)    0.009 s ( 0.061 ms/b)
<pf|df>:          112 b            0 skpd (  0.0%)    0.003 s ( 0.026 ms/b)
<pf|dg>:           56 b            0 skpd (  0.0%)    0.005 s ( 0.086 ms/b)
<pf|ff>:           42 b            0 skpd (  0.0%)    0.002 s ( 0.039 ms/b)
<pf|fg>:           28 b            0 skpd (  0.0%)    0.002 s ( 0.074 ms/b)
<pf|gg>:           14 b            0 skpd (  0.0%)    0.003 s ( 0.188 ms/b)
<pg|pg>:           28 b            0 skpd (  0.0%)    0.002 s ( 0.054 ms/b)
<pg|dd>:           70 b            0 skpd (  0.0%)    0.009 s ( 0.126 ms/b)
<pg|df>:           56 b            0 skpd (  0.0%)    0.003 s ( 0.047 ms/b)
<pg|dg>:           28 b            0 skpd (  0.0%)    0.004 s ( 0.152 ms/b)
<pg|ff>:           21 b            0 skpd (  0.0%)    0.001 s ( 0.048 ms/b)
<pg|fg>:           14 b            0 skpd (  0.0%)    0.002 s ( 0.124 ms/b)
<pg|gg>:            7 b            0 skpd (  0.0%)    0.002 s ( 0.316 ms/b)
<dd|dd>:           55 b            0 skpd (  0.0%)    0.016 s ( 0.295 ms/b)
<dd|df>:           80 b            0 skpd (  0.0%)    0.005 s ( 0.063 ms/b)
<dd|dg>:           40 b            0 skpd (  0.0%)    0.008 s ( 0.199 ms/b)
<dd|ff>:           30 b            0 skpd (  0.0%)    0.002 s ( 0.059 ms/b)
<dd|fg>:           20 b            0 skpd (  0.0%)    0.003 s ( 0.131 ms/b)
<dd|gg>:           10 b            0 skpd (  0.0%)    0.004 s ( 0.369 ms/b)
<df|df>:           36 b            0 skpd (  0.0%)    0.002 s ( 0.050 ms/b)
<df|dg>:           32 b            0 skpd (  0.0%)    0.004 s ( 0.140 ms/b)
<df|ff>:           24 b            0 skpd (  0.0%)    0.002 s ( 0.070 ms/b)
<df|fg>:           16 b            0 skpd (  0.0%)    0.002 s ( 0.135 ms/b)
<df|gg>:            8 b            0 skpd (  0.0%)    0.003 s ( 0.352 ms/b)
<dg|dg>:           10 b            0 skpd (  0.0%)    0.002 s ( 0.245 ms/b)
<dg|ff>:           12 b            0 skpd (  0.0%)    0.001 s ( 0.086 ms/b)
<dg|fg>:            8 b            0 skpd (  0.0%)    0.002 s ( 0.211 ms/b)
<dg|gg>:            4 b            0 skpd (  0.0%)    0.002 s ( 0.556 ms/b)
<ff|ff>:            6 b            0 skpd (  0.0%)    0.001 s ( 0.092 ms/b)
<ff|fg>:            6 b            0 skpd (  0.0%)    0.001 s ( 0.225 ms/b)
<ff|gg>:            3 b            0 skpd (  0.0%)    0.001 s ( 0.419 ms/b)
<fg|fg>:            3 b            0 skpd (  0.0%)    0.001 s ( 0.322 ms/b)
<fg|gg>:            2 b            0 skpd (  0.0%)    0.001 s ( 0.696 ms/b)
<gg|gg>:            1 b            0 skpd (  0.0%)    0.001 s ( 1.166 ms/b)
Recanonicalizing the internal orbitals
Recanonicalizing the virtual orbitals
Time needed for Fock operator              ...            0.462 sec
Reference energy                           ...  -2399.874609337
Warning: for UHF the TrafoType has to be JK
Warning: for UHF the K(C)-option cannot be MO but must be AOX

-------------------------------
PARTIAL EXCHANGE TRANSFORMATION
-------------------------------

Transformation type                        ... two-operators
Generation of integrals (i,mue|j,nue)      ... ON
Generation of integrals (mue,kappa|nue,tau)... ON
Generation of integrals (i,mue|a,nue)      ... ON
Dimension of the basis                     ...   75
Number of internal alpha-MOs               ...    9 (   9-  17)
Number of internal beta-MOs                ...    7 (   9-  15)
Number of external alpha-MOs               ...   57 (  18-  74)
Number of external beta-MOs                ...   59 (  16-  74)
Pair cutoff                                ... 0.000e+00 Eh
Number of AO pairs in the trafo            ... 2850
Total Number of distinct AO pairs          ... 2850
Memory devoted for trafo                   ... 2500.0 MB 
Max. Number of MO pairs treated together   ... 58254      
Number Format for Storage                  ... Double (8 Byte)
Integral package used                      ... LIBINT

Starting integral evaluation:
    ... done with AO integral generation
Closing buffer AOK[aa] ( 0.00 GB; CompressionRatio= 0.98)
Closing buffer AOK[bb] ( 0.00 GB; CompressionRatio= 0.97)
Closing buffer AOK[ab] ( 0.00 GB; CompressionRatio= 0.98)
Closing buffer AOK[ba] ( 0.00 GB; CompressionRatio= 0.98)
Collecting buffer AOK 
Closing buffer IAAO1[aa] ( 0.00 GB; CompressionRatio= 1.00)
Closing buffer IAAO1[bb] ( 0.00 GB; CompressionRatio= 1.00)
Closing buffer IAAO1[ab] ( 0.00 GB; CompressionRatio= 1.00)
Closing buffer IAAO1[ba] ( 0.00 GB; CompressionRatio= 1.00)
Closing buffer IAAO2[aa] ( 0.00 GB; CompressionRatio= 1.00)
Closing buffer IAAO2[bb] ( 0.00 GB; CompressionRatio= 1.00)
Closing buffer IAAO2[ab] ( 0.00 GB; CompressionRatio= 1.00)
Closing buffer IAAO2[ba] ( 0.00 GB; CompressionRatio= 1.00)
Collecting buffer IAAO 
Closing buffer PRQS    ( 0.00 GB; CompressionRatio= 1.00)
Collecting buffer PRQS 
Number of alpha/alpha MO pairs in trafo    ...   45
Number of beta /beta  MO pairs in trafo    ...   28
Number of alpha/ beta MO pairs in trafo    ...   63
------------------------
SORTING OF (i,mue|j,nue)
------------------------

SORTING OF ALPHA/ALPHA PAIRS
IBATCH = 1 of  1
Closing buffer KAO[aa] ( 0.00 GB; CompressionRatio= 1.00)
Collecting buffer KAO 
SORTING OF BETA /BETA  PAIRS
IBATCH = 1 of  1
Closing buffer KAO[bb] ( 0.00 GB; CompressionRatio= 1.00)
Collecting buffer KAO 
SORTING OF ALPHA/BETA  PAIRS
IBATCH = 1 of  1
Closing buffer KAO[ab] ( 0.00 GB; CompressionRatio= 0.999733404425)
Collecting buffer KAO[ab] 
------------------------
SORTING OF (i,mue|a,nue)
------------------------

Number of alpha/alpha (i,a) pairs in trafo  ...  513
Number of beta /beta  (i,a) pairs in trafo  ...  413
Number of alpha/ beta (i,a) pairs in trafo  ...  531
Number of beta /alpha (i,a) pairs in trafo  ...  399
Setting up the alpha/alpha list             ... done
Setting up the beta /beta  list             ... done
Setting up the alpha/beta  list             ... done
Setting up the beta /alpha list             ... done
    ... Now sorting (i,mue|a,nue)integrals
    ... Integrals (i,b|a,c) will be made on the fly
SORTING OF ALPHA/ALPHA PAIRS
IBATCH = 1 of  1
Closing buffer IPAQ[aa]  0.00 GB; CompressionRatio= 1.00)
SORTING OF BETA /BETA  PAIRS
IBATCH = 1 of  1
Closing buffer IPAQ[bb]( 0.00 GB; CompressionRatio= 1.00)
SORTING OF ALPHA/BETA  PAIRS (NMatSort_ab=23)
IBATCH = 1 of  1
Closing buffer IPAQ[ab]( 0.00 GB; CompressionRatio= 1.00)
SORTING OF BETA/ALPHA  PAIRS
IBATCH = 1 of  1
Closing buffer IPAQ[ba]( 0.00 GB; CompressionRatio= 1.00)
N(AO-Batches) Done                         ...      1250 
N(AO-Batches) Skipped                      ...         0 
N(IJ)-pairs Skipped                        ...         0 
TOTAL TIME for half transformation         ...     4.994 sec
AO-integral generation                     ...     0.049 sec
Half transformation                        ...     0.374 sec
K-integral sorting                         ...     1.080 sec
<ss|**>: 
------------------------------
PARTIAL COULOMB TRANSFORMATION
------------------------------

Transformation type                        ... two-operators
Dimension of the basis                     ...   75
Number of internal alpha-MOs               ...    9 (9-17)
Number of internal beta-MOs                ...    7 (9-15)
Pair cutoff                                ... 0.000e+00 Eh
Number of AO pairs included in the trafo   ... 2850
Total Number of distinct AO pairs          ... 2850
Memory devoted for trafo                   ... 2500.0 MB 
Max. Number of MO pairs treated together   ... 114975      
Max. Number of MOs treated per batch       ... 1533      
Number Format for Storage                  ... Double (8 Byte)
AO-integral source                         ... DIRECT
Integral package used                      ... LIBINT

Starting integral evaluation:
       21450 b        0 skpd     0.014 s (  0.001 ms/b)
<sp|**>: <sd|**>:        25025 b        0 skpd     0.047 s (  0.002 ms/b)
<sf|**>:        14300 b        0 skpd     0.075 s (  0.005 ms/b)
        7150 b        0 skpd     0.026 s (  0.004 ms/b)
<sg|**>:         3575 b        0 skpd     0.041 s (  0.012 ms/b)
<pp|**>:         9100 b        0 skpd     0.082 s (  0.009 ms/b)
<pd|**>:         9100 b        0 skpd     0.130 s (  0.014 ms/b)
<pf|**>:         4550 b        0 skpd     0.054 s (  0.012 ms/b)
<pg|**>:         2275 b        0 skpd     0.065 s (  0.029 ms/b)
<dd|**>:         3250 b        0 skpd     0.131 s (  0.040 ms/b)
<df|**>:         2600 b        0 skpd     0.075 s (  0.029 ms/b)
<dg|**>:         1300 b        0 skpd     0.082 s (  0.063 ms/b)
<ff|**>:          975 b        0 skpd     0.046 s (  0.047 ms/b)
<fg|**>:          650 b        0 skpd     0.064 s (  0.098 ms/b)
<gg|**>:          325 b        0 skpd     0.054 s (  0.166 ms/b)
Closing buffer AOJ[aa] ( 0.00 GB; CompressionRatio= 0.97)
Closing buffer AOJ[bb] ( 0.00 GB; CompressionRatio= 0.00)
Collecting buffer AOJ 
    ... done with AO integral generation
Number of Alpha-MO pairs included          ...   45
Number of Beta-MO pairs included           ...   28
    ... Now sorting integrals
SORTING ALPHA/ALPHA PAIRS
IBATCH = 1 of  1
Closing buffer JAO[aa] ( 0.00 GB; CompressionRatio= 1.00)
SORTING BETA/BETA PAIRS
IBATCH = 1 of  1
Closing buffer JAO[bb] ( 0.00 GB; CompressionRatio= 1.00)
Collecting buffer JAO 
TOTAL TIME for half transformation         ...     1.150 sec
AO-integral generation                     ...     0.827 sec
Half transformation                        ...     0.161 sec
J-integral sorting                         ...     0.122 sec

-------------------------- SECOND HALF TRANSFORMATION -------------------------
Formation of (ij|kl),(ij|ka), (ij|ab)      ... ok (     0.206 sec)
Formation of (ik|jl),(ik|ja), (ia|jb)      ... ok (     0.256 sec)


-----------------------
SPIN UNRESTRICTED GUESS
-----------------------

Entering MDCI_UHF_Guess, Tailored=0
Spin-components of the MP2 energy:
EMP2(aa)=     -0.056374991
EMP2(bb)=     -0.031996054
EMP2(ab)=     -0.192316167

Initial guess performed in     0.013 sec
E(0)                                       ...  -2399.874609337
E(MP2)                                     ...     -0.280687213
Initial E(tot)                             ...  -2400.155296550
<T|T>                                      ...      0.063112699
Number of pairs included                   ... 120

------------------------------------------------
                  UHF COUPLED CLUSTER ITERATIONS
------------------------------------------------

Number of amplitudes to be optimized       ...       307335

Iter       E(tot)           E(Corr)          Delta-E          Residual     Time      <S|S>**1/2
  0  -2400.155296550     -0.280687213     -0.000000000      0.025285228    0.54      0.000000776
                           *** Turning on DIIS ***
  1  -2400.152106454     -0.277497117      0.003190096      0.008168957    0.54      0.022102820
  2  -2400.158328330     -0.283718993     -0.006221876      0.004321383    0.53      0.025646970
  3  -2400.160115438     -0.285506101     -0.001787108      0.001250379    0.54      0.029240821
  4  -2400.160375014     -0.285765677     -0.000259575      0.000257732    0.55      0.030125810
  5  -2400.160396150     -0.285786813     -0.000021137      0.000097421    0.55      0.030314622
  6  -2400.160400526     -0.285791189     -0.000004376      0.000043006    0.55      0.030330757
  7  -2400.160400536     -0.285791199     -0.000000010      0.000013541    0.54      0.030324524
  8  -2400.160400518     -0.285791181      0.000000018      0.000003854    0.53      0.030321348
               --- The Coupled-Cluster iterations have converged ---

----------------------
COUPLED CLUSTER ENERGY
----------------------

E(0)                                       ...  -2399.874609337
E(CORR)                                    ...     -0.285791181
E(TOT)                                     ...  -2400.160400518
Singles norm <S|S>**1/2                    ...      0.030321348 ( 0.014318282, 0.016003066)  
T1 diagnostic                              ...      0.007580337                              

------------------
LARGEST AMPLITUDES
------------------
  17a-> 26a  15b-> 22b       0.049739
  15a-> 22a  14b-> 17b       0.039535
  15a-> 23a  14b-> 16b       0.039535
  16a-> 23a  14b-> 17b       0.039535
  16a-> 22a  14b-> 16b       0.039535
  17a-> 24a  15b-> 24b       0.038754
  17a-> 25a  15b-> 23b       0.038754
  16a-> 23a  15a-> 22a       0.035370
  16a-> 22a  15a-> 23a       0.035370
  17a-> 25a  14b-> 16b       0.035316
  17a-> 24a  14b-> 17b       0.035316
  17a-> 25a  16a-> 26a       0.031768
  17a-> 26a  16a-> 25a       0.031768
  17a-> 24a  15a-> 26a       0.031768
  17a-> 26a  15a-> 24a       0.031768
  17a-> 21a  15b-> 18b       0.027062

----------------------
UHF TRIPLES CORRECTION (Algorithm 1)
----------------------

Multiplier for the singles contribution    ...      1.000000000

SPIN-CASE Alpha-Alpha-Alpha:
10% done
20% done
30% done
40% done
50% done
60% done
70% done
80% done
90% done


SPIN-CASE Beta-Beta-Beta:
10% done
20% done
30% done
40% done
50% done
60% done
70% done
80% done
90% done


SPIN-CASE Alpha-Alpha-Beta:
10% done
20% done
30% done
40% done
50% done
60% done
70% done
80% done
90% done


SPIN-CASE Beta-Beta-Alpha:
10% done
20% done
30% done
40% done
50% done
60% done
70% done
80% done
90% done


Triples Correction (T)                     ...     -0.007920606
    alpha-alpha-alpha ... -0.000479322 (  6.1%)
    alpha-alpha-beta  ... -0.004880946 ( 61.6%)
    alpha-beta -beta  ... -0.002422240 ( 30.6%)
    beta -beta -beta  ... -0.000138098 (  1.7%)
Scaling of triples based on CCSD energies (Peterson et al. Molecular Physics 113, 1551 (2015))
E(T*) = f*E(T) where f = E(F12-CCSD)/E(CCSD) 
f = CCSD (with F12)/ CCSD (without F12)    ...      1.000000000
Scaled triples correction (T)              ...     -0.007920606

Final correlation energy                   ...     -0.293711787
E(CCSD)                                    ...  -2400.160400518
E(CCSD(T))                                 ...  -2400.168321124



        !!!!!!!!!!!!!!!!!!!!!!!!!!!!!!!!!!!!!!!!!!!!!!!!!!!!!!!!!!!!!!!!!!!!!!!!!! 
        !  Warning: Densities are linearized densities                           !
        !!!!!!!!!!!!!!!!!!!!!!!!!!!!!!!!!!!!!!!!!!!!!!!!!!!!!!!!!!!!!!!!!!!!!!!!!! 

NORM  =      1.079666257 sqrt=     1.039069900
W(HF) =      0.926212145
------------------------------------------------------------------------------
                           ORCA POPULATION ANALYSIS
------------------------------------------------------------------------------
Input electron density              ... 34_Se.mdcip
Input spin density                  ... 34_Se.mdcir
BaseName (.gbw .S,...)              ... 34_Se

                    ********************************
                    * MULLIKEN POPULATION ANALYSIS *
                    ********************************

------------------------------------------
MULLIKEN ATOMIC CHARGES AND SPIN DENSITIES
------------------------------------------
   0 Se:    0.000000    2.000000
Sum of atomic charges       :    0.0000000
Sum of atomic spin densities:    2.0000000

---------------------------------------------------
MULLIKEN REDUCED ORBITAL CHARGES AND SPIN DENSITIES
---------------------------------------------------
CHARGE
  0 Ses       :     7.965222  s :     7.965222
      pz      :     5.097007  p :    15.950669
      px      :     5.145908
      py      :     5.707754
      dz2     :     2.012295  d :    10.066135
      dxz     :     2.011570
      dyz     :     2.013949
      dx2y2   :     2.014157
      dxy     :     2.014164
      f0      :     0.002039  f :     0.016248
      f+1     :     0.001754
      f-1     :     0.002471
      f+2     :     0.002319
      f-2     :     0.002321
      f+3     :     0.002666
      f-3     :     0.002678
      g0      :     0.000167  g :     0.001726
      g+1     :     0.000140
      g-1     :     0.000202
      g+2     :     0.000182
      g-2     :     0.000182
      g+3     :     0.000200
      g-3     :     0.000200
      g+4     :     0.000226
      g-4     :     0.000226

SPIN
  0 Ses       :     0.019125  s :     0.019125
      pz      :     0.870133  p :     1.944035
      px      :     0.820734
      py      :     0.253168
      dz2     :     0.007399  d :     0.031253
      dxz     :     0.008291
      dyz     :     0.005351
      dx2y2   :     0.005097
      dxy     :     0.005116
      f0      :     0.000681  f :     0.005528
      f+1     :     0.000572
      f-1     :     0.000847
      f+2     :     0.000789
      f-2     :     0.000790
      f+3     :     0.000923
      f-3     :     0.000926
      g0      :     0.000013  g :     0.000058
      g+1     :     0.000020
      g-1     :     0.000004
      g+2     :     0.000009
      g-2     :     0.000009
      g+3     :     0.000004
      g-3     :     0.000004
      g+4     :    -0.000002
      g-4     :    -0.000002


                     *******************************
                     * LOEWDIN POPULATION ANALYSIS *
                     *******************************

-----------------------------------------
LOEWDIN ATOMIC CHARGES AND SPIN DENSITIES
-----------------------------------------
   0 Se:   -0.000000    2.000000

--------------------------------------------------
LOEWDIN REDUCED ORBITAL CHARGES AND SPIN DENSITIES
--------------------------------------------------
CHARGE
  0 Ses       :     7.965222  s :     7.965222
      pz      :     5.097007  p :    15.950669
      px      :     5.145908
      py      :     5.707754
      dz2     :     2.012295  d :    10.066135
      dxz     :     2.011570
      dyz     :     2.013949
      dx2y2   :     2.014157
      dxy     :     2.014164
      f0      :     0.002039  f :     0.016248
      f+1     :     0.001754
      f-1     :     0.002471
      f+2     :     0.002319
      f-2     :     0.002321
      f+3     :     0.002666
      f-3     :     0.002678
      g0      :     0.000167  g :     0.001726
      g+1     :     0.000140
      g-1     :     0.000202
      g+2     :     0.000182
      g-2     :     0.000182
      g+3     :     0.000200
      g-3     :     0.000200
      g+4     :     0.000226
      g-4     :     0.000226

SPIN
  0 Ses       :     0.019125  s :     0.019125
      pz      :     0.870133  p :     1.944035
      px      :     0.820734
      py      :     0.253168
      dz2     :     0.007399  d :     0.031253
      dxz     :     0.008291
      dyz     :     0.005351
      dx2y2   :     0.005097
      dxy     :     0.005116
      f0      :     0.000681  f :     0.005528
      f+1     :     0.000572
      f-1     :     0.000847
      f+2     :     0.000789
      f-2     :     0.000790
      f+3     :     0.000923
      f-3     :     0.000926
      g0      :     0.000013  g :     0.000058
      g+1     :     0.000020
      g-1     :     0.000004
      g+2     :     0.000009
      g-2     :     0.000009
      g+3     :     0.000004
      g-3     :     0.000004
      g+4     :    -0.000002
      g-4     :    -0.000002


                      *****************************
                      * MAYER POPULATION ANALYSIS *
                      *****************************

  NA   - Mulliken gross atomic population
  ZA   - Total nuclear charge
  QA   - Mulliken gross atomic charge
  VA   - Mayer's total valence
  BVA  - Mayer's bonded valence
  FA   - Mayer's free valence

  ATOM       NA         ZA         QA         VA         BVA        FA
  0 Se    34.0000    34.0000     0.0000     2.5028     0.0000     2.5028





------------------------------------------------------------------------------- 
                                     TIMINGS                                   
------------------------------------------------------------------------------- 


Total execution time                   ...       12.993 sec

Fock Matrix Formation                  ...        0.462 sec (  3.6%)
Initial Guess                          ...        0.013 sec (  0.1%)
DIIS Solver                            ...        0.214 sec (  1.6%)
State Vector Update                    ...        0.012 sec (  0.1%)
Sigma-vector construction              ...        4.653 sec ( 35.8%)
  <D|H|D>(0-ext Fock)                  ...        0.003 sec (  0.1% of sigma)
  <D|H|D>(0-ext)                       ...        0.009 sec (  0.2% of sigma)
  <D|H|D>(2-ext Fock)                  ...        0.001 sec (  0.0% of sigma)
  <D|H|D>(2-ext)                       ...        0.042 sec (  0.9% of sigma)
  <D|H|D>(4-ext)                       ...        1.555 sec ( 33.4% of sigma)
  <S|H|0>                              ...        0.090 sec (  1.9% of sigma)
  <S|H|D>(1-ext)                       ...        0.001 sec (  0.0% of sigma)
  <D|H|S>(1-ext)                       ...        0.021 sec (  0.5% of sigma)
  Fock-dressing                        ...        2.215 sec ( 47.6% of sigma)
  (ik|jl)-dressing                     ...        0.013 sec (  0.3% of sigma)
  (ij|ab),(ia|jb)-dressing             ...        0.518 sec ( 11.1% of sigma)
  Pair energies                        ...        0.002 sec (  0.0% of sigma)
Total Time for computing (T)           ...        0.324 sec (  2.5% of ALL)
  I/O of integral and amplitudes       ...        0.085 sec ( 26.3% of (T))
  External N**7 contributions          ...        0.080 sec ( 24.9% of (T))
  Internal N**7 contributions          ...        0.040 sec ( 12.3% of (T))
  N**6 triples energy contributions    ...        0.107 sec ( 33.0% of (T))


-------------------------   --------------------
FINAL SINGLE POINT ENERGY     -2400.168321123956
-------------------------   --------------------


                            ***************************************
                            *     ORCA property calculations      *
                            ***************************************

                                    ---------------------
                                    Active property flags
                                    ---------------------
   (+) Dipole Moment


------------------------------------------------------------------------------
                       ORCA ELECTRIC PROPERTIES CALCULATION
------------------------------------------------------------------------------

Dipole Moment Calculation                       ... on
Quadrupole Moment Calculation                   ... off
Polarizability Calculation                      ... off
GBWName                                         ... 34_Se.gbw
Electron density file                           ... 34_Se.scfp
The origin for moment calculation is the CENTER OF MASS  = ( 0.000000,  0.000000  0.000000)

-------------
DIPOLE MOMENT
-------------
                                X             Y             Z
Electronic contribution:      0.00000       0.00000       0.00000
Nuclear contribution   :      0.00000       0.00000       0.00000
                        -----------------------------------------
Total Dipole Moment    :      0.00000       0.00000       0.00000
                        -----------------------------------------
Magnitude (a.u.)       :      0.00000
Magnitude (Debye)      :      0.00000



--------------------
Rotational spectrum 
--------------------
 
Rotational constants in cm-1:     0.000000     0.000000     0.000000 
Rotational constants in MHz :     0.000000     0.000000     0.000000 

 Dipole components along the rotational axes: 
x,y,z [a.u.] :     0.000000     0.000000     0.000000 
x,y,z [Debye]:     0.000000     0.000000     0.000000 

 

                           *** MDCI DENSITY ***

------------------------------------------------------------------------------
                       ORCA ELECTRIC PROPERTIES CALCULATION
------------------------------------------------------------------------------

Dipole Moment Calculation                       ... on
Quadrupole Moment Calculation                   ... off
Polarizability Calculation                      ... off
GBWName                                         ... 34_Se.gbw
Electron density file                           ... 34_Se.mdcip
The origin for moment calculation is the CENTER OF MASS  = ( 0.000000,  0.000000  0.000000)

-------------
DIPOLE MOMENT
-------------
                                X             Y             Z
Electronic contribution:     -0.00000      -0.00000      -0.00000
Nuclear contribution   :      0.00000       0.00000       0.00000
                        -----------------------------------------
Total Dipole Moment    :     -0.00000      -0.00000      -0.00000
                        -----------------------------------------
Magnitude (a.u.)       :      0.00000
Magnitude (Debye)      :      0.00000



--------------------
Rotational spectrum 
--------------------
 
Rotational constants in cm-1:     0.000000     0.000000     0.000000 
Rotational constants in MHz :     0.000000     0.000000     0.000000 

 Dipole components along the rotational axes: 
x,y,z [a.u.] :    -0.000000    -0.000000    -0.000000 
x,y,z [Debye]:    -0.000000    -0.000000    -0.000000 

 

Timings for individual modules:

Sum of individual times         ...       24.059 sec (=   0.401 min)
GTO integral calculation        ...        0.806 sec (=   0.013 min)   3.3 %
SCF iterations                  ...        9.700 sec (=   0.162 min)  40.3 %
MDCI module                     ...       13.553 sec (=   0.226 min)  56.3 %
                             ****ORCA TERMINATED NORMALLY****
TOTAL RUN TIME: 0 days 0 hours 0 minutes 24 seconds 871 msec
