
                                 *****************
                                 * O   R   C   A *
                                 *****************

           --- An Ab Initio, DFT and Semiempirical electronic structure package ---

                  #######################################################
                  #                        -***-                        #
                  #          Department of theory and spectroscopy      #
                  #               Directorship: Frank Neese             #
                  #        Max Planck Institute fuer Kohlenforschung    #
                  #                Kaiser Wilhelm Platz 1               #
                  #                 D-45470 Muelheim/Ruhr               #
                  #                      Germany                        #
                  #                                                     #
                  #                  All rights reserved                #
                  #                        -***-                        #
                  #######################################################


                         Program Version 4.2.0 -  RELEASE  -


 With contributions from (in alphabetic order):
   Daniel Aravena         : Magnetic Suceptibility
   Michael Atanasov       : Ab Initio Ligand Field Theory (pilot matlab implementation)
   Alexander A. Auer      : GIAO ZORA, VPT2
   Ute Becker             : Parallelization
   Giovanni Bistoni       : ED, misc. LED, open-shell LED, HFLED
   Martin Brehm           : Molecular dynamics
   Dmytro Bykov           : SCF Hessian
   Vijay G. Chilkuri      : MRCI spin determinant printing, contributions to CSF-ICE
   Dipayan Datta          : RHF DLPNO-CCSD density
   Achintya Kumar Dutta   : EOM-CC, STEOM-CC
   Dmitry Ganyushin       : Spin-Orbit,Spin-Spin,Magnetic field MRCI
   Miquel Garcia          : C-PCM Hessian, Gaussian charge scheme
   Yang Guo               : DLPNO-NEVPT2, CIM, IAO-localization
   Andreas Hansen         : Spin unrestricted coupled pair/coupled cluster methods
   Benjamin Helmich-Paris : CASSCF linear response (MC-RPA)
   Lee Huntington         : MR-EOM, pCC
   Robert Izsak           : Overlap fitted RIJCOSX, COSX-SCS-MP3, EOM
   Christian Kollmar      : KDIIS, OOCD, Brueckner-CCSD(T), CCSD density
   Simone Kossmann        : Meta GGA functionals, TD-DFT gradient, OOMP2, MP2 Hessian
   Martin Krupicka        : AUTO-CI
   Lucas Lang             : DCDCAS
   Dagmar Lenk            : GEPOL surface, SMD
   Dimitrios Liakos       : Extrapolation schemes; Compound Job, initial MDCI parallelization
   Dimitrios Manganas     : Further ROCIS development; embedding schemes
   Dimitrios Pantazis     : SARC Basis sets
   Taras Petrenko         : DFT Hessian,TD-DFT gradient, ASA, ECA, R-Raman, ABS, FL, XAS/XES, NRVS
   Peter Pinski           : DLPNO-MP2, DLPNO-MP2 Gradient
   Christoph Reimann      : Effective Core Potentials
   Marius Retegan         : Local ZFS, SOC
   Christoph Riplinger    : Optimizer, TS searches, QM/MM, DLPNO-CCSD(T), (RO)-DLPNO pert. Triples
   Tobias Risthaus        : Range-separated hybrids, TD-DFT gradient, RPA, STAB
   Michael Roemelt        : Original ROCIS implementation
   Masaaki Saitow         : Open-shell DLPNO-CCSD energy and density
   Barbara Sandhoefer     : DKH picture change effects
   Avijit Sen             : IP-ROCIS
   Kantharuban Sivalingam : CASSCF convergence, NEVPT2, FIC-MRCI
   Bernardo de Souza      : ESD, SOC TD-DFT
   Georgi Stoychev        : AutoAux, RI-MP2 NMR
   Willem Van den Heuvel  : Paramagnetic NMR
   Boris Wezisla          : Elementary symmetry handling
   Frank Wennmohs         : Technical directorship


 We gratefully acknowledge several colleagues who have allowed us to
 interface, adapt or use parts of their codes:
   Stefan Grimme, W. Hujo, H. Kruse,             : VdW corrections, initial TS optimization,
                  C. Bannwarth                     DFT functionals, gCP, sTDA/sTD-DF
   Ed Valeev, F. Pavosevic, A. Kumar             : LibInt (2-el integral package), F12 methods
   Garnet Chan, S. Sharma, J. Yang, R. Olivares  : DMRG
   Ulf Ekstrom                                   : XCFun DFT Library
   Mihaly Kallay                                 : mrcc  (arbitrary order and MRCC methods)
   Andreas Klamt, Michael Diedenhofen            : otool_cosmo (COSMO solvation model)
   Jiri Pittner, Ondrej Demel                    : Mk-CCSD
   Frank Weinhold                                : gennbo (NPA and NBO analysis)
   Christopher J. Cramer and Donald G. Truhlar   : smd solvation model
   Lars Goerigk                                  : TD-DFT with DH, B97 family of functionals
   V. Asgeirsson, H. Jonsson                     : NEB implementation
   FAccTs GmbH                                   : IRC, NEB, NEB-TS, Multilevel, MM, QM/MM, CI optimization
   S Lehtola, MJT Oliveira, MAL Marques          : LibXC Library


 Your calculation uses the libint2 library for the computation of 2-el integrals
 For citations please refer to: http://libint.valeyev.net

 Your ORCA version has been built with support for libXC version: 4.2.3
 For citations please refer to: https://tddft.org/programs/libxc/

 This ORCA versions uses:
   CBLAS   interface :  Fast vector & matrix operations
   LAPACKE interface :  Fast linear algebra routines
   SCALAPACK package :  Parallel linear algebra routines


----- Orbital basis set information -----
Your calculation utilizes the basis: def2-QZVP
   F. Weigend and R. Ahlrichs, Phys. Chem. Chem. Phys. 7, 3297 (2005).

cite the ECPs for  Y [Def2-ECP] as follows:
Ce-Yb(ecp-28): M. Dolg, H. Stoll, H.Preuss, J. Chem. Phys., 1989, 90, 1730-1734.
Y-Cd(ecp-28), Hf-Hg(ecp-46): D. Andrae,U. Haeussermann, M. Dolg, H. Stoll, H. Preuss, Theor. Chim. Acta, 1990, 77, 123-141.
In-Sb(ecp-28), Tl-Bi(ecp-46): B. Metz, H. Stoll, M. Dolg, J. Chem. Phys., 2000, 113, 2563-2569.
Te-Xe(ecp-28), Po-Rn(ecp-46): K. A. Peterson, D. Figgen, E. Goll, H. Stoll, M. Dolg, J. Chem. Phys., 2003, 119, 11113-11123.
Rb(ecp-28), Cs(ecp-46): T. Leininger, A. Nicklass, W. Kuechle, H. Stoll, M. Dolg, A. Bergner, Chem. Phys. Lett., 1996, 255, 274-280.
Sr(ecp-28), Ba(ecp-46): M. Kaupp, P. V. Schleyer, H. Stoll and H. Preuss, J. Chem. Phys., 1991, 94, 1360-1366.
La(ecp-46): M. Dolg, H. Stoll, A. Savin, H. Preuss, Theor. Chim. Acta, 1989, 75, 173-194.
Lu(ecp-28): X. Cao, M. Dolg, J. Chem. Phys., 2001, 115, 7348-7355.

ECP parameters for  Y [Def2-ECP] have been obtained from:
TURBOMOLE (7.0.2)

================================================================================
                                        WARNINGS
                       Please study these warnings very carefully!
================================================================================


WARNING: your system is open-shell and RHF/RKS was chosen
  ===> : WILL SWITCH to UHF/UKS


WARNING: MDCI localization with Augmented Hessian Foster-Boys
  ===> : Switching off randomization!

WARNING: Post HF methods need fully converged wavefunctions
  ===> : Setting SCFConvForced true
         You can overwrite this default with %scf ConvForced false 


INFO   : the flag for use of LIBINT has been found!

================================================================================
                                       INPUT FILE
================================================================================
NAME = 39_Y.in
|  1> #
|  2> # 39_Y CCSD(T)/Def2-QZVP
|  3> #
|  4> ! CCSD(T) Def2-QZVP tightscf
|  5> 
|  6> *xyz 0 2
|  7>  Y 0.0 0.0 0.0
|  8> *
|  9> 
| 10> %maxcore 5000 
| 11> 
| 12> %pal
| 13> nprocs 24
| 14> end
| 15> 
| 16> 
| 17>                          ****END OF INPUT****
================================================================================

                       ****************************
                       * Single Point Calculation *
                       ****************************

---------------------------------
CARTESIAN COORDINATES (ANGSTROEM)
---------------------------------
   Y     0.000000    0.000000    0.000000

----------------------------
CARTESIAN COORDINATES (A.U.)
----------------------------
  NO LB      ZA    FRAG     MASS         X           Y           Z
   0  Y   11.0000*   0    88.910    0.000000    0.000000    0.000000
* core charge reduced due to ECP

--------------------------------
INTERNAL COORDINATES (ANGSTROEM)
--------------------------------
  Y     0   0   0     0.000000000000     0.00000000     0.00000000

---------------------------
INTERNAL COORDINATES (A.U.)
---------------------------
  Y     0   0   0     0.000000000000     0.00000000     0.00000000

---------------------
BASIS SET INFORMATION
---------------------
There are 1 groups of distinct atoms

 Group   1 Type  Y  : 8s8p7d3f1g contracted to 7s5p4d3f1g pattern {2111111/41111/4111/111/1}

Atom   0 Y   basis set group =>   1
-------------------------
ECP PARAMETER INFORMATION
-------------------------

 Group 1, Type  Y ECP Def2-ECP (replacing 28 core electrons, lmax=3)

Atom   0 Y   ECP group =>   1



           ************************************************************
           *        Program running with 24 parallel MPI-processes    *
           *              working on a common directory               *
           ************************************************************
------------------------------------------------------------------------------
                           ORCA GTO INTEGRAL CALCULATION
------------------------------------------------------------------------------

                         BASIS SET STATISTICS AND STARTUP INFO

 # of primitive gaussian shells          ...   27
 # of primitive gaussian functions       ...   97
 # of contracted shells                  ...   20
 # of contracted basis functions         ...   72
 Highest angular momentum                ...    4
 Maximum contraction depth               ...    4
 Integral package used                   ... LIBINT
 Integral threshhold            Thresh   ...  2.500e-11
 Primitive cut-off              TCut     ...  2.500e-12


------------------------------ INTEGRAL EVALUATION ----------------------------


 * One electron integrals 

   ECP integrals                         ... done
 Pre-screening matrix                    ... done
 Shell pair data                         ... done (   0.000 sec)



           ************************************************************
           *        Program running with 24 parallel MPI-processes    *
           *              working on a common directory               *
           ************************************************************
-------------------------------------------------------------------------------
                                 ORCA SCF
-------------------------------------------------------------------------------

------------
SCF SETTINGS
------------
Hamiltonian:
 Ab initio Hamiltonian  Method          .... Hartree-Fock(GTOs)


General Settings:
 Integral files         IntName         .... 39_Y
 Hartree-Fock type      HFTyp           .... UHF
 Total Charge           Charge          ....    0
 Multiplicity           Mult            ....    2
 Number of Electrons    NEL             ....   11
 Basis Dimension        Dim             ....   72
 Nuclear Repulsion      ENuc            ....      0.0000000000 Eh

Convergence Acceleration:
 DIIS                   CNVDIIS         .... on
   Start iteration      DIISMaxIt       ....    12
   Startup error        DIISStart       ....  0.200000
   # of expansion vecs  DIISMaxEq       ....     5
   Bias factor          DIISBfac        ....   1.050
   Max. coefficient     DIISMaxC        ....  10.000
 Newton-Raphson         CNVNR           .... off
 SOSCF                  CNVSOSCF        .... off
 Level Shifting         CNVShift        .... on
   Level shift para.    LevelShift      ....    0.2500
   Turn off err/grad.   ShiftErr        ....    0.0010
 Zerner damping         CNVZerner       .... off
 Static damping         CNVDamp         .... on
   Fraction old density DampFac         ....    0.7000
   Max. Damping (<1)    DampMax         ....    0.9800
   Min. Damping (>=0)   DampMin         ....    0.0000
   Turn off err/grad.   DampErr         ....    0.1000
 Fernandez-Rico         CNVRico         .... off

SCF Procedure:
 Maximum # iterations   MaxIter         ....   125
 SCF integral mode      SCFMode         .... Direct
   Integral package                     .... LIBINT
 Reset frequency        DirectResetFreq ....    20
 Integral Threshold     Thresh          ....  2.500e-11 Eh
 Primitive CutOff       TCut            ....  2.500e-12 Eh

Convergence Tolerance:
 Convergence Check Mode ConvCheckMode   .... Total+1el-Energy
 Convergence forced     ConvForced      .... 1
 Energy Change          TolE            ....  1.000e-08 Eh
 1-El. energy change                    ....  1.000e-05 Eh
 DIIS Error             TolErr          ....  5.000e-07


Diagonalization of the overlap matrix:
Smallest eigenvalue                        ... 4.808e-03
Time for diagonalization                   ...    0.003 sec
Threshold for overlap eigenvalues          ... 1.000e-08
Number of eigenvalues below threshold      ... 0
Time for construction of square roots      ...    0.012 sec
Total time needed                          ...    0.014 sec

-------------------
DFT GRID GENERATION
-------------------

General Integration Accuracy     IntAcc      ...  4.340
Radial Grid Type                 RadialGrid  ... Gauss-Chebyshev
Angular Grid (max. acc.)         AngularGrid ... Lebedev-110
Angular grid pruning method      GridPruning ... 3 (G Style)
Weight generation scheme         WeightScheme... Becke
Basis function cutoff            BFCut       ...    1.0000e-11
Integration weight cutoff        WCut        ...    1.0000e-14
Grids for H and He will be reduced by one unit

# of grid points (after initial pruning)     ...   3280 (   0.0 sec)
# of grid points (after weights+screening)   ...   3280 (   0.0 sec)
Grid point division into batches done        ...    0.0 sec
Reduced shell lists constructed in    0.0 sec

Total number of grid points                  ...     3280
Total number of batches                      ...       52
Average number of points per batch           ...       63
Average number of grid points per atom       ...     3280
Average number of shells per batch           ...     8.00 (40.00%)
Average number of basis functions per batch  ...    31.50 (43.75%)
Average number of large shells per batch     ...     6.75 (84.38%)
Average number of large basis fcns per batch ...    26.25 (83.33%)
Maximum spatial batch extension              ...  23.83, 37.49, 37.49 au
Average spatial batch extension              ...   1.37,  1.91,  2.16 au

Time for grid setup =    0.063 sec

------------------------------
INITIAL GUESS: MODEL POTENTIAL
------------------------------
Loading Hartree-Fock densities                     ... done
  calling /sw/apps/orca/orca_4_2_0_linux_x86-64_openmpi314/orca 39_Y_atom39.inp > 39_Y_atom39.out in order to generate an atomic fitting density for atom 0 ( Y with ECP) on-the-fly... 
    atom 0 ( Y), assumed electronic state with S=2: 1s2 2s2 2p6 3s2 3p6 4s2 3d10 4p6 4d1 5s2           ... done
Calculating cut-offs                               ... done
Setting up the integral package                    ... done
Initializing the effective Hamiltonian             ... done
Starting the Coulomb interaction                   ... done (   0.0 sec)
Reading the grid                                   ... done
Mapping shells                                     ... done
Starting the XC term evaluation                    ... done (   0.0 sec)
Transforming the Hamiltonian                       ... done (   0.0 sec)
Diagonalizing the Hamiltonian                      ... done (   0.0 sec)
Back transforming the eigenvectors                 ... done (   0.0 sec)
Now organizing SCF variables                       ... done
                      ------------------
                      INITIAL GUESS DONE (   3.9 sec)
                      ------------------
--------------
SCF ITERATIONS
--------------
ITER       Energy         Delta-E        Max-DP      RMS-DP      [F,P]     Damp
               ***  Starting incremental Fock matrix formation  ***
  0    -37.7208139293   0.000000000000 0.15104331  0.00344552  0.3536340 0.7000
  1    -37.7485581218  -0.027744192533 0.16183866  0.00323153  0.2507838 0.7000
                               ***Turning on DIIS***
  2    -37.7688890016  -0.020330879796 0.13226193  0.00250712  0.1760122 0.7000
  3    -37.9461709023  -0.177281900729 0.10536550  0.00190491  0.1236024 0.7000
  4    -37.9481345170  -0.001963614672 0.26816832  0.00472812  0.0870687 0.0000
  5    -37.8167373166   0.131397200382 0.01679093  0.00040161  0.0061505 0.0000
  6    -37.8261938424  -0.009456525751 0.01234544  0.00035650  0.0039948 0.0000
  7    -37.8255664380   0.000627404386 0.01491434  0.00029065  0.0023150 0.0000
  8    -37.8247602906   0.000806147354 0.01568628  0.00026323  0.0013599 0.0000
  9    -37.8217232033   0.003037087350 0.02696530  0.00040298  0.0008686 0.0000
 10    -37.8198586946   0.001864508739 0.00360983  0.00007785  0.0005190 0.0000
 11    -37.8199018199  -0.000043125334 0.00290937  0.00010944  0.0004161 0.0000
 12    -37.8183510899   0.001550729992 0.00410140  0.00017468  0.0003372 0.0000
 13    -37.8191455861  -0.000794496169 0.00249154  0.00010405  0.0001876 0.0000
 14    -37.8184924224   0.000653163689 0.00264878  0.00011145  0.0000941 0.0000
 15    -37.8196060278  -0.001113605463 0.00091329  0.00003923  0.0000412 0.0000
 16    -37.8210646541  -0.001458626264 0.00067749  0.00002882  0.0000277 0.0000
 17    -37.8206498870   0.000414767104 0.00007643  0.00000335  0.0000174 0.0000
 18    -37.8204221249   0.000227762101 0.00018082  0.00000773  0.0000169 0.0000
 19    -37.8203655966   0.000056528334 0.00017414  0.00000749  0.0000166 0.0000
               *** Restarting incremental Fock matrix formation ***
                                   *** Resetting DIIS ***
 20    -37.8205204616  -0.000154865012 0.00000837  0.00000029  0.0000159 0.0000
 21    -37.8205192146   0.000001246949 0.00001298  0.00000040  0.0000154 0.0000
 22    -37.8205142380   0.000004976603 0.00003769  0.00000111  0.0000147 0.0000
 23    -37.8205048157   0.000009422318 0.00009843  0.00000286  0.0000127 0.0000
 24    -37.8205112473  -0.000006431605 0.00006909  0.00000198  0.0000073 0.0000
 25    -37.8205174644  -0.000006217083 0.00004152  0.00000119  0.0000035 0.0000
 26    -37.8205214553  -0.000003990941 0.00002027  0.00000061  0.0000021 0.0000
                            ***DIIS convergence achieved***

               *****************************************************
               *                     SUCCESS                       *
               *           SCF CONVERGED AFTER  27 CYCLES          *
               *****************************************************


----------------
TOTAL SCF ENERGY
----------------

Total Energy       :          -37.82052157 Eh           -1029.14871 eV

Components:
Nuclear Repulsion  :            0.00000000 Eh               0.00000 eV
Electronic Energy  :          -37.82052157 Eh           -1029.14871 eV
One Electron Energy:          -62.66203347 Eh           -1705.12062 eV
Two Electron Energy:           24.84151190 Eh             675.97190 eV

Virial components:
Potential Energy   :          -49.84437466 Eh           -1356.33439 eV
Kinetic Energy     :           12.02385309 Eh             327.18568 eV
Virial Ratio       :            4.14545772


---------------
SCF CONVERGENCE
---------------

  Last Energy change         ...   -1.1409e-07  Tolerance :   1.0000e-08
  Last MAX-Density change    ...    4.2607e-06  Tolerance :   1.0000e-07
  Last RMS-Density change    ...    1.4885e-07  Tolerance :   5.0000e-09
  Last DIIS Error            ...    5.1027e-07  Tolerance :   5.0000e-07

             **** THE GBW FILE WAS UPDATED (39_Y.gbw) ****
             **** DENSITY FILE WAS UPDATED (39_Y.scfp) ****
             **** ENERGY FILE WAS UPDATED (39_Y.en.tmp) ****
----------------------
UHF SPIN CONTAMINATION
----------------------

Expectation value of <S**2>     :     0.864025
Ideal value S*(S+1) for S=0.5   :     0.750000
Deviation                       :     0.114025

             **** THE GBW FILE WAS UPDATED (39_Y.gbw) ****
             **** DENSITY FILE WAS UPDATED (39_Y.scfp) ****
----------------
ORBITAL ENERGIES
----------------
                 SPIN UP ORBITALS
  NO   OCC          E(Eh)            E(eV) 
   0   1.0000      -2.269591       -61.7587 
   1   1.0000      -1.332723       -36.2652 
   2   1.0000      -1.332723       -36.2652 
   3   1.0000      -1.308769       -35.6134 
   4   1.0000      -0.238273        -6.4837 
   5   1.0000      -0.210851        -5.7375 
   6   0.0000       0.017664         0.4807 
   7   0.0000       0.017664         0.4807 
   8   0.0000       0.024980         0.6797 
   9   0.0000       0.058693         1.5971 
  10   0.0000       0.079758         2.1703 
  11   0.0000       0.079758         2.1703 
  12   0.0000       0.079879         2.1736 
  13   0.0000       0.085195         2.3183 
  14   0.0000       0.125470         3.4142 
  15   0.0000       0.125470         3.4142 
  16   0.0000       0.133584         3.6350 
  17   0.0000       0.150837         4.1045 
  18   0.0000       0.188664         5.1338 
  19   0.0000       0.191619         5.2142 
  20   0.0000       0.191619         5.2142 
  21   0.0000       0.199538         5.4297 
  22   0.0000       0.302570         8.2333 
  23   0.0000       0.330655         8.9976 
  24   0.0000       0.330655         8.9976 
  25   0.0000       0.333418         9.0728 
  26   0.0000       0.339242         9.2313 
  27   0.0000       0.339452         9.2370 
  28   0.0000       0.339452         9.2370 
  29   0.0000       0.339766         9.2455 
  30   0.0000       0.556891        15.1538 
  31   0.0000       0.556928        15.1548 
  32   0.0000       0.557026        15.1575 
  33   0.0000       0.557062        15.1584 
  34   0.0000       0.557062        15.1584 
  35   0.0000       0.557606        15.1732 
  36   0.0000       0.557759        15.1774 
  37   0.0000       0.557829        15.1793 
  38   0.0000       0.557829        15.1793 
  39   0.0000       0.557896        15.1811 
  40   0.0000       0.585682        15.9372 
  41   0.0000       0.588161        16.0047 
  42   0.0000       0.588161        16.0047 
  43   0.0000       0.596265        16.2252 
  44   0.0000       0.676647        18.4125 
  45   0.0000       0.676647        18.4125 
  46   0.0000       0.678805        18.4712 
  47   0.0000       0.934765        25.4363 
  48   0.0000       0.934766        25.4363 
  49   0.0000       0.939935        25.5769 
  50   0.0000       0.956092        26.0166 
  51   0.0000       0.958733        26.0885 
  52   0.0000       0.958733        26.0885 
  53   0.0000       0.962087        26.1797 
  54   0.0000       1.595056        43.4037 
  55   0.0000       1.789244        48.6878 
  56   0.0000       1.798599        48.9424 
  57   0.0000       1.801764        49.0285 
  58   0.0000       1.801765        49.0285 
  59   0.0000       1.812954        49.3330 
  60   0.0000       2.361118        64.2493 
  61   0.0000       2.361207        64.2517 
  62   0.0000       2.361207        64.2517 
  63   0.0000       2.366337        64.3913 
  64   0.0000       2.371847        64.5412 
  65   0.0000       2.371847        64.5412 
  66   0.0000       2.374896        64.6242 
  67   0.0000       7.197915       195.8652 
  68   0.0000       7.210157       196.1984 
  69   0.0000       7.210157       196.1984 
  70   0.0000      19.487850       530.2914 
  71   0.0000      67.894950      1847.5155 

                 SPIN DOWN ORBITALS
  NO   OCC          E(Eh)            E(eV) 
   0   1.0000      -2.241482       -60.9938 
   1   1.0000      -1.305449       -35.5231 
   2   1.0000      -1.271662       -34.6037 
   3   1.0000      -1.271661       -34.6037 
   4   1.0000      -0.195822        -5.3286 
   5   0.0000       0.014314         0.3895 
   6   0.0000       0.028249         0.7687 
   7   0.0000       0.028249         0.7687 
   8   0.0000       0.058415         1.5896 
   9   0.0000       0.084998         2.3129 
  10   0.0000       0.084998         2.3129 
  11   0.0000       0.086635         2.3575 
  12   0.0000       0.094981         2.5846 
  13   0.0000       0.104054         2.8315 
  14   0.0000       0.125074         3.4034 
  15   0.0000       0.142540         3.8787 
  16   0.0000       0.142540         3.8787 
  17   0.0000       0.192363         5.2345 
  18   0.0000       0.198017         5.3883 
  19   0.0000       0.198017         5.3883 
  20   0.0000       0.206175         5.6103 
  21   0.0000       0.220306         5.9948 
  22   0.0000       0.313776         8.5383 
  23   0.0000       0.338214         9.2033 
  24   0.0000       0.339046         9.2259 
  25   0.0000       0.339046         9.2259 
  26   0.0000       0.340680         9.2704 
  27   0.0000       0.344609         9.3773 
  28   0.0000       0.349731         9.5167 
  29   0.0000       0.349731         9.5167 
  30   0.0000       0.556567        15.1450 
  31   0.0000       0.556894        15.1539 
  32   0.0000       0.556894        15.1539 
  33   0.0000       0.557348        15.1662 
  34   0.0000       0.560833        15.2610 
  35   0.0000       0.562580        15.3086 
  36   0.0000       0.562580        15.3086 
  37   0.0000       0.567300        15.4370 
  38   0.0000       0.567318        15.4375 
  39   0.0000       0.590296        16.0628 
  40   0.0000       0.593649        16.1540 
  41   0.0000       0.593649        16.1540 
  42   0.0000       0.600800        16.3486 
  43   0.0000       0.615125        16.7384 
  44   0.0000       0.674620        18.3573 
  45   0.0000       0.699618        19.0376 
  46   0.0000       0.699618        19.0376 
  47   0.0000       0.961777        26.1713 
  48   0.0000       0.963167        26.2091 
  49   0.0000       0.963167        26.2091 
  50   0.0000       0.965744        26.2792 
  51   0.0000       0.977773        26.6065 
  52   0.0000       0.989760        26.9327 
  53   0.0000       0.989760        26.9327 
  54   0.0000       1.607929        43.7540 
  55   0.0000       1.804468        49.1021 
  56   0.0000       1.807407        49.1821 
  57   0.0000       1.807407        49.1821 
  58   0.0000       1.816116        49.4190 
  59   0.0000       1.834040        49.9068 
  60   0.0000       2.373510        64.5865 
  61   0.0000       2.374445        64.6119 
  62   0.0000       2.374445        64.6119 
  63   0.0000       2.376152        64.6584 
  64   0.0000       2.390675        65.0536 
  65   0.0000       2.402335        65.3709 
  66   0.0000       2.402335        65.3709 
  67   0.0000       7.199107       195.8977 
  68   0.0000       7.221817       196.5156 
  69   0.0000       7.221818       196.5156 
  70   0.0000      19.490001       530.3499 
  71   0.0000      67.895152      1847.5210 

                    ********************************
                    * MULLIKEN POPULATION ANALYSIS *
                    ********************************

--------------------------------------------
MULLIKEN ATOMIC CHARGES AND SPIN POPULATIONS
--------------------------------------------
   0  Y:   -0.000000    1.000000
Sum of atomic charges         :   -0.0000000
Sum of atomic spin populations:    1.0000000

-----------------------------------------------------
MULLIKEN REDUCED ORBITAL CHARGES AND SPIN POPULATIONS
-----------------------------------------------------
CHARGE
  0  Ys       :     3.939143  s :     3.939143
      pz      :     1.999892  p :     5.998634
      px      :     1.999369
      py      :     1.999373
      dz2     :     0.059513  d :     1.060700
      dxz     :     0.006356
      dyz     :     0.001588
      dx2y2   :     0.000002
      dxy     :     0.993241
      f0      :     0.000104  f :     0.001366
      f+1     :     0.000095
      f-1     :     0.000098
      f+2     :     0.000003
      f-2     :     0.000011
      f+3     :     0.000526
      f-3     :     0.000529
      g0      :     0.000007  g :     0.000157
      g+1     :     0.000001
      g-1     :     0.000000
      g+2     :     0.000000
      g-2     :     0.000024
      g+3     :     0.000001
      g-3     :     0.000002
      g+4     :     0.000123
      g-4     :     0.000000

SPIN
  0  Ys       :     0.031819  s :     0.031819
      pz      :     0.000087  p :    -0.000801
      px      :    -0.000445
      py      :    -0.000442
      dz2     :    -0.031224  d :     0.968101
      dxz     :     0.006230
      dyz     :    -0.000144
      dx2y2   :    -0.000001
      dxy     :     0.993240
      f0      :    -0.000089  f :     0.000801
      f+1     :    -0.000040
      f-1     :    -0.000040
      f+2     :     0.000002
      f-2     :     0.000006
      f+3     :     0.000479
      f-3     :     0.000481
      g0      :    -0.000003  g :     0.000080
      g+1     :     0.000001
      g-1     :    -0.000000
      g+2     :    -0.000000
      g-2     :     0.000024
      g+3     :     0.000001
      g-3     :     0.000001
      g+4     :     0.000057
      g-4     :     0.000000


                     *******************************
                     * LOEWDIN POPULATION ANALYSIS *
                     *******************************

-------------------------------------------
LOEWDIN ATOMIC CHARGES AND SPIN POPULATIONS
-------------------------------------------
   0  Y:   -0.000000    1.000000

----------------------------------------------------
LOEWDIN REDUCED ORBITAL CHARGES AND SPIN POPULATIONS
----------------------------------------------------
CHARGE
  0  Ys       :     3.939143  s :     3.939143
      pz      :     1.999892  p :     5.998634
      px      :     1.999369
      py      :     1.999373
      dz2     :     0.059513  d :     1.060700
      dxz     :     0.006356
      dyz     :     0.001588
      dx2y2   :     0.000002
      dxy     :     0.993241
      f0      :     0.000104  f :     0.001366
      f+1     :     0.000095
      f-1     :     0.000098
      f+2     :     0.000003
      f-2     :     0.000011
      f+3     :     0.000526
      f-3     :     0.000529
      g0      :     0.000007  g :     0.000157
      g+1     :     0.000001
      g-1     :     0.000000
      g+2     :     0.000000
      g-2     :     0.000024
      g+3     :     0.000001
      g-3     :     0.000002
      g+4     :     0.000123
      g-4     :     0.000000

SPIN
  0  Ys       :     0.031819  s :     0.031819
      pz      :     0.000087  p :    -0.000801
      px      :    -0.000445
      py      :    -0.000442
      dz2     :    -0.031224  d :     0.968101
      dxz     :     0.006230
      dyz     :    -0.000144
      dx2y2   :    -0.000001
      dxy     :     0.993240
      f0      :    -0.000089  f :     0.000801
      f+1     :    -0.000040
      f-1     :    -0.000040
      f+2     :     0.000002
      f-2     :     0.000006
      f+3     :     0.000479
      f-3     :     0.000481
      g0      :    -0.000003  g :     0.000080
      g+1     :     0.000001
      g-1     :    -0.000000
      g+2     :    -0.000000
      g-2     :     0.000024
      g+3     :     0.000001
      g-3     :     0.000001
      g+4     :     0.000057
      g-4     :     0.000000


                      *****************************
                      * MAYER POPULATION ANALYSIS *
                      *****************************

  NA   - Mulliken gross atomic population
  ZA   - Total nuclear charge
  QA   - Mulliken gross atomic charge
  VA   - Mayer's total valence
  BVA  - Mayer's bonded valence
  FA   - Mayer's free valence

  ATOM       NA         ZA         QA         VA         BVA        FA
  0  Y    11.0000    11.0000    -0.0000     1.2280     0.0000     1.2280

  Mayer bond orders larger than 0.100000


-------
TIMINGS
-------

Total SCF time: 0 days 0 hours 0 min 10 sec 

Total time                  ....      10.105 sec
Sum of individual times     ....       9.307 sec  ( 92.1%)

Fock matrix formation       ....       4.695 sec  ( 46.5%)
Diagonalization             ....       0.207 sec  (  2.0%)
Density matrix formation    ....       0.017 sec  (  0.2%)
Population analysis         ....       0.080 sec  (  0.8%)
Initial guess               ....       3.849 sec  ( 38.1%)
Orbital Transformation      ....       0.000 sec  (  0.0%)
Orbital Orthonormalization  ....       0.000 sec  (  0.0%)
DIIS solution               ....       0.396 sec  (  3.9%)


           ************************************************************
           *        Program running with 24 parallel MPI-processes    *
           *              working on a common directory               *
           ************************************************************


------------------------------------------------------------------------------- 
                              ORCA-MATRIX DRIVEN CI                            
------------------------------------------------------------------------------- 

--------------------------------
AUTOMATIC CHOICE OF INCORE LEVEL
--------------------------------

Memory available                           ...   2500.00 MB
Memory needed for S+T                      ...      2.09 MB
Memory needed for J+K                      ...      4.21 MB
Memory needed for DIIS                     ...     29.31 MB
Memory needed for 3-ext                    ...     13.16 MB
Memory needed for 4-ext                    ...     73.48 MB
Memory needed for triples                  ...     10.97 MB
 -> Final InCoreLevel    ... 5
 -> check shows that triples correction can be computed


Wavefunction type
-----------------
Correlation treatment                      ...      CCSD     
Single excitations                         ... ON
Orbital optimization                       ... OFF
Calculation of Z vector                    ... OFF
Calculation of Brueckner orbitals          ... OFF
Perturbative triple excitations            ... ON
Calculation of F12 correction              ... OFF
Frozen core treatment                      ... chemical core (0 el)
Reference Wavefunction                     ... UHF
  Alpha-MOs occ    :     0 ...    5 (  6 MO's/  6 electrons)
  Beta-MOs occ     :     0 ...    4 (  5 MO's/  5 electrons)
  Alpha-MOs virt   :     6 ...   71 ( 66 MO's              )
  Beta-MOs virt    :     5 ...   71 ( 67 MO's              )
Number of AO's                             ...     72
Number of electrons                        ...     11
Number of correlated electrons             ...     11

Algorithmic settings
--------------------
Integral transformation                    ... AO direct full transformation
K(C) Formation                             ... FULL-MO TRAFO
Maximum number of iterations               ...        50
Convergence tolerance (max. residuum)      ... 1.000e-05
Level shift for amplitude update           ... 2.000e-01
Maximum number of DIIS vectors             ...         7
DIIS turned on at iteration                ...         0
Damping before turning on DIIS             ...     0.500
Damping after turning on DIIS              ...     0.000
Pair specific amplitude update             ... OFF
Natural orbital iterations                 ... OFF
Perturbative natural orbital generation    ... OFF
Printlevel                                 ... 2

Memory handling:
----------------
Maximum memory for working arrays          ...   2500 MB
Data storage in matrix containers          ... UNCOMPRESSED
Data type for integral storage             ... DOUBLE
In-Core Storage of quantities:
   Amplitudes+Sigma Vector      ... YES
   J+K operators                ... YES
   DIIS vectors                 ... YES
   3-external integrals         ... YES
   4-external integrals         ... YES


Initializing the integral package          ... done
Warning: reference  - re-canonicalizations have been set to INT 1 VIRT 1

--------------------------
UNRESTRICTED FOCK OPERATOR
--------------------------

<ss|ss>:          406 b            0 skpd (  0.0%)    0.000 s ( 0.000 ms/b)
<ss|sp>:          980 b            0 skpd (  0.0%)    0.000 s ( 0.000 ms/b)
<ss|sd>:          784 b            0 skpd (  0.0%)    0.000 s ( 0.000 ms/b)
<ss|sf>:          588 b            0 skpd (  0.0%)    0.000 s ( 0.000 ms/b)
<ss|sg>:          196 b            0 skpd (  0.0%)    0.000 s ( 0.000 ms/b)
<ss|pp>:          420 b            0 skpd (  0.0%)    0.000 s ( 0.000 ms/b)
<ss|pd>:          560 b            0 skpd (  0.0%)    0.000 s ( 0.000 ms/b)
<ss|pf>:          420 b            0 skpd (  0.0%)    0.000 s ( 0.000 ms/b)
<ss|pg>:          140 b            0 skpd (  0.0%)    0.000 s ( 0.001 ms/b)
<ss|dd>:          280 b            0 skpd (  0.0%)    0.000 s ( 0.001 ms/b)
<ss|df>:          336 b            0 skpd (  0.0%)    0.000 s ( 0.001 ms/b)
<ss|dg>:          112 b            0 skpd (  0.0%)    0.000 s ( 0.002 ms/b)
<ss|ff>:          168 b            0 skpd (  0.0%)    0.000 s ( 0.001 ms/b)
<ss|fg>:           84 b            0 skpd (  0.0%)    0.000 s ( 0.004 ms/b)
<ss|gg>:           28 b            0 skpd (  0.0%)    0.000 s ( 0.015 ms/b)
<sp|sp>:          630 b            0 skpd (  0.0%)    0.000 s ( 0.000 ms/b)
<sp|sd>:          980 b            0 skpd (  0.0%)    0.000 s ( 0.000 ms/b)
<sp|sf>:          735 b            0 skpd (  0.0%)    0.000 s ( 0.000 ms/b)
<sp|sg>:          245 b            0 skpd (  0.0%)    0.000 s ( 0.001 ms/b)
<sp|pp>:          525 b            0 skpd (  0.0%)    0.000 s ( 0.001 ms/b)
<sp|pd>:          700 b            0 skpd (  0.0%)    0.001 s ( 0.001 ms/b)
<sp|pf>:          525 b            0 skpd (  0.0%)    0.001 s ( 0.001 ms/b)
<sp|pg>:          175 b            0 skpd (  0.0%)    0.000 s ( 0.003 ms/b)
<sp|dd>:          350 b            0 skpd (  0.0%)    0.001 s ( 0.004 ms/b)
<sp|df>:          420 b            0 skpd (  0.0%)    0.001 s ( 0.002 ms/b)
<sp|dg>:          140 b            0 skpd (  0.0%)    0.001 s ( 0.006 ms/b)
<sp|ff>:          210 b            0 skpd (  0.0%)    0.001 s ( 0.004 ms/b)
<sp|fg>:          105 b            0 skpd (  0.0%)    0.001 s ( 0.010 ms/b)
<sp|gg>:           35 b            0 skpd (  0.0%)    0.001 s ( 0.027 ms/b)
<sd|sd>:          406 b            0 skpd (  0.0%)    0.000 s ( 0.000 ms/b)
<sd|sf>:          588 b            0 skpd (  0.0%)    0.000 s ( 0.000 ms/b)
<sd|sg>:          196 b            1 skpd (  0.5%)    0.000 s ( 0.001 ms/b)
<sd|pp>:          420 b            0 skpd (  0.0%)    0.001 s ( 0.001 ms/b)
<sd|pd>:          560 b            0 skpd (  0.0%)    0.001 s ( 0.002 ms/b)
<sd|pf>:          420 b            0 skpd (  0.0%)    0.001 s ( 0.002 ms/b)
<sd|pg>:          140 b            0 skpd (  0.0%)    0.001 s ( 0.005 ms/b)
<sd|dd>:          280 b            0 skpd (  0.0%)    0.002 s ( 0.006 ms/b)
<sd|df>:          336 b            0 skpd (  0.0%)    0.001 s ( 0.003 ms/b)
<sd|dg>:          112 b            0 skpd (  0.0%)    0.001 s ( 0.012 ms/b)
<sd|ff>:          168 b            0 skpd (  0.0%)    0.001 s ( 0.005 ms/b)
<sd|fg>:           84 b            0 skpd (  0.0%)    0.001 s ( 0.010 ms/b)
<sd|gg>:           28 b            0 skpd (  0.0%)    0.001 s ( 0.040 ms/b)
<sf|sf>:          231 b            0 skpd (  0.0%)    0.000 s ( 0.001 ms/b)
<sf|sg>:          147 b            1 skpd (  0.7%)    0.000 s ( 0.001 ms/b)
<sf|pp>:          315 b            0 skpd (  0.0%)    0.000 s ( 0.001 ms/b)
<sf|pd>:          420 b            0 skpd (  0.0%)    0.001 s ( 0.001 ms/b)
<sf|pf>:          315 b            0 skpd (  0.0%)    0.001 s ( 0.002 ms/b)
<sf|pg>:          105 b            0 skpd (  0.0%)    0.001 s ( 0.007 ms/b)
<sf|dd>:          210 b            0 skpd (  0.0%)    0.001 s ( 0.005 ms/b)
<sf|df>:          252 b            0 skpd (  0.0%)    0.001 s ( 0.003 ms/b)
<sf|dg>:           84 b            0 skpd (  0.0%)    0.001 s ( 0.013 ms/b)
<sf|ff>:          126 b            0 skpd (  0.0%)    0.001 s ( 0.008 ms/b)
<sf|fg>:           63 b            0 skpd (  0.0%)    0.001 s ( 0.015 ms/b)
<sf|gg>:           21 b            0 skpd (  0.0%)    0.001 s ( 0.053 ms/b)
<sg|sg>:           28 b            1 skpd (  3.6%)    0.000 s ( 0.003 ms/b)
<sg|pp>:          105 b            0 skpd (  0.0%)    0.000 s ( 0.002 ms/b)
<sg|pd>:          140 b            0 skpd (  0.0%)    0.000 s ( 0.003 ms/b)
<sg|pf>:          105 b            0 skpd (  0.0%)    0.000 s ( 0.002 ms/b)
<sg|pg>:           35 b            2 skpd (  5.7%)    0.000 s ( 0.013 ms/b)
<sg|dd>:           70 b            0 skpd (  0.0%)    0.001 s ( 0.008 ms/b)
<sg|df>:           84 b            0 skpd (  0.0%)    0.000 s ( 0.004 ms/b)
<sg|dg>:           28 b            0 skpd (  0.0%)    0.001 s ( 0.022 ms/b)
<sg|ff>:           42 b            0 skpd (  0.0%)    0.001 s ( 0.017 ms/b)
<sg|fg>:           21 b            0 skpd (  0.0%)    0.000 s ( 0.022 ms/b)
<sg|gg>:            7 b            0 skpd (  0.0%)    0.001 s ( 0.086 ms/b)
<pp|pp>:          120 b            0 skpd (  0.0%)    0.000 s ( 0.002 ms/b)
<pp|pd>:          300 b            0 skpd (  0.0%)    0.000 s ( 0.002 ms/b)
<pp|pf>:          225 b            0 skpd (  0.0%)    0.000 s ( 0.002 ms/b)
<pp|pg>:           75 b            0 skpd (  0.0%)    0.001 s ( 0.013 ms/b)
<pp|dd>:          150 b            0 skpd (  0.0%)    0.001 s ( 0.005 ms/b)
<pp|df>:          180 b            0 skpd (  0.0%)    0.001 s ( 0.004 ms/b)
<pp|dg>:           60 b            0 skpd (  0.0%)    0.001 s ( 0.012 ms/b)
<pp|ff>:           90 b            0 skpd (  0.0%)    0.001 s ( 0.012 ms/b)
<pp|fg>:           45 b            0 skpd (  0.0%)    0.001 s ( 0.013 ms/b)
<pp|gg>:           15 b            0 skpd (  0.0%)    0.001 s ( 0.049 ms/b)
<pd|pd>:          210 b            0 skpd (  0.0%)    0.001 s ( 0.006 ms/b)
<pd|pf>:          300 b            0 skpd (  0.0%)    0.001 s ( 0.003 ms/b)
<pd|pg>:          100 b            0 skpd (  0.0%)    0.003 s ( 0.031 ms/b)
<pd|dd>:          200 b            0 skpd (  0.0%)    0.002 s ( 0.011 ms/b)
<pd|df>:          240 b            0 skpd (  0.0%)    0.001 s ( 0.006 ms/b)
<pd|dg>:           80 b            0 skpd (  0.0%)    0.002 s ( 0.026 ms/b)
<pd|ff>:          120 b            0 skpd (  0.0%)    0.002 s ( 0.016 ms/b)
<pd|fg>:           60 b            0 skpd (  0.0%)    0.002 s ( 0.026 ms/b)
<pd|gg>:           20 b            0 skpd (  0.0%)    0.002 s ( 0.107 ms/b)
<pf|pf>:          120 b            0 skpd (  0.0%)    0.001 s ( 0.005 ms/b)
<pf|pg>:           75 b            0 skpd (  0.0%)    0.002 s ( 0.020 ms/b)
<pf|dd>:          150 b            0 skpd (  0.0%)    0.002 s ( 0.013 ms/b)
<pf|df>:          180 b            0 skpd (  0.0%)    0.001 s ( 0.008 ms/b)
<pf|dg>:           60 b            0 skpd (  0.0%)    0.002 s ( 0.033 ms/b)
<pf|ff>:           90 b            0 skpd (  0.0%)    0.002 s ( 0.017 ms/b)
<pf|fg>:           45 b            0 skpd (  0.0%)    0.002 s ( 0.039 ms/b)
<pf|gg>:           15 b            0 skpd (  0.0%)    0.002 s ( 0.145 ms/b)
<pg|pg>:           15 b            0 skpd (  0.0%)    0.000 s ( 0.022 ms/b)
<pg|dd>:           50 b            0 skpd (  0.0%)    0.001 s ( 0.025 ms/b)
<pg|df>:           60 b            0 skpd (  0.0%)    0.001 s ( 0.012 ms/b)
<pg|dg>:           20 b            0 skpd (  0.0%)    0.001 s ( 0.063 ms/b)
<pg|ff>:           30 b            0 skpd (  0.0%)    0.001 s ( 0.018 ms/b)
<pg|fg>:           15 b            0 skpd (  0.0%)    0.001 s ( 0.065 ms/b)
<pg|gg>:            5 b            0 skpd (  0.0%)    0.001 s ( 0.236 ms/b)
<dd|dd>:           55 b            0 skpd (  0.0%)    0.003 s ( 0.046 ms/b)
<dd|df>:          120 b            0 skpd (  0.0%)    0.002 s ( 0.013 ms/b)
<dd|dg>:           40 b            0 skpd (  0.0%)    0.002 s ( 0.061 ms/b)
<dd|ff>:           60 b            0 skpd (  0.0%)    0.001 s ( 0.019 ms/b)
<dd|fg>:           30 b            0 skpd (  0.0%)    0.002 s ( 0.055 ms/b)
<dd|gg>:           10 b            0 skpd (  0.0%)    0.002 s ( 0.224 ms/b)
<df|df>:           78 b            0 skpd (  0.0%)    0.002 s ( 0.028 ms/b)
<df|dg>:           48 b            0 skpd (  0.0%)    0.003 s ( 0.069 ms/b)
<df|ff>:           72 b            0 skpd (  0.0%)    0.002 s ( 0.029 ms/b)
<df|fg>:           36 b            0 skpd (  0.0%)    0.003 s ( 0.076 ms/b)
<df|gg>:           12 b            0 skpd (  0.0%)    0.004 s ( 0.302 ms/b)
<dg|dg>:           10 b            0 skpd (  0.0%)    0.001 s ( 0.089 ms/b)
<dg|ff>:           24 b            0 skpd (  0.0%)    0.001 s ( 0.037 ms/b)
<dg|fg>:           12 b            0 skpd (  0.0%)    0.001 s ( 0.121 ms/b)
<dg|gg>:            4 b            0 skpd (  0.0%)    0.002 s ( 0.466 ms/b)
<ff|ff>:           21 b            0 skpd (  0.0%)    0.001 s ( 0.052 ms/b)
<ff|fg>:           18 b            0 skpd (  0.0%)    0.002 s ( 0.109 ms/b)
<ff|gg>:            6 b            0 skpd (  0.0%)    0.003 s ( 0.450 ms/b)
<fg|fg>:            6 b            0 skpd (  0.0%)    0.001 s ( 0.248 ms/b)
<fg|gg>:            3 b            0 skpd (  0.0%)    0.003 s ( 0.841 ms/b)
<gg|gg>:            1 b            0 skpd (  0.0%)    0.001 s ( 1.160 ms/b)
Recanonicalizing the internal orbitals
Recanonicalizing the virtual orbitals
Time needed for Fock operator              ...            0.267 sec
Reference energy                           ...    -37.820520498
Warning: for UHF the TrafoType has to be JK
Warning: for UHF the K(C)-option cannot be MO but must be AOX

-------------------------------
PARTIAL EXCHANGE TRANSFORMATION
-------------------------------

Transformation type                        ... two-operators
Generation of integrals (i,mue|j,nue)      ... ON
Generation of integrals (mue,kappa|nue,tau)... ON
Generation of integrals (i,mue|a,nue)      ... ON
Dimension of the basis                     ...   72
Number of internal alpha-MOs               ...    6 (   0-   5)
Number of internal beta-MOs                ...    5 (   0-   4)
Number of external alpha-MOs               ...   66 (   6-  71)
Number of external beta-MOs                ...   67 (   5-  71)
Pair cutoff                                ... 0.000e+00 Eh
Number of AO pairs in the trafo            ... 2628
Total Number of distinct AO pairs          ... 2628
Memory devoted for trafo                   ... 2500.0 MB 
Max. Number of MO pairs treated together   ... 63209      
Number Format for Storage                  ... Double (8 Byte)
Integral package used                      ... LIBINT

Starting integral evaluation:
    ... done with AO integral generation
Closing buffer AOK[aa] ( 0.00 GB; CompressionRatio= 0.00)
Closing buffer AOK[bb] ( 0.00 GB; CompressionRatio= 0.00)
Closing buffer AOK[ab] ( 0.00 GB; CompressionRatio= 0.00)
Closing buffer AOK[ba] ( 0.00 GB; CompressionRatio= 0.00)
Collecting buffer AOK 
Closing buffer IAAO1[aa] ( 0.00 GB; CompressionRatio= 0.00)
Closing buffer IAAO1[bb] ( 0.00 GB; CompressionRatio= 0.00)
Closing buffer IAAO1[ab] ( 0.00 GB; CompressionRatio= 0.00)
Closing buffer IAAO1[ba] ( 0.00 GB; CompressionRatio= 0.00)
Closing buffer IAAO2[aa] ( 0.00 GB; CompressionRatio= 0.00)
Closing buffer IAAO2[bb] ( 0.00 GB; CompressionRatio= 0.00)
Closing buffer IAAO2[ab] ( 0.00 GB; CompressionRatio= 0.00)
Closing buffer IAAO2[ba] ( 0.00 GB; CompressionRatio= 0.00)
Collecting buffer IAAO 
Closing buffer PRQS    ( 0.00 GB; CompressionRatio= 0.00)
Collecting buffer PRQS 
Number of alpha/alpha MO pairs in trafo    ...   21
Number of beta /beta  MO pairs in trafo    ...   15
Number of alpha/ beta MO pairs in trafo    ...   30
------------------------
SORTING OF (i,mue|j,nue)
------------------------

SORTING OF ALPHA/ALPHA PAIRS
IBATCH = 1 of  1
Closing buffer KAO[aa] ( 0.00 GB; CompressionRatio= 1.00)
Collecting buffer KAO 
SORTING OF BETA /BETA  PAIRS
IBATCH = 1 of  1
Closing buffer KAO[bb] ( 0.00 GB; CompressionRatio= 1.00)
Collecting buffer KAO 
SORTING OF ALPHA/BETA  PAIRS
IBATCH = 1 of  1
Closing buffer KAO[ab] ( 0.00 GB; CompressionRatio= 0.999710731848)
Collecting buffer KAO[ab] 
------------------------
SORTING OF (i,mue|a,nue)
------------------------

Number of alpha/alpha (i,a) pairs in trafo  ...  396
Number of beta /beta  (i,a) pairs in trafo  ...  335
Number of alpha/ beta (i,a) pairs in trafo  ...  402
Number of beta /alpha (i,a) pairs in trafo  ...  330
Setting up the alpha/alpha list             ... done
Setting up the beta /beta  list             ... done
Setting up the alpha/beta  list             ... done
Setting up the beta /alpha list             ... done
    ... Now sorting (i,mue|a,nue)integrals
    ... Integrals (i,b|a,c) will be made on the fly
SORTING OF ALPHA/ALPHA PAIRS
IBATCH = 1 of  1
Closing buffer IPAQ[aa]  0.00 GB; CompressionRatio= 1.00)
SORTING OF BETA /BETA  PAIRS
IBATCH = 1 of  1
Closing buffer IPAQ[bb]( 0.00 GB; CompressionRatio= 1.00)
SORTING OF ALPHA/BETA  PAIRS (NMatSort_ab=17)
IBATCH = 1 of  1
Closing buffer IPAQ[ab]( 0.00 GB; CompressionRatio= 1.00)
SORTING OF BETA/ALPHA  PAIRS
IBATCH = 1 of  1
Closing buffer IPAQ[ba]( 0.00 GB; CompressionRatio= 1.00)
N(AO-Batches) Done                         ...         0 
N(AO-Batches) Skipped                      ...         0 
N(IJ)-pairs Skipped                        ...         0 
TOTAL TIME for half transformation         ...     4.522 sec
AO-integral generation                     ...     0.000 sec
Half transformation                        ...     0.000 sec
K-integral sorting                         ...     1.002 sec
<ss|**>: 
------------------------------
PARTIAL COULOMB TRANSFORMATION
------------------------------

Transformation type                        ... two-operators
Dimension of the basis                     ...   72
Number of internal alpha-MOs               ...    6 (0-5)
Number of internal beta-MOs                ...    5 (0-4)
Pair cutoff                                ... 0.000e+00 Eh
Number of AO pairs included in the trafo   ... 2628
Total Number of distinct AO pairs          ... 2628
Memory devoted for trafo                   ... 2500.0 MB 
Max. Number of MO pairs treated together   ... 124687      
Max. Number of MOs treated per batch       ... 1731      
Number Format for Storage                  ... Double (8 Byte)
AO-integral source                         ... DIRECT
Integral package used                      ... LIBINT

Starting integral evaluation:
        5880 b        0 skpd     0.002 s (  0.000 ms/b)
<sp|**>: <sd|**>:         7350 b        0 skpd     0.016 s (  0.002 ms/b)
        5880 b        0 skpd     0.025 s (  0.004 ms/b)
<sf|**>: <sg|**>:         4410 b        0 skpd     0.026 s (  0.006 ms/b)
        1470 b        0 skpd     0.017 s (  0.012 ms/b)
<pp|**>:         3150 b        0 skpd     0.021 s (  0.007 ms/b)
<pd|**>:         4200 b        0 skpd     0.076 s (  0.018 ms/b)
<pf|**>:         3150 b        0 skpd     0.052 s (  0.017 ms/b)
<pg|**>:         1050 b        0 skpd     0.037 s (  0.035 ms/b)
<dd|**>:         2100 b        0 skpd     0.040 s (  0.019 ms/b)
<df|**>:         2520 b        0 skpd     0.074 s (  0.029 ms/b)
<dg|**>:          840 b        0 skpd     0.056 s (  0.066 ms/b)
<ff|**>:         1260 b        0 skpd     0.059 s (  0.047 ms/b)
<fg|**>:          630 b        0 skpd     0.061 s (  0.096 ms/b)
<gg|**>:          210 b        0 skpd     0.044 s (  0.211 ms/b)
Closing buffer AOJ[aa] ( 0.00 GB; CompressionRatio= 0.93)
Closing buffer AOJ[bb] ( 0.00 GB; CompressionRatio= 0.00)
Collecting buffer AOJ 
    ... done with AO integral generation
Number of Alpha-MO pairs included          ...   21
Number of Beta-MO pairs included           ...   15
    ... Now sorting integrals
SORTING ALPHA/ALPHA PAIRS
IBATCH = 1 of  1
Closing buffer JAO[aa] ( 0.00 GB; CompressionRatio= 1.00)
SORTING BETA/BETA PAIRS
IBATCH = 1 of  1
Closing buffer JAO[bb] ( 0.00 GB; CompressionRatio= 1.00)
Collecting buffer JAO 
TOTAL TIME for half transformation         ...     0.763 sec
AO-integral generation                     ...     0.390 sec
Half transformation                        ...     0.221 sec
J-integral sorting                         ...     0.112 sec

-------------------------- SECOND HALF TRANSFORMATION -------------------------
Formation of (ij|kl),(ij|ka), (ij|ab)      ... ok (     0.138 sec)
Formation of (ik|jl),(ik|ja), (ia|jb)      ... ok (     0.229 sec)


-----------------------
SPIN UNRESTRICTED GUESS
-----------------------

Entering MDCI_UHF_Guess, Tailored=0
Spin-components of the MP2 energy:
EMP2(aa)=     -0.039700066
EMP2(bb)=     -0.030536947
EMP2(ab)=     -0.187411230

Initial guess performed in     0.007 sec
E(0)                                       ...    -37.820520498
E(MP2)                                     ...     -0.257648243
Initial E(tot)                             ...    -38.078168741
<T|T>                                      ...      0.101588156
Number of pairs included                   ... 55

------------------------------------------------
                  UHF COUPLED CLUSTER ITERATIONS
------------------------------------------------

Number of amplitudes to be optimized       ...       188135

Iter       E(tot)           E(Corr)          Delta-E          Residual     Time      <S|S>**1/2
  0    -38.078168741     -0.257648243     -0.000000000      0.013723300    0.38      0.000008025
                           *** Turning on DIIS ***
  1    -38.084429900     -0.263909402     -0.006261159      0.006016993    0.26      0.030161277
  2    -38.089984005     -0.269463508     -0.005554105      0.004778248    0.26      0.048342513
  3    -38.091731055     -0.271210557     -0.001747049      0.003559440    0.26      0.063779577
  4    -38.092848987     -0.272328490     -0.001117933      0.002318018    0.27      0.080366374
  5    -38.093296207     -0.272775709     -0.000447219      0.001468225    0.28      0.093617809
  6    -38.093519961     -0.272999464     -0.000223755      0.000736461    0.29      0.105741286
  7    -38.093623641     -0.273103143     -0.000103679      0.000293360    0.28      0.113677892
  8    -38.093658912     -0.273138414     -0.000035271      0.000174064    0.28      0.116425420
  9    -38.093677504     -0.273157006     -0.000018592      0.000097903    0.28      0.117440106
 10    -38.093682141     -0.273161643     -0.000004637      0.000046951    0.27      0.117841741
 11    -38.093684561     -0.273164063     -0.000002420      0.000016168    0.28      0.118063721
 12    -38.093684637     -0.273164139     -0.000000076      0.000005901    0.27      0.118120803
               --- The Coupled-Cluster iterations have converged ---

----------------------
COUPLED CLUSTER ENERGY
----------------------

E(0)                                       ...    -37.820520498
E(CORR)                                    ...     -0.273164139
E(TOT)                                     ...    -38.093684637
Singles norm <S|S>**1/2                    ...      0.118120803 ( 0.062954995, 0.055165808)  
T1 diagnostic                              ...      0.035614762                              

------------------
LARGEST AMPLITUDES
------------------
   4b-> 11b  -1b-> -1b       0.105207
   5a-> 12a  -1a-> -1a       0.099636
   5a->  8a   4b->  5b       0.079004
   5a->  6a   4b->  6b       0.064705
   5a->  7a   4b->  7b       0.064704
   5a-> 16a   4b->  5b       0.063243
   5a->  6a   4b-> 15b       0.055552
   5a->  7a   4b-> 16b       0.055552
   5a->  8a   4b-> 14b       0.053252
   4b-> 22b  -1b-> -1b       0.049034
   5a-> 16a   4b-> 14b       0.046069
   5a-> 14a   4b->  6b       0.044980
   5a-> 15a   4b->  7b       0.044979
   5a-> 14a   4b-> 15b       0.041930
   5a-> 15a   4b-> 16b       0.041930
   5a-> 10a   4b->  9b       0.038426

----------------------
UHF TRIPLES CORRECTION (Algorithm 1)
----------------------

Multiplier for the singles contribution    ...      1.000000000

SPIN-CASE Alpha-Alpha-Alpha:
10% done
20% done
30% done
40% done
50% done
60% done
70% done
80% done
90% done


SPIN-CASE Beta-Beta-Beta:
10% done
20% done
30% done
40% done
50% done
60% done
70% done
80% done
90% done


SPIN-CASE Alpha-Alpha-Beta:
10% done
20% done
30% done
40% done
50% done
60% done
70% done
80% done
90% done


SPIN-CASE Beta-Beta-Alpha:
10% done
20% done
30% done
40% done
50% done
60% done
70% done
80% done
90% done


Triples Correction (T)                     ...     -0.010507544
    alpha-alpha-alpha ... -0.000340790 (  3.2%)
    alpha-alpha-beta  ... -0.005701602 ( 54.3%)
    alpha-beta -beta  ... -0.004265905 ( 40.6%)
    beta -beta -beta  ... -0.000199247 (  1.9%)
Scaling of triples based on CCSD energies (Peterson et al. Molecular Physics 113, 1551 (2015))
E(T*) = f*E(T) where f = E(F12-CCSD)/E(CCSD) 
f = CCSD (with F12)/ CCSD (without F12)    ...      1.000000000
Scaled triples correction (T)              ...     -0.010507544

Final correlation energy                   ...     -0.283671683
E(CCSD)                                    ...    -38.093684637
E(CCSD(T))                                 ...    -38.104192181



        !!!!!!!!!!!!!!!!!!!!!!!!!!!!!!!!!!!!!!!!!!!!!!!!!!!!!!!!!!!!!!!!!!!!!!!!!! 
        !  Warning: Densities are linearized densities                           !
        !!!!!!!!!!!!!!!!!!!!!!!!!!!!!!!!!!!!!!!!!!!!!!!!!!!!!!!!!!!!!!!!!!!!!!!!!! 

NORM  =      1.166612798 sqrt=     1.080098513
W(HF) =      0.857182436
------------------------------------------------------------------------------
                           ORCA POPULATION ANALYSIS
------------------------------------------------------------------------------
Input electron density              ... 39_Y.mdcip
Input spin density                  ... 39_Y.mdcir
BaseName (.gbw .S,...)              ... 39_Y

                    ********************************
                    * MULLIKEN POPULATION ANALYSIS *
                    ********************************

------------------------------------------
MULLIKEN ATOMIC CHARGES AND SPIN DENSITIES
------------------------------------------
   0  Y:   -0.000000    1.000000
Sum of atomic charges       :   -0.0000000
Sum of atomic spin densities:    1.0000000

---------------------------------------------------
MULLIKEN REDUCED ORBITAL CHARGES AND SPIN DENSITIES
---------------------------------------------------
CHARGE
  0  Ys       :     3.855559  s :     3.855559
      pz      :     2.005976  p :     6.022948
      px      :     2.008493
      py      :     2.008478
      dz2     :     0.033877  d :     1.094258
      dxz     :     0.033692
      dyz     :     0.028194
      dx2y2   :     0.020799
      dxy     :     0.977697
      f0      :     0.002225  f :     0.026533
      f+1     :     0.002436
      f-1     :     0.002410
      f+2     :     0.001812
      f-2     :     0.005042
      f+3     :     0.006304
      f-3     :     0.006303
      g0      :     0.000021  g :     0.000702
      g+1     :     0.000027
      g-1     :     0.000027
      g+2     :     0.000014
      g-2     :     0.000083
      g+3     :     0.000096
      g-3     :     0.000096
      g+4     :     0.000171
      g-4     :     0.000166

SPIN
  0  Ys       :     0.028342  s :     0.028342
      pz      :    -0.000924  p :     0.006218
      px      :     0.003584
      py      :     0.003558
      dz2     :    -0.007688  d :     0.953560
      dxz     :     0.006171
      dyz     :     0.000430
      dx2y2   :    -0.000635
      dxy     :     0.955282
      f0      :    -0.000130  f :     0.011391
      f+1     :     0.000198
      f-1     :     0.000172
      f+2     :    -0.000029
      f-2     :     0.002746
      f+3     :     0.004217
      f-3     :     0.004217
      g0      :     0.000003  g :     0.000489
      g+1     :     0.000009
      g-1     :     0.000008
      g+2     :    -0.000000
      g-2     :     0.000058
      g+3     :     0.000069
      g-3     :     0.000069
      g+4     :     0.000143
      g-4     :     0.000130


                     *******************************
                     * LOEWDIN POPULATION ANALYSIS *
                     *******************************

-----------------------------------------
LOEWDIN ATOMIC CHARGES AND SPIN DENSITIES
-----------------------------------------
   0  Y:   -0.000000    1.000000

--------------------------------------------------
LOEWDIN REDUCED ORBITAL CHARGES AND SPIN DENSITIES
--------------------------------------------------
CHARGE
  0  Ys       :     3.855559  s :     3.855559
      pz      :     2.005976  p :     6.022948
      px      :     2.008493
      py      :     2.008478
      dz2     :     0.033877  d :     1.094258
      dxz     :     0.033692
      dyz     :     0.028194
      dx2y2   :     0.020799
      dxy     :     0.977697
      f0      :     0.002225  f :     0.026533
      f+1     :     0.002436
      f-1     :     0.002410
      f+2     :     0.001812
      f-2     :     0.005042
      f+3     :     0.006304
      f-3     :     0.006303
      g0      :     0.000021  g :     0.000702
      g+1     :     0.000027
      g-1     :     0.000027
      g+2     :     0.000014
      g-2     :     0.000083
      g+3     :     0.000096
      g-3     :     0.000096
      g+4     :     0.000171
      g-4     :     0.000166

SPIN
  0  Ys       :     0.028342  s :     0.028342
      pz      :    -0.000924  p :     0.006218
      px      :     0.003584
      py      :     0.003558
      dz2     :    -0.007688  d :     0.953560
      dxz     :     0.006171
      dyz     :     0.000430
      dx2y2   :    -0.000635
      dxy     :     0.955282
      f0      :    -0.000130  f :     0.011391
      f+1     :     0.000198
      f-1     :     0.000172
      f+2     :    -0.000029
      f-2     :     0.002746
      f+3     :     0.004217
      f-3     :     0.004217
      g0      :     0.000003  g :     0.000489
      g+1     :     0.000009
      g-1     :     0.000008
      g+2     :    -0.000000
      g-2     :     0.000058
      g+3     :     0.000069
      g-3     :     0.000069
      g+4     :     0.000143
      g-4     :     0.000130


                      *****************************
                      * MAYER POPULATION ANALYSIS *
                      *****************************

  NA   - Mulliken gross atomic population
  ZA   - Total nuclear charge
  QA   - Mulliken gross atomic charge
  VA   - Mayer's total valence
  BVA  - Mayer's bonded valence
  FA   - Mayer's free valence

  ATOM       NA         ZA         QA         VA         BVA        FA
  0  Y    11.0000    11.0000    -0.0000     2.0056     0.0000     2.0056





------------------------------------------------------------------------------- 
                                     TIMINGS                                   
------------------------------------------------------------------------------- 


Total execution time                   ...       10.449 sec

Fock Matrix Formation                  ...        0.267 sec (  2.6%)
Initial Guess                          ...        0.007 sec (  0.1%)
DIIS Solver                            ...        0.239 sec (  2.3%)
State Vector Update                    ...        0.010 sec (  0.1%)
Sigma-vector construction              ...        3.422 sec ( 32.8%)
  <D|H|D>(0-ext Fock)                  ...        0.003 sec (  0.1% of sigma)
  <D|H|D>(0-ext)                       ...        0.005 sec (  0.1% of sigma)
  <D|H|D>(2-ext Fock)                  ...        0.001 sec (  0.0% of sigma)
  <D|H|D>(2-ext)                       ...        0.033 sec (  1.0% of sigma)
  <D|H|D>(4-ext)                       ...        1.576 sec ( 46.0% of sigma)
  <S|H|0>                              ...        0.111 sec (  3.2% of sigma)
  <D|H|S>(1-ext)                       ...        0.018 sec (  0.5% of sigma)
  Fock-dressing                        ...        0.976 sec ( 28.5% of sigma)
  (ik|jl)-dressing                     ...        0.006 sec (  0.2% of sigma)
  (ij|ab),(ia|jb)-dressing             ...        0.521 sec ( 15.2% of sigma)
  Pair energies                        ...        0.002 sec (  0.0% of sigma)
Total Time for computing (T)           ...        0.251 sec (  2.4% of ALL)
  I/O of integral and amplitudes       ...        0.077 sec ( 30.7% of (T))
  External N**7 contributions          ...        0.057 sec ( 22.6% of (T))
  Internal N**7 contributions          ...        0.029 sec ( 11.4% of (T))
  N**6 triples energy contributions    ...        0.073 sec ( 29.1% of (T))


-------------------------   --------------------
FINAL SINGLE POINT ENERGY       -38.104192181066
-------------------------   --------------------


                            ***************************************
                            *     ORCA property calculations      *
                            ***************************************

                                    ---------------------
                                    Active property flags
                                    ---------------------
   (+) Dipole Moment


------------------------------------------------------------------------------
                       ORCA ELECTRIC PROPERTIES CALCULATION
------------------------------------------------------------------------------

Dipole Moment Calculation                       ... on
Quadrupole Moment Calculation                   ... off
Polarizability Calculation                      ... off
GBWName                                         ... 39_Y.gbw
Electron density file                           ... 39_Y.scfp
The origin for moment calculation is the CENTER OF MASS  = ( 0.000000,  0.000000  0.000000)

-------------
DIPOLE MOMENT
-------------
                                X             Y             Z
Electronic contribution:     -0.00000       0.00000      -0.00000
Nuclear contribution   :      0.00000       0.00000       0.00000
                        -----------------------------------------
Total Dipole Moment    :     -0.00000       0.00000      -0.00000
                        -----------------------------------------
Magnitude (a.u.)       :      0.00000
Magnitude (Debye)      :      0.00000



--------------------
Rotational spectrum 
--------------------
 
Rotational constants in cm-1:     0.000000     0.000000     0.000000 
Rotational constants in MHz :     0.000000     0.000000     0.000000 

 Dipole components along the rotational axes: 
x,y,z [a.u.] :    -0.000000     0.000000    -0.000000 
x,y,z [Debye]:    -0.000000     0.000000    -0.000000 

 

                           *** MDCI DENSITY ***

------------------------------------------------------------------------------
                       ORCA ELECTRIC PROPERTIES CALCULATION
------------------------------------------------------------------------------

Dipole Moment Calculation                       ... on
Quadrupole Moment Calculation                   ... off
Polarizability Calculation                      ... off
GBWName                                         ... 39_Y.gbw
Electron density file                           ... 39_Y.mdcip
The origin for moment calculation is the CENTER OF MASS  = ( 0.000000,  0.000000  0.000000)

-------------
DIPOLE MOMENT
-------------
                                X             Y             Z
Electronic contribution:      0.00000      -0.00000       0.00000
Nuclear contribution   :      0.00000       0.00000       0.00000
                        -----------------------------------------
Total Dipole Moment    :      0.00000      -0.00000       0.00000
                        -----------------------------------------
Magnitude (a.u.)       :      0.00000
Magnitude (Debye)      :      0.00000



--------------------
Rotational spectrum 
--------------------
 
Rotational constants in cm-1:     0.000000     0.000000     0.000000 
Rotational constants in MHz :     0.000000     0.000000     0.000000 

 Dipole components along the rotational axes: 
x,y,z [a.u.] :     0.000000    -0.000000     0.000000 
x,y,z [Debye]:     0.000000    -0.000000     0.000000 

 

Timings for individual modules:

Sum of individual times         ...       22.400 sec (=   0.373 min)
GTO integral calculation        ...        0.888 sec (=   0.015 min)   4.0 %
SCF iterations                  ...       10.474 sec (=   0.175 min)  46.8 %
MDCI module                     ...       11.039 sec (=   0.184 min)  49.3 %
                             ****ORCA TERMINATED NORMALLY****
TOTAL RUN TIME: 0 days 0 hours 0 minutes 23 seconds 150 msec
