
                                 *****************
                                 * O   R   C   A *
                                 *****************

           --- An Ab Initio, DFT and Semiempirical electronic structure package ---

                  #######################################################
                  #                        -***-                        #
                  #          Department of theory and spectroscopy      #
                  #               Directorship: Frank Neese             #
                  #        Max Planck Institute fuer Kohlenforschung    #
                  #                Kaiser Wilhelm Platz 1               #
                  #                 D-45470 Muelheim/Ruhr               #
                  #                      Germany                        #
                  #                                                     #
                  #                  All rights reserved                #
                  #                        -***-                        #
                  #######################################################


                         Program Version 4.2.0 -  RELEASE  -


 With contributions from (in alphabetic order):
   Daniel Aravena         : Magnetic Suceptibility
   Michael Atanasov       : Ab Initio Ligand Field Theory (pilot matlab implementation)
   Alexander A. Auer      : GIAO ZORA, VPT2
   Ute Becker             : Parallelization
   Giovanni Bistoni       : ED, misc. LED, open-shell LED, HFLED
   Martin Brehm           : Molecular dynamics
   Dmytro Bykov           : SCF Hessian
   Vijay G. Chilkuri      : MRCI spin determinant printing, contributions to CSF-ICE
   Dipayan Datta          : RHF DLPNO-CCSD density
   Achintya Kumar Dutta   : EOM-CC, STEOM-CC
   Dmitry Ganyushin       : Spin-Orbit,Spin-Spin,Magnetic field MRCI
   Miquel Garcia          : C-PCM Hessian, Gaussian charge scheme
   Yang Guo               : DLPNO-NEVPT2, CIM, IAO-localization
   Andreas Hansen         : Spin unrestricted coupled pair/coupled cluster methods
   Benjamin Helmich-Paris : CASSCF linear response (MC-RPA)
   Lee Huntington         : MR-EOM, pCC
   Robert Izsak           : Overlap fitted RIJCOSX, COSX-SCS-MP3, EOM
   Christian Kollmar      : KDIIS, OOCD, Brueckner-CCSD(T), CCSD density
   Simone Kossmann        : Meta GGA functionals, TD-DFT gradient, OOMP2, MP2 Hessian
   Martin Krupicka        : AUTO-CI
   Lucas Lang             : DCDCAS
   Dagmar Lenk            : GEPOL surface, SMD
   Dimitrios Liakos       : Extrapolation schemes; Compound Job, initial MDCI parallelization
   Dimitrios Manganas     : Further ROCIS development; embedding schemes
   Dimitrios Pantazis     : SARC Basis sets
   Taras Petrenko         : DFT Hessian,TD-DFT gradient, ASA, ECA, R-Raman, ABS, FL, XAS/XES, NRVS
   Peter Pinski           : DLPNO-MP2, DLPNO-MP2 Gradient
   Christoph Reimann      : Effective Core Potentials
   Marius Retegan         : Local ZFS, SOC
   Christoph Riplinger    : Optimizer, TS searches, QM/MM, DLPNO-CCSD(T), (RO)-DLPNO pert. Triples
   Tobias Risthaus        : Range-separated hybrids, TD-DFT gradient, RPA, STAB
   Michael Roemelt        : Original ROCIS implementation
   Masaaki Saitow         : Open-shell DLPNO-CCSD energy and density
   Barbara Sandhoefer     : DKH picture change effects
   Avijit Sen             : IP-ROCIS
   Kantharuban Sivalingam : CASSCF convergence, NEVPT2, FIC-MRCI
   Bernardo de Souza      : ESD, SOC TD-DFT
   Georgi Stoychev        : AutoAux, RI-MP2 NMR
   Willem Van den Heuvel  : Paramagnetic NMR
   Boris Wezisla          : Elementary symmetry handling
   Frank Wennmohs         : Technical directorship


 We gratefully acknowledge several colleagues who have allowed us to
 interface, adapt or use parts of their codes:
   Stefan Grimme, W. Hujo, H. Kruse,             : VdW corrections, initial TS optimization,
                  C. Bannwarth                     DFT functionals, gCP, sTDA/sTD-DF
   Ed Valeev, F. Pavosevic, A. Kumar             : LibInt (2-el integral package), F12 methods
   Garnet Chan, S. Sharma, J. Yang, R. Olivares  : DMRG
   Ulf Ekstrom                                   : XCFun DFT Library
   Mihaly Kallay                                 : mrcc  (arbitrary order and MRCC methods)
   Andreas Klamt, Michael Diedenhofen            : otool_cosmo (COSMO solvation model)
   Jiri Pittner, Ondrej Demel                    : Mk-CCSD
   Frank Weinhold                                : gennbo (NPA and NBO analysis)
   Christopher J. Cramer and Donald G. Truhlar   : smd solvation model
   Lars Goerigk                                  : TD-DFT with DH, B97 family of functionals
   V. Asgeirsson, H. Jonsson                     : NEB implementation
   FAccTs GmbH                                   : IRC, NEB, NEB-TS, Multilevel, MM, QM/MM, CI optimization
   S Lehtola, MJT Oliveira, MAL Marques          : LibXC Library


 Your calculation uses the libint2 library for the computation of 2-el integrals
 For citations please refer to: http://libint.valeyev.net

 Your ORCA version has been built with support for libXC version: 4.2.3
 For citations please refer to: https://tddft.org/programs/libxc/

 This ORCA versions uses:
   CBLAS   interface :  Fast vector & matrix operations
   LAPACKE interface :  Fast linear algebra routines
   SCALAPACK package :  Parallel linear algebra routines


----- Orbital basis set information -----
Your calculation utilizes the basis: def2-QZVP
   F. Weigend and R. Ahlrichs, Phys. Chem. Chem. Phys. 7, 3297 (2005).

cite the ECPs for Mo [Def2-ECP] as follows:
Ce-Yb(ecp-28): M. Dolg, H. Stoll, H.Preuss, J. Chem. Phys., 1989, 90, 1730-1734.
Y-Cd(ecp-28), Hf-Hg(ecp-46): D. Andrae,U. Haeussermann, M. Dolg, H. Stoll, H. Preuss, Theor. Chim. Acta, 1990, 77, 123-141.
In-Sb(ecp-28), Tl-Bi(ecp-46): B. Metz, H. Stoll, M. Dolg, J. Chem. Phys., 2000, 113, 2563-2569.
Te-Xe(ecp-28), Po-Rn(ecp-46): K. A. Peterson, D. Figgen, E. Goll, H. Stoll, M. Dolg, J. Chem. Phys., 2003, 119, 11113-11123.
Rb(ecp-28), Cs(ecp-46): T. Leininger, A. Nicklass, W. Kuechle, H. Stoll, M. Dolg, A. Bergner, Chem. Phys. Lett., 1996, 255, 274-280.
Sr(ecp-28), Ba(ecp-46): M. Kaupp, P. V. Schleyer, H. Stoll and H. Preuss, J. Chem. Phys., 1991, 94, 1360-1366.
La(ecp-46): M. Dolg, H. Stoll, A. Savin, H. Preuss, Theor. Chim. Acta, 1989, 75, 173-194.
Lu(ecp-28): X. Cao, M. Dolg, J. Chem. Phys., 2001, 115, 7348-7355.

ECP parameters for Mo [Def2-ECP] have been obtained from:
TURBOMOLE (7.0.2)

================================================================================
                                        WARNINGS
                       Please study these warnings very carefully!
================================================================================


WARNING: your system is open-shell and RHF/RKS was chosen
  ===> : WILL SWITCH to UHF/UKS


WARNING: MDCI localization with Augmented Hessian Foster-Boys
  ===> : Switching off randomization!

WARNING: Post HF methods need fully converged wavefunctions
  ===> : Setting SCFConvForced true
         You can overwrite this default with %scf ConvForced false 


INFO   : the flag for use of LIBINT has been found!

================================================================================
                                       INPUT FILE
================================================================================
NAME = 42_Mo.in
|  1> #
|  2> # 42_Mo CCSD(T)/Def2-QZVP
|  3> #
|  4> ! CCSD(T) Def2-QZVP tightscf
|  5> 
|  6> *xyz 0 7
|  7>  Mo 0.0 0.0 0.0
|  8> *
|  9> 
| 10> %maxcore 5000 
| 11> 
| 12> %pal
| 13> nprocs 24
| 14> end
| 15> 
| 16> 
| 17>                          ****END OF INPUT****
================================================================================

                       ****************************
                       * Single Point Calculation *
                       ****************************

---------------------------------
CARTESIAN COORDINATES (ANGSTROEM)
---------------------------------
  Mo     0.000000    0.000000    0.000000

----------------------------
CARTESIAN COORDINATES (A.U.)
----------------------------
  NO LB      ZA    FRAG     MASS         X           Y           Z
   0 Mo   14.0000*   0    95.940    0.000000    0.000000    0.000000
* core charge reduced due to ECP

--------------------------------
INTERNAL COORDINATES (ANGSTROEM)
--------------------------------
 Mo     0   0   0     0.000000000000     0.00000000     0.00000000

---------------------------
INTERNAL COORDINATES (A.U.)
---------------------------
 Mo     0   0   0     0.000000000000     0.00000000     0.00000000

---------------------
BASIS SET INFORMATION
---------------------
There are 1 groups of distinct atoms

 Group   1 Type Mo  : 9s8p7d3f1g contracted to 7s5p4d3f1g pattern {3111111/41111/4111/111/1}

Atom   0Mo   basis set group =>   1
-------------------------
ECP PARAMETER INFORMATION
-------------------------

 Group 1, Type Mo ECP Def2-ECP (replacing 28 core electrons, lmax=3)

Atom   0Mo   ECP group =>   1



           ************************************************************
           *        Program running with 24 parallel MPI-processes    *
           *              working on a common directory               *
           ************************************************************
------------------------------------------------------------------------------
                           ORCA GTO INTEGRAL CALCULATION
------------------------------------------------------------------------------

                         BASIS SET STATISTICS AND STARTUP INFO

 # of primitive gaussian shells          ...   28
 # of primitive gaussian functions       ...   98
 # of contracted shells                  ...   20
 # of contracted basis functions         ...   72
 Highest angular momentum                ...    4
 Maximum contraction depth               ...    4
 Integral package used                   ... LIBINT
 Integral threshhold            Thresh   ...  2.500e-11
 Primitive cut-off              TCut     ...  2.500e-12


------------------------------ INTEGRAL EVALUATION ----------------------------


 * One electron integrals 

   ECP integrals                         ... done
 Pre-screening matrix                    ... done
 Shell pair data                         ... done (   0.000 sec)



           ************************************************************
           *        Program running with 24 parallel MPI-processes    *
           *              working on a common directory               *
           ************************************************************
-------------------------------------------------------------------------------
                                 ORCA SCF
-------------------------------------------------------------------------------

------------
SCF SETTINGS
------------
Hamiltonian:
 Ab initio Hamiltonian  Method          .... Hartree-Fock(GTOs)


General Settings:
 Integral files         IntName         .... 42_Mo
 Hartree-Fock type      HFTyp           .... UHF
 Total Charge           Charge          ....    0
 Multiplicity           Mult            ....    7
 Number of Electrons    NEL             ....   14
 Basis Dimension        Dim             ....   72
 Nuclear Repulsion      ENuc            ....      0.0000000000 Eh

Convergence Acceleration:
 DIIS                   CNVDIIS         .... on
   Start iteration      DIISMaxIt       ....    12
   Startup error        DIISStart       ....  0.200000
   # of expansion vecs  DIISMaxEq       ....     5
   Bias factor          DIISBfac        ....   1.050
   Max. coefficient     DIISMaxC        ....  10.000
 Newton-Raphson         CNVNR           .... off
 SOSCF                  CNVSOSCF        .... off
 Level Shifting         CNVShift        .... on
   Level shift para.    LevelShift      ....    0.2500
   Turn off err/grad.   ShiftErr        ....    0.0010
 Zerner damping         CNVZerner       .... off
 Static damping         CNVDamp         .... on
   Fraction old density DampFac         ....    0.7000
   Max. Damping (<1)    DampMax         ....    0.9800
   Min. Damping (>=0)   DampMin         ....    0.0000
   Turn off err/grad.   DampErr         ....    0.1000
 Fernandez-Rico         CNVRico         .... off

SCF Procedure:
 Maximum # iterations   MaxIter         ....   125
 SCF integral mode      SCFMode         .... Direct
   Integral package                     .... LIBINT
 Reset frequency        DirectResetFreq ....    20
 Integral Threshold     Thresh          ....  2.500e-11 Eh
 Primitive CutOff       TCut            ....  2.500e-12 Eh

Convergence Tolerance:
 Convergence Check Mode ConvCheckMode   .... Total+1el-Energy
 Convergence forced     ConvForced      .... 1
 Energy Change          TolE            ....  1.000e-08 Eh
 1-El. energy change                    ....  1.000e-05 Eh
 DIIS Error             TolErr          ....  5.000e-07


Diagonalization of the overlap matrix:
Smallest eigenvalue                        ... 5.930e-03
Time for diagonalization                   ...    0.002 sec
Threshold for overlap eigenvalues          ... 1.000e-08
Number of eigenvalues below threshold      ... 0
Time for construction of square roots      ...    0.016 sec
Total time needed                          ...    0.018 sec

-------------------
DFT GRID GENERATION
-------------------

General Integration Accuracy     IntAcc      ...  4.340
Radial Grid Type                 RadialGrid  ... Gauss-Chebyshev
Angular Grid (max. acc.)         AngularGrid ... Lebedev-110
Angular grid pruning method      GridPruning ... 3 (G Style)
Weight generation scheme         WeightScheme... Becke
Basis function cutoff            BFCut       ...    1.0000e-11
Integration weight cutoff        WCut        ...    1.0000e-14
Grids for H and He will be reduced by one unit

# of grid points (after initial pruning)     ...   3280 (   0.0 sec)
# of grid points (after weights+screening)   ...   3280 (   0.0 sec)
Grid point division into batches done        ...    0.0 sec
Reduced shell lists constructed in    0.0 sec

Total number of grid points                  ...     3280
Total number of batches                      ...       52
Average number of points per batch           ...       63
Average number of grid points per atom       ...     3280
Average number of shells per batch           ...     6.75 (33.75%)
Average number of basis functions per batch  ...    21.75 (30.21%)
Average number of large shells per batch     ...     5.50 (81.48%)
Average number of large basis fcns per batch ...    16.00 (73.56%)
Maximum spatial batch extension              ...  21.45, 33.74, 33.74 au
Average spatial batch extension              ...   1.24,  1.72,  1.95 au

Time for grid setup =    0.066 sec

------------------------------
INITIAL GUESS: MODEL POTENTIAL
------------------------------
Loading Hartree-Fock densities                     ... done
  calling /sw/apps/orca/orca_4_2_0_linux_x86-64_openmpi314/orca 42_Mo_atom42.inp > 42_Mo_atom42.out in order to generate an atomic fitting density for atom 0 (Mo with ECP) on-the-fly... 
    atom 0 (Mo), assumed electronic state with S=5: 1s2 2s2 2p6 3s2 3p6 4s2 3d10 4p6 5s2 4d4           ... done
Calculating cut-offs                               ... done
Setting up the integral package                    ... done
Initializing the effective Hamiltonian             ... done
Starting the Coulomb interaction                   ... done (   0.0 sec)
Reading the grid                                   ... done
Mapping shells                                     ... done
Starting the XC term evaluation                    ... done (   0.0 sec)
Transforming the Hamiltonian                       ... done (   0.0 sec)
Diagonalizing the Hamiltonian                      ... done (   0.0 sec)
Back transforming the eigenvectors                 ... done (   0.0 sec)
Now organizing SCF variables                       ... done
                      ------------------
                      INITIAL GUESS DONE (   6.9 sec)
                      ------------------
--------------
SCF ITERATIONS
--------------
ITER       Energy         Delta-E        Max-DP      RMS-DP      [F,P]     Damp
               ***  Starting incremental Fock matrix formation  ***
  0    -67.4954293070   0.000000000000 0.11142451  0.00183318  0.4325337 0.7000
  1    -67.5200890677  -0.024659760773 0.08290026  0.00145833  0.3015285 0.7000
  2    -67.5354210103  -0.015331942586 0.05651681  0.00101687  0.2083530 0.7000
                               ***Turning on DIIS***
  3    -67.5452632548  -0.009842244466 0.03858080  0.00069895  0.1445072 0.7000
  4    -67.6678313271  -0.122568072346 0.02767925  0.00049755  0.1007584 0.7000
  5    -67.6482200537   0.019611273427 0.07310213  0.00128148  0.0711078 0.0000
  6    -67.5690059737   0.079214080069 0.00939842  0.00017776  0.0018912 0.0000
  7    -67.5688032697   0.000202703972 0.00699588  0.00014545  0.0013868 0.0000
  8    -67.5684102055   0.000393064140 0.01230056  0.00020691  0.0008730 0.0000
  9    -67.5682254697   0.000184735813 0.00547457  0.00007487  0.0002034 0.0000
 10    -67.5677899053   0.000435564406 0.00094283  0.00001198  0.0000235 0.0000
 11    -67.5677413061   0.000048599222 0.00029406  0.00000371  0.0000048 0.0000
 12    -67.5677181976   0.000023108529 0.00000931  0.00000017  0.0000011 0.0000
                            ***DIIS convergence achieved***

               *****************************************************
               *                     SUCCESS                       *
               *           SCF CONVERGED AFTER  13 CYCLES          *
               *****************************************************


----------------
TOTAL SCF ENERGY
----------------

Total Energy       :          -67.56771570 Eh           -1838.61102 eV

Components:
Nuclear Repulsion  :            0.00000000 Eh               0.00000 eV
Electronic Energy  :          -67.56771570 Eh           -1838.61102 eV
One Electron Energy:         -116.61532967 Eh           -3173.26445 eV
Two Electron Energy:           49.04761398 Eh            1334.65343 eV

Virial components:
Potential Energy   :          -91.49561493 Eh           -2489.72226 eV
Kinetic Energy     :           23.92789923 Eh             651.11124 eV
Virial Ratio       :            3.82380476


---------------
SCF CONVERGENCE
---------------

  Last Energy change         ...    2.5013e-06  Tolerance :   1.0000e-08
  Last MAX-Density change    ...    5.5755e-06  Tolerance :   1.0000e-07
  Last RMS-Density change    ...    7.0415e-08  Tolerance :   5.0000e-09
  Last DIIS Error            ...    1.0115e-07  Tolerance :   5.0000e-07

             **** THE GBW FILE WAS UPDATED (42_Mo.gbw) ****
             **** DENSITY FILE WAS UPDATED (42_Mo.scfp) ****
             **** ENERGY FILE WAS UPDATED (42_Mo.en.tmp) ****
----------------------
UHF SPIN CONTAMINATION
----------------------

Expectation value of <S**2>     :    12.002686
Ideal value S*(S+1) for S=3.0   :    12.000000
Deviation                       :     0.002686

             **** THE GBW FILE WAS UPDATED (42_Mo.gbw) ****
             **** DENSITY FILE WAS UPDATED (42_Mo.scfp) ****
----------------
ORBITAL ENERGIES
----------------
                 SPIN UP ORBITALS
  NO   OCC          E(Eh)            E(eV) 
   0   1.0000      -3.050695       -83.0136 
   1   1.0000      -1.938542       -52.7504 
   2   1.0000      -1.938542       -52.7504 
   3   1.0000      -1.938542       -52.7504 
   4   1.0000      -0.343397        -9.3443 
   5   1.0000      -0.343397        -9.3443 
   6   1.0000      -0.343397        -9.3443 
   7   1.0000      -0.343397        -9.3443 
   8   1.0000      -0.343397        -9.3443 
   9   1.0000      -0.239429        -6.5152 
  10   0.0000       0.021788         0.5929 
  11   0.0000       0.021788         0.5929 
  12   0.0000       0.021788         0.5929 
  13   0.0000       0.080175         2.1817 
  14   0.0000       0.123009         3.3472 
  15   0.0000       0.123009         3.3472 
  16   0.0000       0.123009         3.3472 
  17   0.0000       0.215234         5.8568 
  18   0.0000       0.215234         5.8568 
  19   0.0000       0.215234         5.8568 
  20   0.0000       0.215234         5.8568 
  21   0.0000       0.215234         5.8568 
  22   0.0000       0.416427        11.3315 
  23   0.0000       0.684420        18.6240 
  24   0.0000       0.684420        18.6240 
  25   0.0000       0.684420        18.6240 
  26   0.0000       0.715898        19.4806 
  27   0.0000       0.715898        19.4806 
  28   0.0000       0.715898        19.4806 
  29   0.0000       0.715898        19.4806 
  30   0.0000       0.715898        19.4806 
  31   0.0000       0.715898        19.4806 
  32   0.0000       0.715898        19.4806 
  33   0.0000       0.793070        21.5805 
  34   0.0000       0.793070        21.5805 
  35   0.0000       0.793070        21.5805 
  36   0.0000       0.793070        21.5805 
  37   0.0000       0.793070        21.5805 
  38   0.0000       1.934254        52.6337 
  39   0.0000       1.934254        52.6337 
  40   0.0000       1.934254        52.6337 
  41   0.0000       1.934254        52.6337 
  42   0.0000       1.934254        52.6337 
  43   0.0000       1.934254        52.6337 
  44   0.0000       1.934254        52.6337 
  45   0.0000       2.089136        56.8483 
  46   0.0000       2.490038        67.7574 
  47   0.0000       2.490038        67.7574 
  48   0.0000       2.490038        67.7574 
  49   0.0000       2.490038        67.7574 
  50   0.0000       2.490038        67.7574 
  51   0.0000       2.754889        74.9643 
  52   0.0000       2.754889        74.9643 
  53   0.0000       2.754889        74.9643 
  54   0.0000       2.754889        74.9643 
  55   0.0000       2.754889        74.9643 
  56   0.0000       2.754889        74.9643 
  57   0.0000       2.754889        74.9643 
  58   0.0000       2.754889        74.9643 
  59   0.0000       2.754889        74.9643 
  60   0.0000       5.060135       137.6933 
  61   0.0000       5.060135       137.6933 
  62   0.0000       5.060135       137.6933 
  63   0.0000       5.060135       137.6933 
  64   0.0000       5.060135       137.6933 
  65   0.0000       5.060135       137.6933 
  66   0.0000       5.060135       137.6933 
  67   0.0000       5.394365       146.7881 
  68   0.0000       5.394365       146.7881 
  69   0.0000       5.394365       146.7881 
  70   0.0000      24.696369       672.0224 
  71   0.0000      85.648703      2330.6197 

                 SPIN DOWN ORBITALS
  NO   OCC          E(Eh)            E(eV) 
   0   1.0000      -2.814970       -76.5992 
   1   1.0000      -1.627466       -44.2856 
   2   1.0000      -1.627466       -44.2856 
   3   1.0000      -1.627466       -44.2856 
   4   0.0000       0.022266         0.6059 
   5   0.0000       0.045606         1.2410 
   6   0.0000       0.045606         1.2410 
   7   0.0000       0.045606         1.2410 
   8   0.0000       0.134492         3.6597 
   9   0.0000       0.172123         4.6837 
  10   0.0000       0.172123         4.6837 
  11   0.0000       0.172123         4.6837 
  12   0.0000       0.172123         4.6837 
  13   0.0000       0.172123         4.6837 
  14   0.0000       0.187304         5.0968 
  15   0.0000       0.187304         5.0968 
  16   0.0000       0.187304         5.0968 
  17   0.0000       0.321558         8.7500 
  18   0.0000       0.321558         8.7500 
  19   0.0000       0.321558         8.7500 
  20   0.0000       0.321558         8.7500 
  21   0.0000       0.321558         8.7500 
  22   0.0000       0.493274        13.4227 
  23   0.0000       0.778147        21.1744 
  24   0.0000       0.778147        21.1744 
  25   0.0000       0.778147        21.1744 
  26   0.0000       0.815701        22.1963 
  27   0.0000       0.815701        22.1963 
  28   0.0000       0.815701        22.1963 
  29   0.0000       0.815701        22.1963 
  30   0.0000       0.815701        22.1963 
  31   0.0000       0.815701        22.1963 
  32   0.0000       0.815701        22.1963 
  33   0.0000       0.891283        24.2530 
  34   0.0000       0.891283        24.2530 
  35   0.0000       0.891283        24.2530 
  36   0.0000       0.891283        24.2530 
  37   0.0000       0.891283        24.2530 
  38   0.0000       2.109460        57.4013 
  39   0.0000       2.109460        57.4013 
  40   0.0000       2.109460        57.4013 
  41   0.0000       2.109460        57.4013 
  42   0.0000       2.109460        57.4013 
  43   0.0000       2.109460        57.4013 
  44   0.0000       2.109460        57.4013 
  45   0.0000       2.179055        59.2951 
  46   0.0000       2.585414        70.3527 
  47   0.0000       2.585414        70.3527 
  48   0.0000       2.585414        70.3527 
  49   0.0000       2.585414        70.3527 
  50   0.0000       2.585414        70.3527 
  51   0.0000       2.865144        77.9645 
  52   0.0000       2.865144        77.9645 
  53   0.0000       2.865144        77.9645 
  54   0.0000       2.865144        77.9645 
  55   0.0000       2.865144        77.9645 
  56   0.0000       2.865144        77.9645 
  57   0.0000       2.865144        77.9645 
  58   0.0000       2.865144        77.9645 
  59   0.0000       2.865144        77.9645 
  60   0.0000       5.143810       139.9702 
  61   0.0000       5.143810       139.9702 
  62   0.0000       5.143810       139.9702 
  63   0.0000       5.143810       139.9702 
  64   0.0000       5.143810       139.9702 
  65   0.0000       5.143810       139.9702 
  66   0.0000       5.143810       139.9702 
  67   0.0000       5.466843       148.7604 
  68   0.0000       5.466843       148.7604 
  69   0.0000       5.466843       148.7604 
  70   0.0000      24.718484       672.6241 
  71   0.0000      85.650791      2330.6765 

                    ********************************
                    * MULLIKEN POPULATION ANALYSIS *
                    ********************************

--------------------------------------------
MULLIKEN ATOMIC CHARGES AND SPIN POPULATIONS
--------------------------------------------
   0 Mo:   -0.000000    6.000000
Sum of atomic charges         :   -0.0000000
Sum of atomic spin populations:    6.0000000

-----------------------------------------------------
MULLIKEN REDUCED ORBITAL CHARGES AND SPIN POPULATIONS
-----------------------------------------------------
CHARGE
  0 Mos       :     3.000000  s :     3.000000
      pz      :     2.000000  p :     6.000000
      px      :     2.000000
      py      :     2.000000
      dz2     :     1.000000  d :     5.000000
      dxz     :     1.000000
      dyz     :     1.000000
      dx2y2   :     1.000000
      dxy     :     1.000000
      f0      :     0.000000  f :     0.000000
      f+1     :     0.000000
      f-1     :     0.000000
      f+2     :     0.000000
      f-2     :     0.000000
      f+3     :     0.000000
      f-3     :     0.000000
      g0      :     0.000000  g :     0.000000
      g+1     :     0.000000
      g-1     :     0.000000
      g+2     :     0.000000
      g-2     :     0.000000
      g+3     :     0.000000
      g-3     :     0.000000
      g+4     :     0.000000
      g-4     :     0.000000

SPIN
  0 Mos       :     1.000000  s :     1.000000
      pz      :     0.000000  p :     0.000000
      px      :    -0.000000
      py      :     0.000000
      dz2     :     1.000000  d :     5.000000
      dxz     :     1.000000
      dyz     :     1.000000
      dx2y2   :     1.000000
      dxy     :     1.000000
      f0      :     0.000000  f :     0.000000
      f+1     :     0.000000
      f-1     :     0.000000
      f+2     :     0.000000
      f-2     :     0.000000
      f+3     :     0.000000
      f-3     :     0.000000
      g0      :     0.000000  g :     0.000000
      g+1     :     0.000000
      g-1     :     0.000000
      g+2     :     0.000000
      g-2     :     0.000000
      g+3     :     0.000000
      g-3     :     0.000000
      g+4     :     0.000000
      g-4     :     0.000000


                     *******************************
                     * LOEWDIN POPULATION ANALYSIS *
                     *******************************

-------------------------------------------
LOEWDIN ATOMIC CHARGES AND SPIN POPULATIONS
-------------------------------------------
   0 Mo:   -0.000000    6.000000

----------------------------------------------------
LOEWDIN REDUCED ORBITAL CHARGES AND SPIN POPULATIONS
----------------------------------------------------
CHARGE
  0 Mos       :     3.000000  s :     3.000000
      pz      :     2.000000  p :     6.000000
      px      :     2.000000
      py      :     2.000000
      dz2     :     1.000000  d :     5.000000
      dxz     :     1.000000
      dyz     :     1.000000
      dx2y2   :     1.000000
      dxy     :     1.000000
      f0      :     0.000000  f :     0.000000
      f+1     :     0.000000
      f-1     :     0.000000
      f+2     :     0.000000
      f-2     :     0.000000
      f+3     :     0.000000
      f-3     :     0.000000
      g0      :     0.000000  g :     0.000000
      g+1     :     0.000000
      g-1     :     0.000000
      g+2     :     0.000000
      g-2     :     0.000000
      g+3     :     0.000000
      g-3     :     0.000000
      g+4     :     0.000000
      g-4     :     0.000000

SPIN
  0 Mos       :     1.000000  s :     1.000000
      pz      :     0.000000  p :     0.000000
      px      :    -0.000000
      py      :     0.000000
      dz2     :     1.000000  d :     5.000000
      dxz     :     1.000000
      dyz     :     1.000000
      dx2y2   :     1.000000
      dxy     :     1.000000
      f0      :     0.000000  f :     0.000000
      f+1     :     0.000000
      f-1     :     0.000000
      f+2     :     0.000000
      f-2     :     0.000000
      f+3     :     0.000000
      f-3     :     0.000000
      g0      :     0.000000  g :     0.000000
      g+1     :     0.000000
      g-1     :     0.000000
      g+2     :     0.000000
      g-2     :     0.000000
      g+3     :     0.000000
      g-3     :     0.000000
      g+4     :     0.000000
      g-4     :     0.000000


                      *****************************
                      * MAYER POPULATION ANALYSIS *
                      *****************************

  NA   - Mulliken gross atomic population
  ZA   - Total nuclear charge
  QA   - Mulliken gross atomic charge
  VA   - Mayer's total valence
  BVA  - Mayer's bonded valence
  FA   - Mayer's free valence

  ATOM       NA         ZA         QA         VA         BVA        FA
  0 Mo    14.0000    14.0000    -0.0000     6.0054     0.0000     6.0054

  Mayer bond orders larger than 0.100000


-------
TIMINGS
-------

Total SCF time: 0 days 0 hours 0 min 15 sec 

Total time                  ....      15.055 sec
Sum of individual times     ....       9.552 sec  ( 63.4%)

Fock matrix formation       ....       2.180 sec  ( 14.5%)
Diagonalization             ....       0.084 sec  (  0.6%)
Density matrix formation    ....       0.008 sec  (  0.1%)
Population analysis         ....       0.158 sec  (  1.0%)
Initial guess               ....       6.801 sec  ( 45.2%)
Orbital Transformation      ....       0.000 sec  (  0.0%)
Orbital Orthonormalization  ....       0.000 sec  (  0.0%)
DIIS solution               ....       0.257 sec  (  1.7%)


           ************************************************************
           *        Program running with 24 parallel MPI-processes    *
           *              working on a common directory               *
           ************************************************************


------------------------------------------------------------------------------- 
                              ORCA-MATRIX DRIVEN CI                            
------------------------------------------------------------------------------- 

--------------------------------
AUTOMATIC CHOICE OF INCORE LEVEL
--------------------------------

Memory available                           ...   2500.00 MB
Memory needed for S+T                      ...      4.84 MB
Memory needed for J+K                      ...      9.73 MB
Memory needed for DIIS                     ...     67.75 MB
Memory needed for 3-ext                    ...     18.18 MB
Memory needed for 4-ext                    ...     57.28 MB
Memory needed for triples                  ...      9.09 MB
 -> Final InCoreLevel    ... 5
 -> check shows that triples correction can be computed


Wavefunction type
-----------------
Correlation treatment                      ...      CCSD     
Single excitations                         ... ON
Orbital optimization                       ... OFF
Calculation of Z vector                    ... OFF
Calculation of Brueckner orbitals          ... OFF
Perturbative triple excitations            ... ON
Calculation of F12 correction              ... OFF
Frozen core treatment                      ... chemical core (0 el)
Reference Wavefunction                     ... UHF
  Alpha-MOs occ    :     0 ...    9 ( 10 MO's/ 10 electrons)
  Beta-MOs occ     :     0 ...    3 (  4 MO's/  4 electrons)
  Alpha-MOs virt   :    10 ...   71 ( 62 MO's              )
  Beta-MOs virt    :     4 ...   71 ( 68 MO's              )
Number of AO's                             ...     72
Number of electrons                        ...     14
Number of correlated electrons             ...     14

Algorithmic settings
--------------------
Integral transformation                    ... AO direct full transformation
K(C) Formation                             ... FULL-MO TRAFO
Maximum number of iterations               ...        50
Convergence tolerance (max. residuum)      ... 1.000e-05
Level shift for amplitude update           ... 2.000e-01
Maximum number of DIIS vectors             ...         7
DIIS turned on at iteration                ...         0
Damping before turning on DIIS             ...     0.500
Damping after turning on DIIS              ...     0.000
Pair specific amplitude update             ... OFF
Natural orbital iterations                 ... OFF
Perturbative natural orbital generation    ... OFF
Printlevel                                 ... 2

Memory handling:
----------------
Maximum memory for working arrays          ...   2500 MB
Data storage in matrix containers          ... UNCOMPRESSED
Data type for integral storage             ... DOUBLE
In-Core Storage of quantities:
   Amplitudes+Sigma Vector      ... YES
   J+K operators                ... YES
   DIIS vectors                 ... YES
   3-external integrals         ... YES
   4-external integrals         ... YES


Initializing the integral package          ... done
Warning: reference  - re-canonicalizations have been set to INT 1 VIRT 1

--------------------------
UNRESTRICTED FOCK OPERATOR
--------------------------

<ss|ss>:          406 b            0 skpd (  0.0%)    0.000 s ( 0.000 ms/b)
<ss|sp>:          980 b            0 skpd (  0.0%)    0.000 s ( 0.000 ms/b)
<ss|sd>:          784 b            0 skpd (  0.0%)    0.000 s ( 0.000 ms/b)
<ss|sf>:          588 b            0 skpd (  0.0%)    0.000 s ( 0.000 ms/b)
<ss|sg>:          196 b            0 skpd (  0.0%)    0.000 s ( 0.000 ms/b)
<ss|pp>:          420 b            0 skpd (  0.0%)    0.000 s ( 0.000 ms/b)
<ss|pd>:          560 b            0 skpd (  0.0%)    0.000 s ( 0.000 ms/b)
<ss|pf>:          420 b            0 skpd (  0.0%)    0.000 s ( 0.000 ms/b)
<ss|pg>:          140 b            0 skpd (  0.0%)    0.000 s ( 0.001 ms/b)
<ss|dd>:          280 b            0 skpd (  0.0%)    0.000 s ( 0.001 ms/b)
<ss|df>:          336 b            0 skpd (  0.0%)    0.000 s ( 0.001 ms/b)
<ss|dg>:          112 b            0 skpd (  0.0%)    0.000 s ( 0.002 ms/b)
<ss|ff>:          168 b            0 skpd (  0.0%)    0.000 s ( 0.001 ms/b)
<ss|fg>:           84 b            0 skpd (  0.0%)    0.000 s ( 0.002 ms/b)
<ss|gg>:           28 b            0 skpd (  0.0%)    0.000 s ( 0.006 ms/b)
<sp|sp>:          630 b            0 skpd (  0.0%)    0.000 s ( 0.000 ms/b)
<sp|sd>:          980 b            0 skpd (  0.0%)    0.000 s ( 0.000 ms/b)
<sp|sf>:          735 b            0 skpd (  0.0%)    0.000 s ( 0.000 ms/b)
<sp|sg>:          245 b            0 skpd (  0.0%)    0.000 s ( 0.000 ms/b)
<sp|pp>:          525 b            0 skpd (  0.0%)    0.000 s ( 0.000 ms/b)
<sp|pd>:          700 b            7 skpd (  1.0%)    0.000 s ( 0.000 ms/b)
<sp|pf>:          525 b            8 skpd (  1.5%)    0.000 s ( 0.001 ms/b)
<sp|pg>:          175 b            2 skpd (  1.1%)    0.000 s ( 0.002 ms/b)
<sp|dd>:          350 b            0 skpd (  0.0%)    0.001 s ( 0.002 ms/b)
<sp|df>: done
<sp|dg>: done
<sp|ff>: done
<sp|fg>: done
<sp|gg>: done
<sd|sd>:          406 b            0 skpd (  0.0%)    0.000 s ( 0.001 ms/b)
<sd|sf>:          588 b            0 skpd (  0.0%)    0.000 s ( 0.000 ms/b)
<sd|sg>:          196 b            0 skpd (  0.0%)    0.000 s ( 0.001 ms/b)
<sd|pp>:          420 b            1 skpd (  0.2%)    0.000 s ( 0.001 ms/b)
<sd|pd>:          560 b            0 skpd (  0.0%)    0.001 s ( 0.001 ms/b)
<sd|pf>: done
<sd|pg>: done
<sd|dd>:          280 b            0 skpd (  0.0%)    0.001 s ( 0.004 ms/b)
<sd|df>:          336 b            0 skpd (  0.0%)    0.001 s ( 0.003 ms/b)
<sd|dg>:          112 b            0 skpd (  0.0%)    0.001 s ( 0.013 ms/b)
<sd|ff>: done
<sd|fg>: done
<sd|gg>: done
<sf|sf>:          231 b            0 skpd (  0.0%)    0.000 s ( 0.001 ms/b)
<sf|sg>:          147 b            0 skpd (  0.0%)    0.000 s ( 0.001 ms/b)
<sf|pp>:          315 b            1 skpd (  0.3%)    0.000 s ( 0.001 ms/b)
<sf|pd>: done
<sf|pf>: done
<sf|pg>: done
<sf|dd>:          210 b            0 skpd (  0.0%)    0.001 s ( 0.005 ms/b)
<sf|df>: done
<sf|dg>: done
<sf|ff>: done
<sf|fg>: done
<sf|gg>: done
<sg|sg>:           28 b            0 skpd (  0.0%)    0.000 s ( 0.004 ms/b)
<sg|pp>:          105 b            1 skpd (  1.0%)    0.000 s ( 0.002 ms/b)
<sg|pd>: done
<sg|pf>: done
<sg|pg>: done
<sg|dd>:           70 b            0 skpd (  0.0%)    0.001 s ( 0.009 ms/b)
<sg|df>: done
<sg|dg>: done
<sg|ff>: done
<sg|fg>: done
<sg|gg>: done
<pp|pp>:          120 b            0 skpd (  0.0%)    0.000 s ( 0.002 ms/b)
<pp|pd>:          300 b            0 skpd (  0.0%)    0.000 s ( 0.001 ms/b)
<pp|pf>:          225 b            0 skpd (  0.0%)    0.000 s ( 0.002 ms/b)
<pp|pg>:           75 b            0 skpd (  0.0%)    0.001 s ( 0.008 ms/b)
<pp|dd>:          150 b            0 skpd (  0.0%)    0.001 s ( 0.005 ms/b)
<pp|df>:          180 b            0 skpd (  0.0%)    0.001 s ( 0.004 ms/b)
<pp|dg>:           60 b            0 skpd (  0.0%)    0.001 s ( 0.018 ms/b)
<pp|ff>:           90 b            0 skpd (  0.0%)    0.001 s ( 0.008 ms/b)
<pp|fg>:           45 b            0 skpd (  0.0%)    0.001 s ( 0.019 ms/b)
<pp|gg>:           15 b            0 skpd (  0.0%)    0.001 s ( 0.050 ms/b)
<pd|pd>:          210 b            0 skpd (  0.0%)    0.001 s ( 0.006 ms/b)
<pd|pf>:          300 b            1 skpd (  0.3%)    0.001 s ( 0.002 ms/b)
<pd|pg>:          100 b            0 skpd (  0.0%)    0.002 s ( 0.018 ms/b)
<pd|dd>:          200 b            0 skpd (  0.0%)    0.002 s ( 0.011 ms/b)
<pd|df>:          240 b            0 skpd (  0.0%)    0.002 s ( 0.009 ms/b)
<pd|dg>:           80 b            0 skpd (  0.0%)    0.003 s ( 0.041 ms/b)
<pd|ff>: done
<pd|fg>: done
<pd|gg>: done
<pf|pf>:          120 b            2 skpd (  1.7%)    0.001 s ( 0.006 ms/b)
<pf|pg>:           75 b            1 skpd (  1.3%)    0.002 s ( 0.023 ms/b)
<pf|dd>:          150 b            0 skpd (  0.0%)    0.002 s ( 0.013 ms/b)
<pf|df>: done
<pf|dg>: done
<pf|ff>: done
<pf|fg>: done
<pf|gg>: done
<pg|pg>:           15 b            0 skpd (  0.0%)    0.001 s ( 0.050 ms/b)
<pg|dd>:           50 b            0 skpd (  0.0%)    0.001 s ( 0.025 ms/b)
<pg|df>: done
<pg|dg>: done
<pg|ff>: done
<pg|fg>: done
<pg|gg>: done
<dd|dd>:           55 b            0 skpd (  0.0%)    0.003 s ( 0.046 ms/b)
<dd|df>:          120 b            0 skpd (  0.0%)    0.003 s ( 0.021 ms/b)
<dd|dg>:           40 b            0 skpd (  0.0%)    0.004 s ( 0.096 ms/b)
<dd|ff>:           60 b            0 skpd (  0.0%)    0.003 s ( 0.052 ms/b)
<dd|fg>:           30 b            0 skpd (  0.0%)    0.005 s ( 0.161 ms/b)
<dd|gg>:           10 b            0 skpd (  0.0%)    0.002 s ( 0.227 ms/b)
<df|df>:           78 b            0 skpd (  0.0%)    0.003 s ( 0.042 ms/b)
<df|dg>:           48 b            0 skpd (  0.0%)    0.005 s ( 0.106 ms/b)
<df|ff>: done
<df|fg>: done
<df|gg>: done
<dg|dg>:           10 b            0 skpd (  0.0%)    0.002 s ( 0.240 ms/b)
<dg|ff>: done
<dg|fg>: done
<dg|gg>: done
<ff|ff>: done
<ff|fg>: done
<ff|gg>: done
<fg|fg>: done
<fg|gg>: done
<gg|gg>: done
Recanonicalizing the internal orbitals
Recanonicalizing the virtual orbitals
Time needed for Fock operator              ...            0.133 sec
Reference energy                           ...    -67.567715835
Warning: for UHF the TrafoType has to be JK
Warning: for UHF the K(C)-option cannot be MO but must be AOX

-------------------------------
PARTIAL EXCHANGE TRANSFORMATION
-------------------------------

Transformation type                        ... two-operators
Generation of integrals (i,mue|j,nue)      ... ON
Generation of integrals (mue,kappa|nue,tau)... ON
Generation of integrals (i,mue|a,nue)      ... ON
Dimension of the basis                     ...   72
Number of internal alpha-MOs               ...   10 (   0-   9)
Number of internal beta-MOs                ...    4 (   0-   3)
Number of external alpha-MOs               ...   62 (  10-  71)
Number of external beta-MOs                ...   68 (   4-  71)
Pair cutoff                                ... 0.000e+00 Eh
Number of AO pairs in the trafo            ... 2628
Total Number of distinct AO pairs          ... 2628
Memory devoted for trafo                   ... 2500.0 MB 
Max. Number of MO pairs treated together   ... 63209      
Number Format for Storage                  ... Double (8 Byte)
Integral package used                      ... LIBINT

Starting integral evaluation:
    ... done with AO integral generation
Closing buffer AOK[aa] ( 0.00 GB; CompressionRatio= 0.00)
Closing buffer AOK[bb] ( 0.00 GB; CompressionRatio= 0.00)
Closing buffer AOK[ab] ( 0.00 GB; CompressionRatio= 0.00)
Closing buffer AOK[ba] ( 0.00 GB; CompressionRatio= 0.00)
Collecting buffer AOK 
Closing buffer IAAO1[aa] ( 0.00 GB; CompressionRatio= 0.00)
Closing buffer IAAO1[bb] ( 0.00 GB; CompressionRatio= 0.00)
Closing buffer IAAO1[ab] ( 0.00 GB; CompressionRatio= 0.00)
Closing buffer IAAO1[ba] ( 0.00 GB; CompressionRatio= 0.00)
Closing buffer IAAO2[aa] ( 0.00 GB; CompressionRatio= 0.00)
Closing buffer IAAO2[bb] ( 0.00 GB; CompressionRatio= 0.00)
Closing buffer IAAO2[ab] ( 0.00 GB; CompressionRatio= 0.00)
Closing buffer IAAO2[ba] ( 0.00 GB; CompressionRatio= 0.00)
Collecting buffer IAAO 
Closing buffer PRQS    ( 0.00 GB; CompressionRatio= 0.00)
Collecting buffer PRQS 
Number of alpha/alpha MO pairs in trafo    ...   55
Number of beta /beta  MO pairs in trafo    ...   10
Number of alpha/ beta MO pairs in trafo    ...   40
------------------------
SORTING OF (i,mue|j,nue)
------------------------

SORTING OF ALPHA/ALPHA PAIRS
IBATCH = 1 of  1
Closing buffer KAO[aa] ( 0.00 GB; CompressionRatio= 1.00)
Collecting buffer KAO 
SORTING OF BETA /BETA  PAIRS
IBATCH = 1 of  1
Closing buffer KAO[bb] ( 0.00 GB; CompressionRatio= 1.00)
Collecting buffer KAO 
SORTING OF ALPHA/BETA  PAIRS
IBATCH = 1 of  1
Closing buffer KAO[ab] ( 0.00 GB; CompressionRatio= 0.999710731848)
Collecting buffer KAO[ab] 
------------------------
SORTING OF (i,mue|a,nue)
------------------------

Number of alpha/alpha (i,a) pairs in trafo  ...  620
Number of beta /beta  (i,a) pairs in trafo  ...  272
Number of alpha/ beta (i,a) pairs in trafo  ...  680
Number of beta /alpha (i,a) pairs in trafo  ...  248
Setting up the alpha/alpha list             ... done
Setting up the beta /beta  list             ... done
Setting up the alpha/beta  list             ... done
Setting up the beta /alpha list             ... done
    ... Now sorting (i,mue|a,nue)integrals
    ... Integrals (i,b|a,c) will be made on the fly
SORTING OF ALPHA/ALPHA PAIRS
IBATCH = 1 of  1
Closing buffer IPAQ[aa]  0.00 GB; CompressionRatio= 1.00)
SORTING OF BETA /BETA  PAIRS
IBATCH = 1 of  1
Closing buffer IPAQ[bb]( 0.00 GB; CompressionRatio= 1.00)
SORTING OF ALPHA/BETA  PAIRS (NMatSort_ab=29)
IBATCH = 1 of  1
Closing buffer IPAQ[ab]( 0.00 GB; CompressionRatio= 1.00)
SORTING OF BETA/ALPHA  PAIRS
IBATCH = 1 of  1
Closing buffer IPAQ[ba]( 0.00 GB; CompressionRatio= 1.00)
N(AO-Batches) Done                         ...         0 
N(AO-Batches) Skipped                      ...         0 
N(IJ)-pairs Skipped                        ...         0 
TOTAL TIME for half transformation         ...     4.579 sec
AO-integral generation                     ...     0.000 sec
Half transformation                        ...     0.000 sec
K-integral sorting                         ...     1.042 sec
<ss|**>: 
------------------------------
PARTIAL COULOMB TRANSFORMATION
------------------------------

Transformation type                        ... two-operators
Dimension of the basis                     ...   72
Number of internal alpha-MOs               ...   10 (0-9)
Number of internal beta-MOs                ...    4 (0-3)
Pair cutoff                                ... 0.000e+00 Eh
Number of AO pairs included in the trafo   ... 2628
Total Number of distinct AO pairs          ... 2628
Memory devoted for trafo                   ... 2500.0 MB 
Max. Number of MO pairs treated together   ... 124687      
Max. Number of MOs treated per batch       ... 1731      
Number Format for Storage                  ... Double (8 Byte)
AO-integral source                         ... DIRECT
Integral package used                      ... LIBINT

Starting integral evaluation:
        5880 b        0 skpd     0.003 s (  0.000 ms/b)
<sp|**>:         7350 b        0 skpd     0.016 s (  0.002 ms/b)
<sd|**>:         5880 b        0 skpd     0.027 s (  0.005 ms/b)
<sf|**>: <sg|**>:         4410 b        0 skpd     0.029 s (  0.007 ms/b)
<pp|**>:         1470 b        0 skpd     0.017 s (  0.012 ms/b)
        3150 b        0 skpd     0.020 s (  0.006 ms/b)
<pd|**>:         4200 b        0 skpd     0.055 s (  0.013 ms/b)
<pf|**>:         3150 b        0 skpd     0.063 s (  0.020 ms/b)
<pg|**>:         1050 b        0 skpd     0.040 s (  0.038 ms/b)
<dd|**>:         2100 b        0 skpd     0.040 s (  0.019 ms/b)
<df|**>:         2520 b        0 skpd     0.074 s (  0.029 ms/b)
<dg|**>:          840 b        0 skpd     0.063 s (  0.074 ms/b)
<ff|**>:         1260 b        0 skpd     0.059 s (  0.047 ms/b)
<fg|**>:          630 b        0 skpd     0.059 s (  0.094 ms/b)
<gg|**>:          210 b        0 skpd     0.043 s (  0.206 ms/b)
Closing buffer AOJ[aa] ( 0.00 GB; CompressionRatio= 0.97)
Closing buffer AOJ[bb] ( 0.00 GB; CompressionRatio= 0.00)
Collecting buffer AOJ 
    ... done with AO integral generation
Number of Alpha-MO pairs included          ...   55
Number of Beta-MO pairs included           ...   10
    ... Now sorting integrals
SORTING ALPHA/ALPHA PAIRS
IBATCH = 1 of  1
Closing buffer JAO[aa] ( 0.00 GB; CompressionRatio= 1.00)
SORTING BETA/BETA PAIRS
IBATCH = 1 of  1
Closing buffer JAO[bb] ( 0.00 GB; CompressionRatio= 1.00)
Collecting buffer JAO 
TOTAL TIME for half transformation         ...     0.860 sec
AO-integral generation                     ...     0.385 sec
Half transformation                        ...     0.226 sec
J-integral sorting                         ...     0.103 sec

-------------------------- SECOND HALF TRANSFORMATION -------------------------
Formation of (ij|kl),(ij|ka), (ij|ab)      ... ok (     0.151 sec)
Formation of (ik|jl),(ik|ja), (ia|jb)      ... ok (     0.247 sec)


-----------------------
SPIN UNRESTRICTED GUESS
-----------------------

Entering MDCI_UHF_Guess, Tailored=0
Spin-components of the MP2 energy:
EMP2(aa)=     -0.123167031
EMP2(bb)=     -0.026301460
EMP2(ab)=     -0.230467399

Initial guess performed in     0.011 sec
E(0)                                       ...    -67.567715835
E(MP2)                                     ...     -0.379935891
Initial E(tot)                             ...    -67.947651725
<T|T>                                      ...      0.089775677
Number of pairs included                   ... 91

------------------------------------------------
                  UHF COUPLED CLUSTER ITERATIONS
------------------------------------------------

Number of amplitudes to be optimized       ...       269448

Iter       E(tot)           E(Corr)          Delta-E          Residual     Time      <S|S>**1/2
  0    -67.947651725     -0.379935891      0.000000000      0.014954241    0.37      0.000000075
                           *** Turning on DIIS ***
  1    -67.944680092     -0.376964257      0.002971633      0.005749980    0.29      0.022111270
  2    -67.949427185     -0.381711350     -0.004747093      0.003173624    0.28      0.031666830
  3    -67.950073589     -0.382357754     -0.000646404      0.001822368    0.30      0.038595203
  4    -67.950343876     -0.382628042     -0.000270287      0.000680148    0.30      0.044075214
  5    -67.950394715     -0.382678880     -0.000050839      0.000196945    0.30      0.046052097
  6    -67.950401289     -0.382685454     -0.000006574      0.000058099    0.30      0.046508003
  7    -67.950402197     -0.382686362     -0.000000908      0.000010093    0.31      0.046640457
  8    -67.950402293     -0.382686459     -0.000000096      0.000002032    0.29      0.046660769
               --- The Coupled-Cluster iterations have converged ---

----------------------
COUPLED CLUSTER ENERGY
----------------------

E(0)                                       ...    -67.567715835
E(CORR)                                    ...     -0.382686459
E(TOT)                                     ...    -67.950402293
Singles norm <S|S>**1/2                    ...      0.046660769 ( 0.043502047, 0.003158722)  
T1 diagnostic                              ...      0.012470615                              

------------------
LARGEST AMPLITUDES
------------------
   9a-> 13a  -1a-> -1a       0.042777
   9a-> 22a  -1a-> -1a       0.033876
   3b-> 18b   2b-> 21b       0.013744
   3b-> 21b   2b-> 18b       0.013744
   9a-> 15a   7a-> 32a       0.013284
   9a-> 32a   7a-> 15a       0.013284
   9a-> 26a   5a-> 15a       0.013041
   9a-> 15a   5a-> 26a       0.013041
   9a-> 31a   7a-> 14a       0.012745
   9a-> 14a   7a-> 31a       0.012745
   9a-> 22a   5a-> 17a       0.012332
   9a-> 17a   5a-> 22a       0.012332
   9a-> 14a   6a-> 28a       0.012267
   9a-> 28a   6a-> 14a       0.012267
   9a-> 16a   6a-> 27a       0.012032
   9a-> 27a   6a-> 16a       0.012032

----------------------
UHF TRIPLES CORRECTION (Algorithm 1)
----------------------

Multiplier for the singles contribution    ...      1.000000000

SPIN-CASE Alpha-Alpha-Alpha:
10% done
20% done
30% done
40% done
50% done
60% done
70% done
80% done
90% done


SPIN-CASE Beta-Beta-Beta:
10% done
20% done
30% done
40% done
50% done
60% done
70% done
80% done
90% done


SPIN-CASE Alpha-Alpha-Beta:
10% done
20% done
30% done
40% done
50% done
60% done
70% done
80% done
90% done


SPIN-CASE Beta-Beta-Alpha:
10% done
20% done
30% done
40% done
50% done
60% done
70% done
80% done
90% done


Triples Correction (T)                     ...     -0.011882104
    alpha-alpha-alpha ... -0.002827974 ( 23.8%)
    alpha-alpha-beta  ... -0.006737109 ( 56.7%)
    alpha-beta -beta  ... -0.002207829 ( 18.6%)
    beta -beta -beta  ... -0.000109192 (  0.9%)
Scaling of triples based on CCSD energies (Peterson et al. Molecular Physics 113, 1551 (2015))
E(T*) = f*E(T) where f = E(F12-CCSD)/E(CCSD) 
f = CCSD (with F12)/ CCSD (without F12)    ...      1.000000000
Scaled triples correction (T)              ...     -0.011882104

Final correlation energy                   ...     -0.394568563
E(CCSD)                                    ...    -67.950402293
E(CCSD(T))                                 ...    -67.962284398



        !!!!!!!!!!!!!!!!!!!!!!!!!!!!!!!!!!!!!!!!!!!!!!!!!!!!!!!!!!!!!!!!!!!!!!!!!! 
        !  Warning: Densities are linearized densities                           !
        !!!!!!!!!!!!!!!!!!!!!!!!!!!!!!!!!!!!!!!!!!!!!!!!!!!!!!!!!!!!!!!!!!!!!!!!!! 

NORM  =      1.095074709 sqrt=     1.046458174
W(HF) =      0.913179705
------------------------------------------------------------------------------
                           ORCA POPULATION ANALYSIS
------------------------------------------------------------------------------
Input electron density              ... 42_Mo.mdcip
Input spin density                  ... 42_Mo.mdcir
BaseName (.gbw .S,...)              ... 42_Mo

                    ********************************
                    * MULLIKEN POPULATION ANALYSIS *
                    ********************************

------------------------------------------
MULLIKEN ATOMIC CHARGES AND SPIN DENSITIES
------------------------------------------
   0 Mo:   -0.000000    6.000000
Sum of atomic charges       :   -0.0000000
Sum of atomic spin densities:    6.0000000

---------------------------------------------------
MULLIKEN REDUCED ORBITAL CHARGES AND SPIN DENSITIES
---------------------------------------------------
CHARGE
  0 Mos       :     2.981159  s :     2.981159
      pz      :     1.987440  p :     5.962319
      px      :     1.987440
      py      :     1.987440
      dz2     :     0.997292  d :     4.986461
      dxz     :     0.997292
      dyz     :     0.997292
      dx2y2   :     0.997292
      dxy     :     0.997292
      f0      :     0.009280  f :     0.064961
      f+1     :     0.009280
      f-1     :     0.009280
      f+2     :     0.009280
      f-2     :     0.009280
      f+3     :     0.009280
      f-3     :     0.009280
      g0      :     0.000567  g :     0.005100
      g+1     :     0.000567
      g-1     :     0.000567
      g+2     :     0.000567
      g-2     :     0.000567
      g+3     :     0.000567
      g-3     :     0.000567
      g+4     :     0.000567
      g-4     :     0.000567

SPIN
  0 Mos       :     0.989479  s :     0.989479
      pz      :     0.016532  p :     0.049597
      px      :     0.016532
      py      :     0.016532
      dz2     :     0.981272  d :     4.906362
      dxz     :     0.981272
      dyz     :     0.981272
      dx2y2   :     0.981272
      dxy     :     0.981272
      f0      :     0.007284  f :     0.050988
      f+1     :     0.007284
      f-1     :     0.007284
      f+2     :     0.007284
      f-2     :     0.007284
      f+3     :     0.007284
      f-3     :     0.007284
      g0      :     0.000397  g :     0.003573
      g+1     :     0.000397
      g-1     :     0.000397
      g+2     :     0.000397
      g-2     :     0.000397
      g+3     :     0.000397
      g-3     :     0.000397
      g+4     :     0.000397
      g-4     :     0.000397


                     *******************************
                     * LOEWDIN POPULATION ANALYSIS *
                     *******************************

-----------------------------------------
LOEWDIN ATOMIC CHARGES AND SPIN DENSITIES
-----------------------------------------
   0 Mo:   -0.000000    6.000000

--------------------------------------------------
LOEWDIN REDUCED ORBITAL CHARGES AND SPIN DENSITIES
--------------------------------------------------
CHARGE
  0 Mos       :     2.981159  s :     2.981159
      pz      :     1.987440  p :     5.962319
      px      :     1.987440
      py      :     1.987440
      dz2     :     0.997292  d :     4.986461
      dxz     :     0.997292
      dyz     :     0.997292
      dx2y2   :     0.997292
      dxy     :     0.997292
      f0      :     0.009280  f :     0.064961
      f+1     :     0.009280
      f-1     :     0.009280
      f+2     :     0.009280
      f-2     :     0.009280
      f+3     :     0.009280
      f-3     :     0.009280
      g0      :     0.000567  g :     0.005100
      g+1     :     0.000567
      g-1     :     0.000567
      g+2     :     0.000567
      g-2     :     0.000567
      g+3     :     0.000567
      g-3     :     0.000567
      g+4     :     0.000567
      g-4     :     0.000567

SPIN
  0 Mos       :     0.989479  s :     0.989479
      pz      :     0.016532  p :     0.049597
      px      :     0.016532
      py      :     0.016532
      dz2     :     0.981272  d :     4.906362
      dxz     :     0.981272
      dyz     :     0.981272
      dx2y2   :     0.981272
      dxy     :     0.981272
      f0      :     0.007284  f :     0.050988
      f+1     :     0.007284
      f-1     :     0.007284
      f+2     :     0.007284
      f-2     :     0.007284
      f+3     :     0.007284
      f-3     :     0.007284
      g0      :     0.000397  g :     0.003573
      g+1     :     0.000397
      g-1     :     0.000397
      g+2     :     0.000397
      g-2     :     0.000397
      g+3     :     0.000397
      g-3     :     0.000397
      g+4     :     0.000397
      g-4     :     0.000397


                      *****************************
                      * MAYER POPULATION ANALYSIS *
                      *****************************

  NA   - Mulliken gross atomic population
  ZA   - Total nuclear charge
  QA   - Mulliken gross atomic charge
  VA   - Mayer's total valence
  BVA  - Mayer's bonded valence
  FA   - Mayer's free valence

  ATOM       NA         ZA         QA         VA         BVA        FA
  0 Mo    14.0000    14.0000    -0.0000     6.4598     0.0000     6.4598





------------------------------------------------------------------------------- 
                                     TIMINGS                                   
------------------------------------------------------------------------------- 


Total execution time                   ...        9.631 sec

Fock Matrix Formation                  ...        0.133 sec (  1.4%)
Initial Guess                          ...        0.011 sec (  0.1%)
DIIS Solver                            ...        0.219 sec (  2.3%)
State Vector Update                    ...        0.011 sec (  0.1%)
Sigma-vector construction              ...        2.522 sec ( 26.2%)
  <D|H|D>(0-ext Fock)                  ...        0.004 sec (  0.1% of sigma)
  <D|H|D>(0-ext)                       ...        0.012 sec (  0.5% of sigma)
  <D|H|D>(2-ext Fock)                  ...        0.001 sec (  0.0% of sigma)
  <D|H|D>(2-ext)                       ...        0.038 sec (  1.5% of sigma)
  <D|H|D>(4-ext)                       ...        1.312 sec ( 52.0% of sigma)
  <S|H|0>                              ...        0.079 sec (  3.1% of sigma)
  <S|H|D>(1-ext)                       ...        0.001 sec (  0.0% of sigma)
  <D|H|S>(1-ext)                       ...        0.023 sec (  0.9% of sigma)
  Fock-dressing                        ...        0.330 sec ( 13.1% of sigma)
  (ik|jl)-dressing                     ...        0.017 sec (  0.7% of sigma)
  (ij|ab),(ia|jb)-dressing             ...        0.544 sec ( 21.6% of sigma)
  Pair energies                        ...        0.002 sec (  0.1% of sigma)
Total Time for computing (T)           ...        0.359 sec (  3.7% of ALL)
  I/O of integral and amplitudes       ...        0.082 sec ( 22.8% of (T))
  External N**7 contributions          ...        0.085 sec ( 23.8% of (T))
  Internal N**7 contributions          ...        0.039 sec ( 10.9% of (T))
  N**6 triples energy contributions    ...        0.113 sec ( 31.6% of (T))


-------------------------   --------------------
FINAL SINGLE POINT ENERGY       -67.962284397737
-------------------------   --------------------


                            ***************************************
                            *     ORCA property calculations      *
                            ***************************************

                                    ---------------------
                                    Active property flags
                                    ---------------------
   (+) Dipole Moment


------------------------------------------------------------------------------
                       ORCA ELECTRIC PROPERTIES CALCULATION
------------------------------------------------------------------------------

Dipole Moment Calculation                       ... on
Quadrupole Moment Calculation                   ... off
Polarizability Calculation                      ... off
GBWName                                         ... 42_Mo.gbw
Electron density file                           ... 42_Mo.scfp
The origin for moment calculation is the CENTER OF MASS  = ( 0.000000,  0.000000  0.000000)

-------------
DIPOLE MOMENT
-------------
                                X             Y             Z
Electronic contribution:     -0.00000      -0.00000       0.00000
Nuclear contribution   :      0.00000       0.00000       0.00000
                        -----------------------------------------
Total Dipole Moment    :     -0.00000      -0.00000       0.00000
                        -----------------------------------------
Magnitude (a.u.)       :      0.00000
Magnitude (Debye)      :      0.00000



--------------------
Rotational spectrum 
--------------------
 
Rotational constants in cm-1:     0.000000     0.000000     0.000000 
Rotational constants in MHz :     0.000000     0.000000     0.000000 

 Dipole components along the rotational axes: 
x,y,z [a.u.] :    -0.000000    -0.000000     0.000000 
x,y,z [Debye]:    -0.000000    -0.000000     0.000000 

 

                           *** MDCI DENSITY ***

------------------------------------------------------------------------------
                       ORCA ELECTRIC PROPERTIES CALCULATION
------------------------------------------------------------------------------

Dipole Moment Calculation                       ... on
Quadrupole Moment Calculation                   ... off
Polarizability Calculation                      ... off
GBWName                                         ... 42_Mo.gbw
Electron density file                           ... 42_Mo.mdcip
The origin for moment calculation is the CENTER OF MASS  = ( 0.000000,  0.000000  0.000000)

-------------
DIPOLE MOMENT
-------------
                                X             Y             Z
Electronic contribution:     -0.00000      -0.00000      -0.00000
Nuclear contribution   :      0.00000       0.00000       0.00000
                        -----------------------------------------
Total Dipole Moment    :     -0.00000      -0.00000      -0.00000
                        -----------------------------------------
Magnitude (a.u.)       :      0.00000
Magnitude (Debye)      :      0.00000



--------------------
Rotational spectrum 
--------------------
 
Rotational constants in cm-1:     0.000000     0.000000     0.000000 
Rotational constants in MHz :     0.000000     0.000000     0.000000 

 Dipole components along the rotational axes: 
x,y,z [a.u.] :    -0.000000    -0.000000    -0.000000 
x,y,z [Debye]:    -0.000000    -0.000000    -0.000000 

 

Timings for individual modules:

Sum of individual times         ...       26.400 sec (=   0.440 min)
GTO integral calculation        ...        0.794 sec (=   0.013 min)   3.0 %
SCF iterations                  ...       15.433 sec (=   0.257 min)  58.5 %
MDCI module                     ...       10.174 sec (=   0.170 min)  38.5 %
                             ****ORCA TERMINATED NORMALLY****
TOTAL RUN TIME: 0 days 0 hours 0 minutes 27 seconds 177 msec
