
                                 *****************
                                 * O   R   C   A *
                                 *****************

           --- An Ab Initio, DFT and Semiempirical electronic structure package ---

                  #######################################################
                  #                        -***-                        #
                  #          Department of theory and spectroscopy      #
                  #               Directorship: Frank Neese             #
                  #        Max Planck Institute fuer Kohlenforschung    #
                  #                Kaiser Wilhelm Platz 1               #
                  #                 D-45470 Muelheim/Ruhr               #
                  #                      Germany                        #
                  #                                                     #
                  #                  All rights reserved                #
                  #                        -***-                        #
                  #######################################################


                         Program Version 4.2.0 -  RELEASE  -


 With contributions from (in alphabetic order):
   Daniel Aravena         : Magnetic Suceptibility
   Michael Atanasov       : Ab Initio Ligand Field Theory (pilot matlab implementation)
   Alexander A. Auer      : GIAO ZORA, VPT2
   Ute Becker             : Parallelization
   Giovanni Bistoni       : ED, misc. LED, open-shell LED, HFLED
   Martin Brehm           : Molecular dynamics
   Dmytro Bykov           : SCF Hessian
   Vijay G. Chilkuri      : MRCI spin determinant printing, contributions to CSF-ICE
   Dipayan Datta          : RHF DLPNO-CCSD density
   Achintya Kumar Dutta   : EOM-CC, STEOM-CC
   Dmitry Ganyushin       : Spin-Orbit,Spin-Spin,Magnetic field MRCI
   Miquel Garcia          : C-PCM Hessian, Gaussian charge scheme
   Yang Guo               : DLPNO-NEVPT2, CIM, IAO-localization
   Andreas Hansen         : Spin unrestricted coupled pair/coupled cluster methods
   Benjamin Helmich-Paris : CASSCF linear response (MC-RPA)
   Lee Huntington         : MR-EOM, pCC
   Robert Izsak           : Overlap fitted RIJCOSX, COSX-SCS-MP3, EOM
   Christian Kollmar      : KDIIS, OOCD, Brueckner-CCSD(T), CCSD density
   Simone Kossmann        : Meta GGA functionals, TD-DFT gradient, OOMP2, MP2 Hessian
   Martin Krupicka        : AUTO-CI
   Lucas Lang             : DCDCAS
   Dagmar Lenk            : GEPOL surface, SMD
   Dimitrios Liakos       : Extrapolation schemes; Compound Job, initial MDCI parallelization
   Dimitrios Manganas     : Further ROCIS development; embedding schemes
   Dimitrios Pantazis     : SARC Basis sets
   Taras Petrenko         : DFT Hessian,TD-DFT gradient, ASA, ECA, R-Raman, ABS, FL, XAS/XES, NRVS
   Peter Pinski           : DLPNO-MP2, DLPNO-MP2 Gradient
   Christoph Reimann      : Effective Core Potentials
   Marius Retegan         : Local ZFS, SOC
   Christoph Riplinger    : Optimizer, TS searches, QM/MM, DLPNO-CCSD(T), (RO)-DLPNO pert. Triples
   Tobias Risthaus        : Range-separated hybrids, TD-DFT gradient, RPA, STAB
   Michael Roemelt        : Original ROCIS implementation
   Masaaki Saitow         : Open-shell DLPNO-CCSD energy and density
   Barbara Sandhoefer     : DKH picture change effects
   Avijit Sen             : IP-ROCIS
   Kantharuban Sivalingam : CASSCF convergence, NEVPT2, FIC-MRCI
   Bernardo de Souza      : ESD, SOC TD-DFT
   Georgi Stoychev        : AutoAux, RI-MP2 NMR
   Willem Van den Heuvel  : Paramagnetic NMR
   Boris Wezisla          : Elementary symmetry handling
   Frank Wennmohs         : Technical directorship


 We gratefully acknowledge several colleagues who have allowed us to
 interface, adapt or use parts of their codes:
   Stefan Grimme, W. Hujo, H. Kruse,             : VdW corrections, initial TS optimization,
                  C. Bannwarth                     DFT functionals, gCP, sTDA/sTD-DF
   Ed Valeev, F. Pavosevic, A. Kumar             : LibInt (2-el integral package), F12 methods
   Garnet Chan, S. Sharma, J. Yang, R. Olivares  : DMRG
   Ulf Ekstrom                                   : XCFun DFT Library
   Mihaly Kallay                                 : mrcc  (arbitrary order and MRCC methods)
   Andreas Klamt, Michael Diedenhofen            : otool_cosmo (COSMO solvation model)
   Jiri Pittner, Ondrej Demel                    : Mk-CCSD
   Frank Weinhold                                : gennbo (NPA and NBO analysis)
   Christopher J. Cramer and Donald G. Truhlar   : smd solvation model
   Lars Goerigk                                  : TD-DFT with DH, B97 family of functionals
   V. Asgeirsson, H. Jonsson                     : NEB implementation
   FAccTs GmbH                                   : IRC, NEB, NEB-TS, Multilevel, MM, QM/MM, CI optimization
   S Lehtola, MJT Oliveira, MAL Marques          : LibXC Library


 Your calculation uses the libint2 library for the computation of 2-el integrals
 For citations please refer to: http://libint.valeyev.net

 Your ORCA version has been built with support for libXC version: 4.2.3
 For citations please refer to: https://tddft.org/programs/libxc/

 This ORCA versions uses:
   CBLAS   interface :  Fast vector & matrix operations
   LAPACKE interface :  Fast linear algebra routines
   SCALAPACK package :  Parallel linear algebra routines


----- Orbital basis set information -----
Your calculation utilizes the basis: def2-QZVP
   F. Weigend and R. Ahlrichs, Phys. Chem. Chem. Phys. 7, 3297 (2005).

cite the ECPs for Sn [Def2-ECP] as follows:
Ce-Yb(ecp-28): M. Dolg, H. Stoll, H.Preuss, J. Chem. Phys., 1989, 90, 1730-1734.
Y-Cd(ecp-28), Hf-Hg(ecp-46): D. Andrae,U. Haeussermann, M. Dolg, H. Stoll, H. Preuss, Theor. Chim. Acta, 1990, 77, 123-141.
In-Sb(ecp-28), Tl-Bi(ecp-46): B. Metz, H. Stoll, M. Dolg, J. Chem. Phys., 2000, 113, 2563-2569.
Te-Xe(ecp-28), Po-Rn(ecp-46): K. A. Peterson, D. Figgen, E. Goll, H. Stoll, M. Dolg, J. Chem. Phys., 2003, 119, 11113-11123.
Rb(ecp-28), Cs(ecp-46): T. Leininger, A. Nicklass, W. Kuechle, H. Stoll, M. Dolg, A. Bergner, Chem. Phys. Lett., 1996, 255, 274-280.
Sr(ecp-28), Ba(ecp-46): M. Kaupp, P. V. Schleyer, H. Stoll and H. Preuss, J. Chem. Phys., 1991, 94, 1360-1366.
La(ecp-46): M. Dolg, H. Stoll, A. Savin, H. Preuss, Theor. Chim. Acta, 1989, 75, 173-194.
Lu(ecp-28): X. Cao, M. Dolg, J. Chem. Phys., 2001, 115, 7348-7355.

ECP parameters for Sn [Def2-ECP] have been obtained from:
TURBOMOLE (7.0.2)

================================================================================
                                        WARNINGS
                       Please study these warnings very carefully!
================================================================================


WARNING: your system is open-shell and RHF/RKS was chosen
  ===> : WILL SWITCH to UHF/UKS


WARNING: MDCI localization with Augmented Hessian Foster-Boys
  ===> : Switching off randomization!

WARNING: Post HF methods need fully converged wavefunctions
  ===> : Setting SCFConvForced true
         You can overwrite this default with %scf ConvForced false 


INFO   : the flag for use of LIBINT has been found!

================================================================================
                                       INPUT FILE
================================================================================
NAME = 50_Sn.in
|  1> #
|  2> # 50_Sn CCSD(T)/Def2-QZVP
|  3> #
|  4> ! CCSD(T) Def2-QZVP tightscf
|  5> 
|  6> *xyz 0 3
|  7>  Sn 0.0 0.0 0.0
|  8> *
|  9> 
| 10> %maxcore 5000 
| 11> 
| 12> %pal
| 13> nprocs 24
| 14> end
| 15> 
| 16> 
| 17>                          ****END OF INPUT****
================================================================================

                       ****************************
                       * Single Point Calculation *
                       ****************************

---------------------------------
CARTESIAN COORDINATES (ANGSTROEM)
---------------------------------
  Sn     0.000000    0.000000    0.000000

----------------------------
CARTESIAN COORDINATES (A.U.)
----------------------------
  NO LB      ZA    FRAG     MASS         X           Y           Z
   0 Sn   22.0000*   0   118.690    0.000000    0.000000    0.000000
* core charge reduced due to ECP

--------------------------------
INTERNAL COORDINATES (ANGSTROEM)
--------------------------------
 Sn     0   0   0     0.000000000000     0.00000000     0.00000000

---------------------------
INTERNAL COORDINATES (A.U.)
---------------------------
 Sn     0   0   0     0.000000000000     0.00000000     0.00000000

---------------------
BASIS SET INFORMATION
---------------------
There are 1 groups of distinct atoms

 Group   1 Type Sn  : 17s14p11d4f1g contracted to 7s6p4d4f1g pattern {9131111/731111/8111/1111/1}

Atom   0Sn   basis set group =>   1
-------------------------
ECP PARAMETER INFORMATION
-------------------------

 Group 1, Type Sn ECP Def2-ECP (replacing 28 core electrons, lmax=3)

Atom   0Sn   ECP group =>   1



           ************************************************************
           *        Program running with 24 parallel MPI-processes    *
           *              working on a common directory               *
           ************************************************************
------------------------------------------------------------------------------
                           ORCA GTO INTEGRAL CALCULATION
------------------------------------------------------------------------------

                         BASIS SET STATISTICS AND STARTUP INFO

 # of primitive gaussian shells          ...   47
 # of primitive gaussian functions       ...  151
 # of contracted shells                  ...   22
 # of contracted basis functions         ...   82
 Highest angular momentum                ...    4
 Maximum contraction depth               ...    9
 Integral package used                   ... LIBINT
 Integral threshhold            Thresh   ...  2.500e-11
 Primitive cut-off              TCut     ...  2.500e-12


------------------------------ INTEGRAL EVALUATION ----------------------------


 * One electron integrals 

   ECP integrals                         ... done
 Pre-screening matrix                    ... done
 Shell pair data                         ... done (   0.000 sec)



           ************************************************************
           *        Program running with 24 parallel MPI-processes    *
           *              working on a common directory               *
           ************************************************************
-------------------------------------------------------------------------------
                                 ORCA SCF
-------------------------------------------------------------------------------

------------
SCF SETTINGS
------------
Hamiltonian:
 Ab initio Hamiltonian  Method          .... Hartree-Fock(GTOs)


General Settings:
 Integral files         IntName         .... 50_Sn
 Hartree-Fock type      HFTyp           .... UHF
 Total Charge           Charge          ....    0
 Multiplicity           Mult            ....    3
 Number of Electrons    NEL             ....   22
 Basis Dimension        Dim             ....   82
 Nuclear Repulsion      ENuc            ....      0.0000000000 Eh

Convergence Acceleration:
 DIIS                   CNVDIIS         .... on
   Start iteration      DIISMaxIt       ....    12
   Startup error        DIISStart       ....  0.200000
   # of expansion vecs  DIISMaxEq       ....     5
   Bias factor          DIISBfac        ....   1.050
   Max. coefficient     DIISMaxC        ....  10.000
 Newton-Raphson         CNVNR           .... off
 SOSCF                  CNVSOSCF        .... off
 Level Shifting         CNVShift        .... on
   Level shift para.    LevelShift      ....    0.2500
   Turn off err/grad.   ShiftErr        ....    0.0010
 Zerner damping         CNVZerner       .... off
 Static damping         CNVDamp         .... on
   Fraction old density DampFac         ....    0.7000
   Max. Damping (<1)    DampMax         ....    0.9800
   Min. Damping (>=0)   DampMin         ....    0.0000
   Turn off err/grad.   DampErr         ....    0.1000
 Fernandez-Rico         CNVRico         .... off

SCF Procedure:
 Maximum # iterations   MaxIter         ....   125
 SCF integral mode      SCFMode         .... Direct
   Integral package                     .... LIBINT
 Reset frequency        DirectResetFreq ....    20
 Integral Threshold     Thresh          ....  2.500e-11 Eh
 Primitive CutOff       TCut            ....  2.500e-12 Eh

Convergence Tolerance:
 Convergence Check Mode ConvCheckMode   .... Total+1el-Energy
 Convergence forced     ConvForced      .... 1
 Energy Change          TolE            ....  1.000e-08 Eh
 1-El. energy change                    ....  1.000e-05 Eh
 DIIS Error             TolErr          ....  5.000e-07


Diagonalization of the overlap matrix:
Smallest eigenvalue                        ... 1.743e-03
Time for diagonalization                   ...    0.002 sec
Threshold for overlap eigenvalues          ... 1.000e-08
Number of eigenvalues below threshold      ... 0
Time for construction of square roots      ...    0.012 sec
Total time needed                          ...    0.014 sec

-------------------
DFT GRID GENERATION
-------------------

General Integration Accuracy     IntAcc      ...  4.340
Radial Grid Type                 RadialGrid  ... Gauss-Chebyshev
Angular Grid (max. acc.)         AngularGrid ... Lebedev-110
Angular grid pruning method      GridPruning ... 3 (G Style)
Weight generation scheme         WeightScheme... Becke
Basis function cutoff            BFCut       ...    1.0000e-11
Integration weight cutoff        WCut        ...    1.0000e-14
Grids for H and He will be reduced by one unit

# of grid points (after initial pruning)     ...   3304 (   0.0 sec)
# of grid points (after weights+screening)   ...   3304 (   0.0 sec)
Grid point division into batches done        ...    0.0 sec
Reduced shell lists constructed in    0.0 sec

Total number of grid points                  ...     3304
Total number of batches                      ...       52
Average number of points per batch           ...       63
Average number of grid points per atom       ...     3304
Average number of shells per batch           ...     9.75 (44.32%)
Average number of basis functions per batch  ...    39.75 (48.48%)
Average number of large shells per batch     ...     6.00 (61.54%)
Average number of large basis fcns per batch ...    21.00 (52.83%)
Maximum spatial batch extension              ...  19.89, 29.99, 29.99 au
Average spatial batch extension              ...   1.08,  1.54,  1.73 au

Time for grid setup =    0.069 sec

------------------------------
INITIAL GUESS: MODEL POTENTIAL
------------------------------
Loading Hartree-Fock densities                     ... done
  calling /sw/apps/orca/orca_4_2_0_linux_x86-64_openmpi314/orca 50_Sn_atom50.inp > 50_Sn_atom50.out in order to generate an atomic fitting density for atom 0 (Sn with ECP) on-the-fly... 
    atom 0 (Sn), assumed electronic state with S=3: 1s2 2s2 2p6 3s2 3p6 4s2 3d10 4p6 5s2 4d10 5p2           ... done
Calculating cut-offs                               ... done
Setting up the integral package                    ... done
Initializing the effective Hamiltonian             ... done
Starting the Coulomb interaction                   ... done (   0.0 sec)
Reading the grid                                   ... done
Mapping shells                                     ... done
Starting the XC term evaluation                    ... done (   0.0 sec)
Transforming the Hamiltonian                       ... done (   0.0 sec)
Diagonalizing the Hamiltonian                      ... done (   0.0 sec)
Back transforming the eigenvectors                 ... done (   0.0 sec)
Now organizing SCF variables                       ... done
                      ------------------
                      INITIAL GUESS DONE (   1.7 sec)
                      ------------------
--------------
SCF ITERATIONS
--------------
ITER       Energy         Delta-E        Max-DP      RMS-DP      [F,P]     Damp
               ***  Starting incremental Fock matrix formation  ***
  0   -200.8225492605   0.000000000000 5.67376858  0.10123787  1.5943030 0.7000
  1   -203.1672846423  -2.344735381808 1.58013433  0.03206176  0.7616121 0.7000
  2   -206.0307935965  -2.863508954162 1.15963100  0.02294034  0.5251225 0.7000
  3   -208.1374177706  -2.106624174164 0.80477790  0.01607008  0.3725904 0.7000
  4   -209.6510167476  -1.513598976985 0.55206513  0.01120995  0.2771579 0.7000
  5   -210.7310615678  -1.080044820131 0.37838206  0.00782180  0.2065987 0.7000
                               ***Turning on DIIS***
  6   -211.4985929615  -0.767531393727 0.26021270  0.00546958  0.1541155 0.7000
  7   -211.8694452848  -0.370852323311 0.17549682  0.00384339  0.1150384 0.7000
  8   -212.3203705190  -0.450925234163 0.41103460  0.00910054  0.0836412 0.0000
  9   -213.3432180173  -1.022847498346 0.02228049  0.00042755  0.0123033 0.0000
 10   -213.3538555451  -0.010637527803 0.01069341  0.00025728  0.0054288 0.0000
 11   -213.3466735885   0.007181956584 0.00698794  0.00011921  0.0018399 0.0000
 12   -213.3390326068   0.007640981761 0.00581518  0.00009432  0.0006516 0.0000
 13   -213.3395437467  -0.000511139917 0.00137407  0.00002540  0.0002034 0.0000
 14   -213.3405200511  -0.000976304432 0.00028598  0.00000455  0.0000463 0.0000
 15   -213.3405710976  -0.000051046445 0.00008446  0.00000146  0.0000068 0.0000
 16   -213.3406496474  -0.000078549811 0.00002745  0.00000048  0.0000018 0.0000
                            ***DIIS convergence achieved***

               *****************************************************
               *                     SUCCESS                       *
               *           SCF CONVERGED AFTER  17 CYCLES          *
               *****************************************************


----------------
TOTAL SCF ENERGY
----------------

Total Energy       :         -213.34066237 Eh           -5805.29456 eV

Components:
Nuclear Repulsion  :            0.00000000 Eh               0.00000 eV
Electronic Energy  :         -213.34066237 Eh           -5805.29456 eV
One Electron Energy:         -376.09593076 Eh          -10234.09057 eV
Two Electron Energy:          162.75526839 Eh            4428.79601 eV

Virial components:
Potential Energy   :         -295.92615584 Eh           -8052.56008 eV
Kinetic Energy     :           82.58549346 Eh            2247.26553 eV
Virial Ratio       :            3.58327042


---------------
SCF CONVERGENCE
---------------

  Last Energy change         ...   -1.2726e-05  Tolerance :   1.0000e-08
  Last MAX-Density change    ...    4.5776e-06  Tolerance :   1.0000e-07
  Last RMS-Density change    ...    8.8173e-08  Tolerance :   5.0000e-09
  Last DIIS Error            ...    2.9020e-07  Tolerance :   5.0000e-07

             **** THE GBW FILE WAS UPDATED (50_Sn.gbw) ****
             **** DENSITY FILE WAS UPDATED (50_Sn.scfp) ****
             **** ENERGY FILE WAS UPDATED (50_Sn.en.tmp) ****
----------------------
UHF SPIN CONTAMINATION
----------------------

Expectation value of <S**2>     :     2.012041
Ideal value S*(S+1) for S=1.0   :     2.000000
Deviation                       :     0.012041

             **** THE GBW FILE WAS UPDATED (50_Sn.gbw) ****
             **** DENSITY FILE WAS UPDATED (50_Sn.scfp) ****
----------------
ORBITAL ENERGIES
----------------
                 SPIN UP ORBITALS
  NO   OCC          E(Eh)            E(eV) 
   0   1.0000      -5.859638      -159.4488 
   1   1.0000      -4.047423      -110.1360 
   2   1.0000      -4.044615      -110.0596 
   3   1.0000      -4.044615      -110.0596 
   4   1.0000      -1.314781       -35.7770 
   5   1.0000      -1.312036       -35.7023 
   6   1.0000      -1.312036       -35.7023 
   7   1.0000      -1.304245       -35.4903 
   8   1.0000      -1.304245       -35.4903 
   9   1.0000      -0.573870       -15.6158 
  10   1.0000      -0.267031        -7.2663 
  11   1.0000      -0.267031        -7.2663 
  12   0.0000      -0.016782        -0.4567 
  13   0.0000       0.116476         3.1695 
  14   0.0000       0.116476         3.1695 
  15   0.0000       0.119703         3.2573 
  16   0.0000       0.127702         3.4749 
  17   0.0000       0.191895         5.2217 
  18   0.0000       0.191895         5.2217 
  19   0.0000       0.200058         5.4439 
  20   0.0000       0.200058         5.4439 
  21   0.0000       0.203473         5.5368 
  22   0.0000       0.519120        14.1260 
  23   0.0000       0.519120        14.1260 
  24   0.0000       0.523384        14.2420 
  25   0.0000       0.603270        16.4158 
  26   0.0000       0.604118        16.4389 
  27   0.0000       0.604118        16.4389 
  28   0.0000       0.606656        16.5080 
  29   0.0000       0.606656        16.5080 
  30   0.0000       0.610743        16.6192 
  31   0.0000       0.610743        16.6192 
  32   0.0000       0.681524        18.5452 
  33   0.0000       0.681524        18.5452 
  34   0.0000       0.683945        18.6111 
  35   0.0000       0.683945        18.6111 
  36   0.0000       0.684385        18.6231 
  37   0.0000       0.695420        18.9233 
  38   0.0000       1.423474        38.7347 
  39   0.0000       1.425558        38.7914 
  40   0.0000       1.425558        38.7914 
  41   0.0000       1.431809        38.9615 
  42   0.0000       1.431809        38.9615 
  43   0.0000       1.442243        39.2454 
  44   0.0000       1.442243        39.2454 
  45   0.0000       1.715351        46.6771 
  46   0.0000       1.716753        46.7152 
  47   0.0000       1.716753        46.7152 
  48   0.0000       1.720967        46.8299 
  49   0.0000       1.720967        46.8299 
  50   0.0000       1.727819        47.0164 
  51   0.0000       1.728015        47.0217 
  52   0.0000       1.728015        47.0217 
  53   0.0000       1.736044        47.2402 
  54   0.0000       1.736044        47.2402 
  55   0.0000       1.737919        47.2912 
  56   0.0000       1.737919        47.2912 
  57   0.0000       1.989590        54.1395 
  58   0.0000       1.992482        54.2182 
  59   0.0000       1.992482        54.2182 
  60   0.0000       2.001405        54.4610 
  61   0.0000       2.001405        54.4610 
  62   0.0000       2.612707        71.0954 
  63   0.0000       3.310841        90.0926 
  64   0.0000       3.312527        90.1384 
  65   0.0000       3.312527        90.1384 
  66   0.0000       3.317605        90.2766 
  67   0.0000       3.317605        90.2766 
  68   0.0000       3.326133        90.5087 
  69   0.0000       3.326133        90.5087 
  70   0.0000       9.836028       267.6519 
  71   0.0000       9.837255       267.6853 
  72   0.0000       9.837255       267.6853 
  73   0.0000       9.840953       267.7859 
  74   0.0000       9.840953       267.7859 
  75   0.0000       9.847177       267.9553 
  76   0.0000       9.847177       267.9553 
  77   0.0000      12.323100       335.3286 
  78   0.0000      35.222545       958.4542 
  79   0.0000      35.225049       958.5223 
  80   0.0000      35.225049       958.5223 
  81   0.0000      72.419574      1970.6368 

                 SPIN DOWN ORBITALS
  NO   OCC          E(Eh)            E(eV) 
   0   1.0000      -5.854145      -159.2994 
   1   1.0000      -4.049804      -110.2008 
   2   1.0000      -4.034913      -109.7956 
   3   1.0000      -4.034913      -109.7956 
   4   1.0000      -1.312466       -35.7140 
   5   1.0000      -1.307953       -35.5912 
   6   1.0000      -1.307953       -35.5912 
   7   1.0000      -1.294970       -35.2379 
   8   1.0000      -1.294970       -35.2379 
   9   1.0000      -0.441743       -12.0204 
  10   0.0000       0.003356         0.0913 
  11   0.0000       0.036034         0.9805 
  12   0.0000       0.036034         0.9805 
  13   0.0000       0.134398         3.6572 
  14   0.0000       0.137648         3.7456 
  15   0.0000       0.156541         4.2597 
  16   0.0000       0.156541         4.2597 
  17   0.0000       0.225952         6.1485 
  18   0.0000       0.230366         6.2686 
  19   0.0000       0.230366         6.2686 
  20   0.0000       0.248582         6.7643 
  21   0.0000       0.248582         6.7643 
  22   0.0000       0.531826        14.4717 
  23   0.0000       0.561525        15.2799 
  24   0.0000       0.561525        15.2799 
  25   0.0000       0.627052        17.0629 
  26   0.0000       0.630881        17.1671 
  27   0.0000       0.630881        17.1671 
  28   0.0000       0.642539        17.4844 
  29   0.0000       0.642539        17.4844 
  30   0.0000       0.663455        18.0535 
  31   0.0000       0.663455        18.0535 
  32   0.0000       0.705525        19.1983 
  33   0.0000       0.718164        19.5422 
  34   0.0000       0.718164        19.5422 
  35   0.0000       0.723890        19.6980 
  36   0.0000       0.745213        20.2783 
  37   0.0000       0.745213        20.2783 
  38   0.0000       1.435574        39.0640 
  39   0.0000       1.439274        39.1646 
  40   0.0000       1.439274        39.1646 
  41   0.0000       1.450432        39.4683 
  42   0.0000       1.450432        39.4683 
  43   0.0000       1.469553        39.9886 
  44   0.0000       1.469553        39.9886 
  45   0.0000       1.733914        47.1822 
  46   0.0000       1.734133        47.1881 
  47   0.0000       1.736876        47.2628 
  48   0.0000       1.736876        47.2628 
  49   0.0000       1.745171        47.4885 
  50   0.0000       1.745171        47.4885 
  51   0.0000       1.759225        47.8709 
  52   0.0000       1.759225        47.8709 
  53   0.0000       1.764831        48.0235 
  54   0.0000       1.764831        48.0235 
  55   0.0000       1.779466        48.4217 
  56   0.0000       1.779466        48.4217 
  57   0.0000       2.001711        54.4693 
  58   0.0000       2.008825        54.6629 
  59   0.0000       2.008825        54.6629 
  60   0.0000       2.031833        55.2890 
  61   0.0000       2.031833        55.2890 
  62   0.0000       2.626877        71.4809 
  63   0.0000       3.314171        90.1832 
  64   0.0000       3.316563        90.2483 
  65   0.0000       3.316563        90.2483 
  66   0.0000       3.323783        90.4447 
  67   0.0000       3.323783        90.4447 
  68   0.0000       3.335995        90.7770 
  69   0.0000       3.335995        90.7770 
  70   0.0000       9.837595       267.6946 
  71   0.0000       9.839296       267.7409 
  72   0.0000       9.839296       267.7409 
  73   0.0000       9.844416       267.8802 
  74   0.0000       9.844416       267.8802 
  75   0.0000       9.853006       268.1139 
  76   0.0000       9.853006       268.1139 
  77   0.0000      12.328077       335.4640 
  78   0.0000      35.222091       958.4418 
  79   0.0000      35.228925       958.6278 
  80   0.0000      35.228925       958.6278 
  81   0.0000      72.420518      1970.6625 

                    ********************************
                    * MULLIKEN POPULATION ANALYSIS *
                    ********************************

--------------------------------------------
MULLIKEN ATOMIC CHARGES AND SPIN POPULATIONS
--------------------------------------------
   0 Sn:   -0.000000    2.000000
Sum of atomic charges         :   -0.0000000
Sum of atomic spin populations:    2.0000000

-----------------------------------------------------
MULLIKEN REDUCED ORBITAL CHARGES AND SPIN POPULATIONS
-----------------------------------------------------
CHARGE
  0 Sns       :     3.994849  s :     3.994849
      pz      :     2.002449  p :     7.999934
      px      :     2.997515
      py      :     2.999971
      dz2     :     2.005101  d :    10.005108
      dxz     :     2.000028
      dyz     :     1.999990
      dx2y2   :     1.999995
      dxy     :     1.999995
      f0      :     0.000007  f :     0.000066
      f+1     :     0.000029
      f-1     :     0.000029
      f+2     :     0.000000
      f-2     :     0.000000
      f+3     :     0.000000
      f-3     :     0.000000
      g0      :     0.000013  g :     0.000043
      g+1     :     0.000010
      g-1     :     0.000010
      g+2     :     0.000005
      g-2     :     0.000005
      g+3     :     0.000000
      g-3     :     0.000000
      g+4     :     0.000000
      g-4     :     0.000000

SPIN
  0 Sns       :    -0.000721  s :    -0.000721
      pz      :     0.002458  p :     1.999955
      px      :     0.997521
      py      :     0.999977
      dz2     :     0.000725  d :     0.000754
      dxz     :     0.000013
      dyz     :     0.000008
      dx2y2   :     0.000004
      dxy     :     0.000004
      f0      :    -0.000002  f :     0.000045
      f+1     :     0.000023
      f-1     :     0.000023
      f+2     :     0.000000
      f-2     :     0.000000
      f+3     :     0.000000
      f-3     :     0.000000
      g0      :    -0.000010  g :    -0.000033
      g+1     :    -0.000008
      g-1     :    -0.000008
      g+2     :    -0.000004
      g-2     :    -0.000004
      g+3     :    -0.000000
      g-3     :    -0.000000
      g+4     :    -0.000000
      g-4     :    -0.000000


                     *******************************
                     * LOEWDIN POPULATION ANALYSIS *
                     *******************************

-------------------------------------------
LOEWDIN ATOMIC CHARGES AND SPIN POPULATIONS
-------------------------------------------
   0 Sn:   -0.000000    2.000000

----------------------------------------------------
LOEWDIN REDUCED ORBITAL CHARGES AND SPIN POPULATIONS
----------------------------------------------------
CHARGE
  0 Sns       :     3.994849  s :     3.994849
      pz      :     2.002449  p :     7.999934
      px      :     2.997515
      py      :     2.999971
      dz2     :     2.005101  d :    10.005108
      dxz     :     2.000028
      dyz     :     1.999990
      dx2y2   :     1.999995
      dxy     :     1.999995
      f0      :     0.000007  f :     0.000066
      f+1     :     0.000029
      f-1     :     0.000029
      f+2     :     0.000000
      f-2     :     0.000000
      f+3     :     0.000000
      f-3     :     0.000000
      g0      :     0.000013  g :     0.000043
      g+1     :     0.000010
      g-1     :     0.000010
      g+2     :     0.000005
      g-2     :     0.000005
      g+3     :     0.000000
      g-3     :     0.000000
      g+4     :     0.000000
      g-4     :     0.000000

SPIN
  0 Sns       :    -0.000721  s :    -0.000721
      pz      :     0.002458  p :     1.999955
      px      :     0.997521
      py      :     0.999977
      dz2     :     0.000725  d :     0.000754
      dxz     :     0.000013
      dyz     :     0.000008
      dx2y2   :     0.000004
      dxy     :     0.000004
      f0      :    -0.000002  f :     0.000045
      f+1     :     0.000023
      f-1     :     0.000023
      f+2     :     0.000000
      f-2     :     0.000000
      f+3     :     0.000000
      f-3     :     0.000000
      g0      :    -0.000010  g :    -0.000033
      g+1     :    -0.000008
      g-1     :    -0.000008
      g+2     :    -0.000004
      g-2     :    -0.000004
      g+3     :    -0.000000
      g-3     :    -0.000000
      g+4     :    -0.000000
      g-4     :    -0.000000


                      *****************************
                      * MAYER POPULATION ANALYSIS *
                      *****************************

  NA   - Mulliken gross atomic population
  ZA   - Total nuclear charge
  QA   - Mulliken gross atomic charge
  VA   - Mayer's total valence
  BVA  - Mayer's bonded valence
  FA   - Mayer's free valence

  ATOM       NA         ZA         QA         VA         BVA        FA
  0 Sn    22.0000    22.0000    -0.0000     2.0241     0.0000     2.0241

  Mayer bond orders larger than 0.100000


-------
TIMINGS
-------

Total SCF time: 0 days 0 hours 0 min 7 sec 

Total time                  ....       7.187 sec
Sum of individual times     ....       6.585 sec  ( 91.6%)

Fock matrix formation       ....       4.509 sec  ( 62.7%)
Diagonalization             ....       0.124 sec  (  1.7%)
Density matrix formation    ....       0.012 sec  (  0.2%)
Population analysis         ....       0.083 sec  (  1.2%)
Initial guess               ....       1.595 sec  ( 22.2%)
Orbital Transformation      ....       0.000 sec  (  0.0%)
Orbital Orthonormalization  ....       0.000 sec  (  0.0%)
DIIS solution               ....       0.193 sec  (  2.7%)


           ************************************************************
           *        Program running with 24 parallel MPI-processes    *
           *              working on a common directory               *
           ************************************************************


------------------------------------------------------------------------------- 
                              ORCA-MATRIX DRIVEN CI                            
------------------------------------------------------------------------------- 

--------------------------------
AUTOMATIC CHOICE OF INCORE LEVEL
--------------------------------

Memory available                           ...   2500.00 MB
Memory needed for S+T                      ...      4.04 MB
Memory needed for J+K                      ...      8.11 MB
Memory needed for DIIS                     ...     56.52 MB
Memory needed for 3-ext                    ...     20.94 MB
Memory needed for 4-ext                    ...     92.90 MB
Memory needed for triples                  ...     13.08 MB
 -> Final InCoreLevel    ... 5
 -> check shows that triples correction can be computed


Wavefunction type
-----------------
Correlation treatment                      ...      CCSD     
Single excitations                         ... ON
Orbital optimization                       ... OFF
Calculation of Z vector                    ... OFF
Calculation of Brueckner orbitals          ... OFF
Perturbative triple excitations            ... ON
Calculation of F12 correction              ... OFF
Frozen core treatment                      ... chemical core (8 el)
Reference Wavefunction                     ... UHF
  Alpha-MOs occ    :     4 ...   11 (  8 MO's/  8 electrons)
  Beta-MOs occ     :     4 ...    9 (  6 MO's/  6 electrons)
  Alpha-MOs virt   :    12 ...   81 ( 70 MO's              )
  Beta-MOs virt    :    10 ...   81 ( 72 MO's              )
Number of AO's                             ...     82
Number of electrons                        ...     22
Number of correlated electrons             ...     14

Algorithmic settings
--------------------
Integral transformation                    ... AO direct full transformation
K(C) Formation                             ... FULL-MO TRAFO
Maximum number of iterations               ...        50
Convergence tolerance (max. residuum)      ... 1.000e-05
Level shift for amplitude update           ... 2.000e-01
Maximum number of DIIS vectors             ...         7
DIIS turned on at iteration                ...         0
Damping before turning on DIIS             ...     0.500
Damping after turning on DIIS              ...     0.000
Pair specific amplitude update             ... OFF
Natural orbital iterations                 ... OFF
Perturbative natural orbital generation    ... OFF
Printlevel                                 ... 2

Memory handling:
----------------
Maximum memory for working arrays          ...   2500 MB
Data storage in matrix containers          ... UNCOMPRESSED
Data type for integral storage             ... DOUBLE
In-Core Storage of quantities:
   Amplitudes+Sigma Vector      ... YES
   J+K operators                ... YES
   DIIS vectors                 ... YES
   3-external integrals         ... YES
   4-external integrals         ... YES


Initializing the integral package          ... done
Warning: reference  - re-canonicalizations have been set to INT 1 VIRT 1

--------------------------
UNRESTRICTED FOCK OPERATOR
--------------------------

<ss|ss>:          406 b            0 skpd (  0.0%)    0.001 s ( 0.001 ms/b)
<ss|sp>:         1176 b            0 skpd (  0.0%)    0.002 s ( 0.002 ms/b)
<ss|sd>:          784 b            0 skpd (  0.0%)    0.002 s ( 0.002 ms/b)
<ss|sf>:          784 b            0 skpd (  0.0%)    0.000 s ( 0.000 ms/b)
<ss|sg>:          196 b            0 skpd (  0.0%)    0.001 s ( 0.003 ms/b)
<ss|pp>:          588 b            0 skpd (  0.0%)    0.001 s ( 0.002 ms/b)
<ss|pd>:          672 b            0 skpd (  0.0%)    0.002 s ( 0.003 ms/b)
<ss|pf>:          672 b            0 skpd (  0.0%)    0.000 s ( 0.000 ms/b)
<ss|pg>:          168 b            0 skpd (  0.0%)    0.000 s ( 0.002 ms/b)
<ss|dd>:          280 b            0 skpd (  0.0%)    0.002 s ( 0.008 ms/b)
<ss|df>:          448 b            0 skpd (  0.0%)    0.001 s ( 0.002 ms/b)
<ss|dg>:          112 b            0 skpd (  0.0%)    0.001 s ( 0.006 ms/b)
<ss|ff>:          280 b            0 skpd (  0.0%)    0.000 s ( 0.001 ms/b)
<ss|fg>:          112 b            0 skpd (  0.0%)    0.000 s ( 0.002 ms/b)
<ss|gg>:           28 b            0 skpd (  0.0%)    0.000 s ( 0.011 ms/b)
<sp|sp>:          903 b            0 skpd (  0.0%)    0.002 s ( 0.002 ms/b)
<sp|sd>:         1176 b            0 skpd (  0.0%)    0.002 s ( 0.002 ms/b)
<sp|sf>:         1176 b            0 skpd (  0.0%)    0.001 s ( 0.001 ms/b)
<sp|sg>:          294 b            0 skpd (  0.0%)    0.001 s ( 0.003 ms/b)
<sp|pp>:          882 b            0 skpd (  0.0%)    0.002 s ( 0.002 ms/b)
<sp|pd>:         1008 b            0 skpd (  0.0%)    0.003 s ( 0.003 ms/b)
<sp|pf>:         1008 b            0 skpd (  0.0%)    0.001 s ( 0.001 ms/b)
<sp|pg>:          252 b            0 skpd (  0.0%)    0.001 s ( 0.004 ms/b)
<sp|dd>:          420 b            0 skpd (  0.0%)    0.006 s ( 0.014 ms/b)
<sp|df>:          672 b            0 skpd (  0.0%)    0.002 s ( 0.003 ms/b)
<sp|dg>:          168 b            0 skpd (  0.0%)    0.002 s ( 0.011 ms/b)
<sp|ff>:          420 b            0 skpd (  0.0%)    0.001 s ( 0.002 ms/b)
<sp|fg>:          168 b            0 skpd (  0.0%)    0.001 s ( 0.004 ms/b)
<sp|gg>:           42 b            0 skpd (  0.0%)    0.001 s ( 0.022 ms/b)
<sd|sd>:          406 b            0 skpd (  0.0%)    0.003 s ( 0.007 ms/b)
<sd|sf>:          784 b            0 skpd (  0.0%)    0.001 s ( 0.002 ms/b)
<sd|sg>:          196 b            0 skpd (  0.0%)    0.001 s ( 0.006 ms/b)
<sd|pp>:          588 b            0 skpd (  0.0%)    0.003 s ( 0.004 ms/b)
<sd|pd>:          672 b            0 skpd (  0.0%)    0.005 s ( 0.008 ms/b)
<sd|pf>:          672 b            0 skpd (  0.0%)    0.001 s ( 0.002 ms/b)
<sd|pg>:          168 b            0 skpd (  0.0%)    0.002 s ( 0.012 ms/b)
<sd|dd>:          280 b            0 skpd (  0.0%)    0.011 s ( 0.038 ms/b)
<sd|df>:          448 b            0 skpd (  0.0%)    0.003 s ( 0.008 ms/b)
<sd|dg>:          112 b            0 skpd (  0.0%)    0.004 s ( 0.036 ms/b)
<sd|ff>:          280 b            0 skpd (  0.0%)    0.001 s ( 0.004 ms/b)
<sd|fg>:          112 b            0 skpd (  0.0%)    0.001 s ( 0.011 ms/b)
<sd|gg>:           28 b            0 skpd (  0.0%)    0.002 s ( 0.061 ms/b)
<sf|sf>:          406 b            0 skpd (  0.0%)    0.001 s ( 0.002 ms/b)
<sf|sg>:          196 b            0 skpd (  0.0%)    0.001 s ( 0.005 ms/b)
<sf|pp>:          588 b            0 skpd (  0.0%)    0.002 s ( 0.004 ms/b)
<sf|pd>:          672 b            0 skpd (  0.0%)    0.004 s ( 0.006 ms/b)
<sf|pf>:          672 b            0 skpd (  0.0%)    0.001 s ( 0.002 ms/b)
<sf|pg>:          168 b            0 skpd (  0.0%)    0.002 s ( 0.011 ms/b)
<sf|dd>:          280 b            0 skpd (  0.0%)    0.009 s ( 0.033 ms/b)
<sf|df>:          448 b            0 skpd (  0.0%)    0.002 s ( 0.005 ms/b)
<sf|dg>:          112 b            0 skpd (  0.0%)    0.004 s ( 0.033 ms/b)
<sf|ff>:          280 b            0 skpd (  0.0%)    0.001 s ( 0.004 ms/b)
<sf|fg>:          112 b            0 skpd (  0.0%)    0.001 s ( 0.013 ms/b)
<sf|gg>:           28 b            0 skpd (  0.0%)    0.002 s ( 0.067 ms/b)
<sg|sg>:           28 b            0 skpd (  0.0%)    0.000 s ( 0.011 ms/b)
<sg|pp>:          147 b            0 skpd (  0.0%)    0.001 s ( 0.007 ms/b)
<sg|pd>:          168 b            0 skpd (  0.0%)    0.002 s ( 0.013 ms/b)
<sg|pf>:          168 b            0 skpd (  0.0%)    0.000 s ( 0.003 ms/b)
<sg|pg>:           42 b            0 skpd (  0.0%)    0.001 s ( 0.022 ms/b)
<sg|dd>:           70 b            0 skpd (  0.0%)    0.004 s ( 0.064 ms/b)
<sg|df>:          112 b            0 skpd (  0.0%)    0.001 s ( 0.011 ms/b)
<sg|dg>:           28 b            0 skpd (  0.0%)    0.002 s ( 0.071 ms/b)
<sg|ff>:           70 b            0 skpd (  0.0%)    0.000 s ( 0.006 ms/b)
<sg|fg>:           28 b            0 skpd (  0.0%)    0.001 s ( 0.025 ms/b)
<sg|gg>:            7 b            0 skpd (  0.0%)    0.001 s ( 0.128 ms/b)
<pp|pp>:          231 b            0 skpd (  0.0%)    0.002 s ( 0.008 ms/b)
<pp|pd>:          504 b            0 skpd (  0.0%)    0.004 s ( 0.008 ms/b)
<pp|pf>:          504 b            0 skpd (  0.0%)    0.001 s ( 0.002 ms/b)
<pp|pg>:          126 b            0 skpd (  0.0%)    0.001 s ( 0.012 ms/b)
<pp|dd>:          210 b            0 skpd (  0.0%)    0.008 s ( 0.038 ms/b)
<pp|df>:          336 b            0 skpd (  0.0%)    0.002 s ( 0.006 ms/b)
<pp|dg>:           84 b            0 skpd (  0.0%)    0.003 s ( 0.037 ms/b)
<pp|ff>:          210 b            0 skpd (  0.0%)    0.001 s ( 0.004 ms/b)
<pp|fg>:           84 b            0 skpd (  0.0%)    0.001 s ( 0.013 ms/b)
<pp|gg>:           21 b            0 skpd (  0.0%)    0.001 s ( 0.071 ms/b)
<pd|pd>:          300 b            0 skpd (  0.0%)    0.010 s ( 0.034 ms/b)
<pd|pf>:          576 b            0 skpd (  0.0%)    0.002 s ( 0.004 ms/b)
<pd|pg>:          144 b            0 skpd (  0.0%)    0.004 s ( 0.029 ms/b)
<pd|dd>:          240 b            0 skpd (  0.0%)    0.022 s ( 0.090 ms/b)
<pd|df>:          384 b            0 skpd (  0.0%)    0.006 s ( 0.015 ms/b)
<pd|dg>:           96 b            0 skpd (  0.0%)    0.009 s ( 0.092 ms/b)
<pd|ff>:          240 b            0 skpd (  0.0%)    0.002 s ( 0.008 ms/b)
<pd|fg>:           96 b            0 skpd (  0.0%)    0.003 s ( 0.029 ms/b)
<pd|gg>:           24 b            0 skpd (  0.0%)    0.004 s ( 0.164 ms/b)
<pf|pf>:          300 b            0 skpd (  0.0%)    0.002 s ( 0.006 ms/b)
<pf|pg>:          144 b            0 skpd (  0.0%)    0.003 s ( 0.024 ms/b)
<pf|dd>:          240 b            0 skpd (  0.0%)    0.016 s ( 0.065 ms/b)
<pf|df>:          384 b            0 skpd (  0.0%)    0.005 s ( 0.012 ms/b)
<pf|dg>:           96 b            0 skpd (  0.0%)    0.007 s ( 0.074 ms/b)
<pf|ff>:          240 b            0 skpd (  0.0%)    0.002 s ( 0.010 ms/b)
<pf|fg>:           96 b            0 skpd (  0.0%)    0.003 s ( 0.032 ms/b)
<pf|gg>:           24 b            0 skpd (  0.0%)    0.004 s ( 0.166 ms/b)
<pg|pg>:           21 b            0 skpd (  0.0%)    0.001 s ( 0.052 ms/b)
<pg|dd>:           60 b            0 skpd (  0.0%)    0.008 s ( 0.134 ms/b)
<pg|df>:           96 b            0 skpd (  0.0%)    0.002 s ( 0.023 ms/b)
<pg|dg>:           24 b            0 skpd (  0.0%)    0.003 s ( 0.145 ms/b)
<pg|ff>:           60 b            0 skpd (  0.0%)    0.001 s ( 0.014 ms/b)
<pg|fg>:           24 b            0 skpd (  0.0%)    0.001 s ( 0.060 ms/b)
<pg|gg>:            6 b            0 skpd (  0.0%)    0.002 s ( 0.284 ms/b)
<dd|dd>:           55 b            0 skpd (  0.0%)    0.026 s ( 0.474 ms/b)
<dd|df>:          160 b            0 skpd (  0.0%)    0.007 s ( 0.043 ms/b)
<dd|dg>:           40 b            0 skpd (  0.0%)    0.011 s ( 0.276 ms/b)
<dd|ff>:          100 b            0 skpd (  0.0%)    0.002 s ( 0.020 ms/b)
<dd|fg>:           40 b            0 skpd (  0.0%)    0.003 s ( 0.076 ms/b)
<dd|gg>:           10 b            0 skpd (  0.0%)    0.004 s ( 0.427 ms/b)
<df|df>:          136 b            0 skpd (  0.0%)    0.007 s ( 0.051 ms/b)
<df|dg>:           64 b            0 skpd (  0.0%)    0.011 s ( 0.169 ms/b)
<df|ff>:          160 b            1 skpd (  0.6%)    0.003 s ( 0.020 ms/b)
<df|fg>:           64 b            0 skpd (  0.0%)    0.004 s ( 0.067 ms/b)
<df|gg>:           16 b            0 skpd (  0.0%)    0.006 s ( 0.359 ms/b)
<dg|dg>:           10 b            0 skpd (  0.0%)    0.003 s ( 0.319 ms/b)
<dg|ff>:           40 b            0 skpd (  0.0%)    0.001 s ( 0.036 ms/b)
<dg|fg>:           16 b            0 skpd (  0.0%)    0.002 s ( 0.116 ms/b)
<dg|gg>:            4 b            0 skpd (  0.0%)    0.002 s ( 0.580 ms/b)
<ff|ff>:           55 b            0 skpd (  0.0%)    0.002 s ( 0.035 ms/b)
<ff|fg>:           40 b            0 skpd (  0.0%)    0.004 s ( 0.089 ms/b)
<ff|gg>:           10 b            0 skpd (  0.0%)    0.004 s ( 0.435 ms/b)
<fg|fg>:           10 b            0 skpd (  0.0%)    0.002 s ( 0.197 ms/b)
<fg|gg>:            4 b            0 skpd (  0.0%)    0.003 s ( 0.719 ms/b)
<gg|gg>:            1 b            0 skpd (  0.0%)    0.002 s ( 1.821 ms/b)
Recanonicalizing the internal orbitals
Recanonicalizing the virtual orbitals
Time needed for Fock operator              ...            0.435 sec
Reference energy                           ...   -213.340663584
Warning: for UHF the TrafoType has to be JK
Warning: for UHF the K(C)-option cannot be MO but must be AOX

-------------------------------
PARTIAL EXCHANGE TRANSFORMATION
-------------------------------

Transformation type                        ... two-operators
Generation of integrals (i,mue|j,nue)      ... ON
Generation of integrals (mue,kappa|nue,tau)... ON
Generation of integrals (i,mue|a,nue)      ... ON
Dimension of the basis                     ...   82
Number of internal alpha-MOs               ...    8 (   4-  11)
Number of internal beta-MOs                ...    6 (   4-   9)
Number of external alpha-MOs               ...   70 (  12-  81)
Number of external beta-MOs                ...   72 (  10-  81)
Pair cutoff                                ... 0.000e+00 Eh
Number of AO pairs in the trafo            ... 3403
Total Number of distinct AO pairs          ... 3403
Memory devoted for trafo                   ... 2500.0 MB 
Max. Number of MO pairs treated together   ... 48732      
Number Format for Storage                  ... Double (8 Byte)
Integral package used                      ... LIBINT

Starting integral evaluation:
    ... done with AO integral generation
Closing buffer AOK[aa] ( 0.00 GB; CompressionRatio= 0.00)
Closing buffer AOK[bb] ( 0.00 GB; CompressionRatio= 0.00)
Closing buffer AOK[ab] ( 0.00 GB; CompressionRatio= 0.00)
Closing buffer AOK[ba] ( 0.00 GB; CompressionRatio= 0.00)
Collecting buffer AOK 
Closing buffer IAAO1[aa] ( 0.00 GB; CompressionRatio= 0.00)
Closing buffer IAAO1[bb] ( 0.00 GB; CompressionRatio= 0.00)
Closing buffer IAAO1[ab] ( 0.00 GB; CompressionRatio= 0.00)
Closing buffer IAAO1[ba] ( 0.00 GB; CompressionRatio= 0.00)
Closing buffer IAAO2[aa] ( 0.00 GB; CompressionRatio= 0.00)
Closing buffer IAAO2[bb] ( 0.00 GB; CompressionRatio= 0.00)
Closing buffer IAAO2[ab] ( 0.00 GB; CompressionRatio= 0.00)
Closing buffer IAAO2[ba] ( 0.00 GB; CompressionRatio= 0.00)
Collecting buffer IAAO 
Closing buffer PRQS    ( 0.00 GB; CompressionRatio= 0.00)
Collecting buffer PRQS 
Number of alpha/alpha MO pairs in trafo    ...   36
Number of beta /beta  MO pairs in trafo    ...   21
Number of alpha/ beta MO pairs in trafo    ...   48
------------------------
SORTING OF (i,mue|j,nue)
------------------------

SORTING OF ALPHA/ALPHA PAIRS
IBATCH = 1 of  1
Closing buffer KAO[aa] ( 0.00 GB; CompressionRatio= 1.00)
Collecting buffer KAO 
SORTING OF BETA /BETA  PAIRS
IBATCH = 1 of  1
Closing buffer KAO[bb] ( 0.00 GB; CompressionRatio= 1.00)
Collecting buffer KAO 
SORTING OF ALPHA/BETA  PAIRS
IBATCH = 1 of  1
Closing buffer KAO[ab] ( 0.00 GB; CompressionRatio= 0.999776968255)
Collecting buffer KAO[ab] 
------------------------
SORTING OF (i,mue|a,nue)
------------------------

Number of alpha/alpha (i,a) pairs in trafo  ...  560
Number of beta /beta  (i,a) pairs in trafo  ...  432
Number of alpha/ beta (i,a) pairs in trafo  ...  576
Number of beta /alpha (i,a) pairs in trafo  ...  420
Setting up the alpha/alpha list             ... done
Setting up the beta /beta  list             ... done
Setting up the alpha/beta  list             ... done
Setting up the beta /alpha list             ... done
    ... Now sorting (i,mue|a,nue)integrals
    ... Integrals (i,b|a,c) will be made on the fly
SORTING OF ALPHA/ALPHA PAIRS
IBATCH = 1 of  1
Closing buffer IPAQ[aa]  0.00 GB; CompressionRatio= 1.00)
SORTING OF BETA /BETA  PAIRS
IBATCH = 1 of  1
Closing buffer IPAQ[bb]( 0.00 GB; CompressionRatio= 1.00)
SORTING OF ALPHA/BETA  PAIRS (NMatSort_ab=24)
IBATCH = 1 of  1
Closing buffer IPAQ[ab]( 0.00 GB; CompressionRatio= 1.00)
SORTING OF BETA/ALPHA  PAIRS
IBATCH = 1 of  1
Closing buffer IPAQ[ba]( 0.00 GB; CompressionRatio= 1.00)
N(AO-Batches) Done                         ...         0 
N(AO-Batches) Skipped                      ...         0 
N(IJ)-pairs Skipped                        ...         0 
TOTAL TIME for half transformation         ...     5.688 sec
AO-integral generation                     ...     0.000 sec
Half transformation                        ...     0.000 sec
K-integral sorting                         ...     1.216 sec
<ss|**>: 
------------------------------
PARTIAL COULOMB TRANSFORMATION
------------------------------

Transformation type                        ... two-operators
Dimension of the basis                     ...   82
Number of internal alpha-MOs               ...    8 (4-11)
Number of internal beta-MOs                ...    6 (4-9)
Pair cutoff                                ... 0.000e+00 Eh
Number of AO pairs included in the trafo   ... 3403
Total Number of distinct AO pairs          ... 3403
Memory devoted for trafo                   ... 2500.0 MB 
Max. Number of MO pairs treated together   ... 96291      
Max. Number of MOs treated per batch       ... 1174      
Number Format for Storage                  ... Double (8 Byte)
AO-integral source                         ... DIRECT
Integral package used                      ... LIBINT

Starting integral evaluation:
        7084 b        0 skpd     0.024 s (  0.003 ms/b)
<sp|**>: <sd|**>:        10626 b        0 skpd     0.023 s (  0.002 ms/b)
        7084 b        0 skpd     0.058 s (  0.008 ms/b)
<sf|**>:         7084 b        0 skpd     0.053 s (  0.008 ms/b)
<sg|**>:         1771 b        0 skpd     0.028 s (  0.016 ms/b)
<pp|**>:         5313 b        0 skpd     0.037 s (  0.007 ms/b)
<pd|**>:         6072 b        0 skpd     0.083 s (  0.014 ms/b)
<pf|**>:         6072 b        0 skpd     0.095 s (  0.016 ms/b)
<pg|**>:         1518 b        0 skpd     0.080 s (  0.053 ms/b)
<dd|**>:         2530 b        0 skpd     0.173 s (  0.068 ms/b)
<df|**>:         4048 b        0 skpd     0.104 s (  0.026 ms/b)
<dg|**>:         1012 b        0 skpd     0.101 s (  0.100 ms/b)
<ff|**>:         2530 b        0 skpd     0.084 s (  0.033 ms/b)
<fg|**>:         1012 b        0 skpd     0.077 s (  0.076 ms/b)
<gg|**>:          253 b        0 skpd     0.059 s (  0.232 ms/b)
Closing buffer AOJ[aa] ( 0.00 GB; CompressionRatio= 0.96)
Closing buffer AOJ[bb] ( 0.00 GB; CompressionRatio= 0.00)
Collecting buffer AOJ 
    ... done with AO integral generation
Number of Alpha-MO pairs included          ...   36
Number of Beta-MO pairs included           ...   21
    ... Now sorting integrals
SORTING ALPHA/ALPHA PAIRS
IBATCH = 1 of  1
Closing buffer JAO[aa] ( 0.00 GB; CompressionRatio= 1.00)
SORTING BETA/BETA PAIRS
IBATCH = 1 of  1
Closing buffer JAO[bb] ( 0.00 GB; CompressionRatio= 1.00)
Collecting buffer JAO 
TOTAL TIME for half transformation         ...     1.271 sec
AO-integral generation                     ...     0.803 sec
Half transformation                        ...     0.278 sec
J-integral sorting                         ...     0.157 sec

-------------------------- SECOND HALF TRANSFORMATION -------------------------
Formation of (ij|kl),(ij|ka), (ij|ab)      ... ok (     0.164 sec)
Formation of (ik|jl),(ik|ja), (ia|jb)      ... ok (     0.267 sec)


-----------------------
SPIN UNRESTRICTED GUESS
-----------------------

Entering MDCI_UHF_Guess, Tailored=0
Spin-components of the MP2 energy:
EMP2(aa)=     -0.096874343
EMP2(bb)=     -0.080299115
EMP2(ab)=     -0.295689532

Initial guess performed in     0.015 sec
E(0)                                       ...   -213.340663584
E(MP2)                                     ...     -0.472862990
Initial E(tot)                             ...   -213.813526575
<T|T>                                      ...      0.102608685
Number of pairs included                   ... 91

------------------------------------------------
                  UHF COUPLED CLUSTER ITERATIONS
------------------------------------------------

Number of amplitudes to be optimized       ...       349896

Iter       E(tot)           E(Corr)          Delta-E          Residual     Time      <S|S>**1/2
  0   -213.813526575     -0.472862990     -0.000000000      0.022650504    0.68      0.000000189
                           *** Turning on DIIS ***
  1   -213.774003140     -0.433339555      0.039523435      0.005480831    0.64      0.027270676
  2   -213.780958176     -0.440294591     -0.006955036      0.003143127    0.66      0.033546783
  3   -213.782369589     -0.441706004     -0.001411413      0.001094526    0.65      0.040014661
  4   -213.782659177     -0.441995592     -0.000289588      0.000242269    0.65      0.042103632
  5   -213.782672024     -0.442008440     -0.000012847      0.000066988    0.64      0.042391506
  6   -213.782676608     -0.442013023     -0.000004584      0.000017539    0.65      0.042434096
  7   -213.782676538     -0.442012954      0.000000070      0.000006227    0.67      0.042431705
               --- The Coupled-Cluster iterations have converged ---

----------------------
COUPLED CLUSTER ENERGY
----------------------

E(0)                                       ...   -213.340663584
E(CORR)                                    ...     -0.442012954
E(TOT)                                     ...   -213.782676538
Singles norm <S|S>**1/2                    ...      0.042431705 ( 0.029315501, 0.013116203)  
T1 diagnostic                              ...      0.011340350                              

------------------
LARGEST AMPLITUDES
------------------
   9a-> 12a   9b-> 10b       0.062373
   9a-> 12a   9b-> 13b       0.038021
  11a-> 17a  10a-> 18a       0.037988
  11a-> 18a  10a-> 17a       0.037988
  11a-> 19a   9b-> 10b       0.034873
  10a-> 20a   9b-> 10b       0.034873
   9a-> 16a   9b-> 10b       0.032202
  11a-> 18a   9b-> 11b       0.030890
  10a-> 17a   9b-> 11b       0.030890
  11a-> 17a   9b-> 12b       0.030890
  10a-> 18a   9b-> 12b       0.030890
   9a-> 15a  -1a-> -1a       0.025917
   9a-> 21a  -1a-> -1a       0.025600
   9b-> 14b  -1b-> -1b       0.024680
  11a-> 35a   9b-> 10b       0.023766
  10a-> 34a   9b-> 10b       0.023766

----------------------
UHF TRIPLES CORRECTION (Algorithm 1)
----------------------

Multiplier for the singles contribution    ...      1.000000000

SPIN-CASE Alpha-Alpha-Alpha:
10% done
20% done
30% done
40% done
50% done
60% done
70% done
80% done
90% done


SPIN-CASE Beta-Beta-Beta:
10% done
20% done
30% done
40% done
50% done
60% done
70% done
80% done
90% done


SPIN-CASE Alpha-Alpha-Beta:
10% done
20% done
30% done
40% done
50% done
60% done
70% done
80% done
90% done


SPIN-CASE Beta-Beta-Alpha:
10% done
20% done
30% done
40% done
50% done
60% done
70% done
80% done
90% done


Triples Correction (T)                     ...     -0.009828092
    alpha-alpha-alpha ... -0.000542587 (  5.5%)
    alpha-alpha-beta  ... -0.005470391 ( 55.7%)
    alpha-beta -beta  ... -0.003557131 ( 36.2%)
    beta -beta -beta  ... -0.000257982 (  2.6%)
Scaling of triples based on CCSD energies (Peterson et al. Molecular Physics 113, 1551 (2015))
E(T*) = f*E(T) where f = E(F12-CCSD)/E(CCSD) 
f = CCSD (with F12)/ CCSD (without F12)    ...      1.000000000
Scaled triples correction (T)              ...     -0.009828092

Final correlation energy                   ...     -0.451841046
E(CCSD)                                    ...   -213.782676538
E(CCSD(T))                                 ...   -213.792504630



        !!!!!!!!!!!!!!!!!!!!!!!!!!!!!!!!!!!!!!!!!!!!!!!!!!!!!!!!!!!!!!!!!!!!!!!!!! 
        !  Warning: Densities are linearized densities                           !
        !!!!!!!!!!!!!!!!!!!!!!!!!!!!!!!!!!!!!!!!!!!!!!!!!!!!!!!!!!!!!!!!!!!!!!!!!! 

NORM  =      1.105001780 sqrt=     1.051190649
W(HF) =      0.904975917
------------------------------------------------------------------------------
                           ORCA POPULATION ANALYSIS
------------------------------------------------------------------------------
Input electron density              ... 50_Sn.mdcip
Input spin density                  ... 50_Sn.mdcir
BaseName (.gbw .S,...)              ... 50_Sn

                    ********************************
                    * MULLIKEN POPULATION ANALYSIS *
                    ********************************

------------------------------------------
MULLIKEN ATOMIC CHARGES AND SPIN DENSITIES
------------------------------------------
   0 Sn:   -0.000000    2.000000
Sum of atomic charges       :   -0.0000000
Sum of atomic spin densities:    2.0000000

---------------------------------------------------
MULLIKEN REDUCED ORBITAL CHARGES AND SPIN DENSITIES
---------------------------------------------------
CHARGE
  0 Sns       :     3.940219  s :     3.940219
      pz      :     2.034788  p :     8.022719
      px      :     2.992784
      py      :     2.995148
      dz2     :     1.988557  d :     9.955355
      dxz     :     1.989776
      dyz     :     1.989785
      dx2y2   :     1.993618
      dxy     :     1.993618
      f0      :     0.011180  f :     0.080061
      f+1     :     0.011232
      f-1     :     0.011232
      f+2     :     0.011416
      f-2     :     0.011416
      f+3     :     0.011793
      f-3     :     0.011793
      g0      :     0.000158  g :     0.001645
      g+1     :     0.000162
      g-1     :     0.000162
      g+2     :     0.000173
      g-2     :     0.000173
      g+3     :     0.000191
      g-3     :     0.000191
      g+4     :     0.000218
      g-4     :     0.000218

SPIN
  0 Sns       :     0.024126  s :     0.024126
      pz      :     0.000619  p :     1.947685
      px      :     0.972334
      py      :     0.974732
      dz2     :     0.001433  d :     0.025855
      dxz     :     0.003346
      dyz     :     0.003361
      dx2y2   :     0.008857
      dxy     :     0.008857
      f0      :     0.000157  f :     0.002157
      f+1     :     0.000191
      f-1     :     0.000192
      f+2     :     0.000302
      f-2     :     0.000302
      f+3     :     0.000507
      f-3     :     0.000507
      g0      :     0.000002  g :     0.000177
      g+1     :     0.000005
      g-1     :     0.000005
      g+2     :     0.000013
      g-2     :     0.000013
      g+3     :     0.000026
      g-3     :     0.000026
      g+4     :     0.000044
      g-4     :     0.000044


                     *******************************
                     * LOEWDIN POPULATION ANALYSIS *
                     *******************************

-----------------------------------------
LOEWDIN ATOMIC CHARGES AND SPIN DENSITIES
-----------------------------------------
   0 Sn:   -0.000000    2.000000

--------------------------------------------------
LOEWDIN REDUCED ORBITAL CHARGES AND SPIN DENSITIES
--------------------------------------------------
CHARGE
  0 Sns       :     3.940219  s :     3.940219
      pz      :     2.034788  p :     8.022719
      px      :     2.992784
      py      :     2.995148
      dz2     :     1.988557  d :     9.955355
      dxz     :     1.989776
      dyz     :     1.989785
      dx2y2   :     1.993618
      dxy     :     1.993618
      f0      :     0.011180  f :     0.080061
      f+1     :     0.011232
      f-1     :     0.011232
      f+2     :     0.011416
      f-2     :     0.011416
      f+3     :     0.011793
      f-3     :     0.011793
      g0      :     0.000158  g :     0.001645
      g+1     :     0.000162
      g-1     :     0.000162
      g+2     :     0.000173
      g-2     :     0.000173
      g+3     :     0.000191
      g-3     :     0.000191
      g+4     :     0.000218
      g-4     :     0.000218

SPIN
  0 Sns       :     0.024126  s :     0.024126
      pz      :     0.000619  p :     1.947685
      px      :     0.972334
      py      :     0.974732
      dz2     :     0.001433  d :     0.025855
      dxz     :     0.003346
      dyz     :     0.003361
      dx2y2   :     0.008857
      dxy     :     0.008857
      f0      :     0.000157  f :     0.002157
      f+1     :     0.000191
      f-1     :     0.000192
      f+2     :     0.000302
      f-2     :     0.000302
      f+3     :     0.000507
      f-3     :     0.000507
      g0      :     0.000002  g :     0.000177
      g+1     :     0.000005
      g-1     :     0.000005
      g+2     :     0.000013
      g-2     :     0.000013
      g+3     :     0.000026
      g-3     :     0.000026
      g+4     :     0.000044
      g-4     :     0.000044


                      *****************************
                      * MAYER POPULATION ANALYSIS *
                      *****************************

  NA   - Mulliken gross atomic population
  ZA   - Total nuclear charge
  QA   - Mulliken gross atomic charge
  VA   - Mayer's total valence
  BVA  - Mayer's bonded valence
  FA   - Mayer's free valence

  ATOM       NA         ZA         QA         VA         BVA        FA
  0 Sn    22.0000    22.0000    -0.0000     2.7014     0.0000     2.7014





------------------------------------------------------------------------------- 
                                     TIMINGS                                   
------------------------------------------------------------------------------- 


Total execution time                   ...       14.343 sec

Fock Matrix Formation                  ...        0.435 sec (  3.0%)
Initial Guess                          ...        0.015 sec (  0.1%)
DIIS Solver                            ...        0.197 sec (  1.4%)
State Vector Update                    ...        0.010 sec (  0.1%)
Sigma-vector construction              ...        5.024 sec ( 35.0%)
  <D|H|D>(0-ext Fock)                  ...        0.003 sec (  0.1% of sigma)
  <D|H|D>(0-ext)                       ...        0.008 sec (  0.2% of sigma)
  <D|H|D>(2-ext Fock)                  ...        0.001 sec (  0.0% of sigma)
  <D|H|D>(2-ext)                       ...        0.044 sec (  0.9% of sigma)
  <D|H|D>(4-ext)                       ...        2.025 sec ( 40.3% of sigma)
  <S|H|0>                              ...        0.101 sec (  2.0% of sigma)
  <S|H|D>(1-ext)                       ...        0.001 sec (  0.0% of sigma)
  <D|H|S>(1-ext)                       ...        0.020 sec (  0.4% of sigma)
  Fock-dressing                        ...        2.075 sec ( 41.3% of sigma)
  (ik|jl)-dressing                     ...        0.011 sec (  0.2% of sigma)
  (ij|ab),(ia|jb)-dressing             ...        0.558 sec ( 11.1% of sigma)
  Pair energies                        ...        0.001 sec (  0.0% of sigma)
Total Time for computing (T)           ...        0.527 sec (  3.7% of ALL)
  I/O of integral and amplitudes       ...        0.106 sec ( 20.1% of (T))
  External N**7 contributions          ...        0.134 sec ( 25.4% of (T))
  Internal N**7 contributions          ...        0.069 sec ( 13.1% of (T))
  N**6 triples energy contributions    ...        0.199 sec ( 37.9% of (T))


-------------------------   --------------------
FINAL SINGLE POINT ENERGY      -213.792504630041
-------------------------   --------------------


                            ***************************************
                            *     ORCA property calculations      *
                            ***************************************

                                    ---------------------
                                    Active property flags
                                    ---------------------
   (+) Dipole Moment


------------------------------------------------------------------------------
                       ORCA ELECTRIC PROPERTIES CALCULATION
------------------------------------------------------------------------------

Dipole Moment Calculation                       ... on
Quadrupole Moment Calculation                   ... off
Polarizability Calculation                      ... off
GBWName                                         ... 50_Sn.gbw
Electron density file                           ... 50_Sn.scfp
The origin for moment calculation is the CENTER OF MASS  = ( 0.000000,  0.000000  0.000000)

-------------
DIPOLE MOMENT
-------------
                                X             Y             Z
Electronic contribution:      0.00000       0.00000      -0.00000
Nuclear contribution   :      0.00000       0.00000       0.00000
                        -----------------------------------------
Total Dipole Moment    :      0.00000       0.00000      -0.00000
                        -----------------------------------------
Magnitude (a.u.)       :      0.00000
Magnitude (Debye)      :      0.00000



--------------------
Rotational spectrum 
--------------------
 
Rotational constants in cm-1:     0.000000     0.000000     0.000000 
Rotational constants in MHz :     0.000000     0.000000     0.000000 

 Dipole components along the rotational axes: 
x,y,z [a.u.] :     0.000000     0.000000    -0.000000 
x,y,z [Debye]:     0.000000     0.000000    -0.000000 

 

                           *** MDCI DENSITY ***

------------------------------------------------------------------------------
                       ORCA ELECTRIC PROPERTIES CALCULATION
------------------------------------------------------------------------------

Dipole Moment Calculation                       ... on
Quadrupole Moment Calculation                   ... off
Polarizability Calculation                      ... off
GBWName                                         ... 50_Sn.gbw
Electron density file                           ... 50_Sn.mdcip
The origin for moment calculation is the CENTER OF MASS  = ( 0.000000,  0.000000  0.000000)

-------------
DIPOLE MOMENT
-------------
                                X             Y             Z
Electronic contribution:      0.00000       0.00000      -0.00000
Nuclear contribution   :      0.00000       0.00000       0.00000
                        -----------------------------------------
Total Dipole Moment    :      0.00000       0.00000      -0.00000
                        -----------------------------------------
Magnitude (a.u.)       :      0.00000
Magnitude (Debye)      :      0.00000



--------------------
Rotational spectrum 
--------------------
 
Rotational constants in cm-1:     0.000000     0.000000     0.000000 
Rotational constants in MHz :     0.000000     0.000000     0.000000 

 Dipole components along the rotational axes: 
x,y,z [a.u.] :     0.000000     0.000000    -0.000000 
x,y,z [Debye]:     0.000000     0.000000    -0.000000 

 

Timings for individual modules:

Sum of individual times         ...       23.443 sec (=   0.391 min)
GTO integral calculation        ...        0.902 sec (=   0.015 min)   3.8 %
SCF iterations                  ...        7.569 sec (=   0.126 min)  32.3 %
MDCI module                     ...       14.972 sec (=   0.250 min)  63.9 %
                             ****ORCA TERMINATED NORMALLY****
TOTAL RUN TIME: 0 days 0 hours 0 minutes 24 seconds 205 msec
