
                                 *****************
                                 * O   R   C   A *
                                 *****************

           --- An Ab Initio, DFT and Semiempirical electronic structure package ---

                  #######################################################
                  #                        -***-                        #
                  #          Department of theory and spectroscopy      #
                  #               Directorship: Frank Neese             #
                  #        Max Planck Institute fuer Kohlenforschung    #
                  #                Kaiser Wilhelm Platz 1               #
                  #                 D-45470 Muelheim/Ruhr               #
                  #                      Germany                        #
                  #                                                     #
                  #                  All rights reserved                #
                  #                        -***-                        #
                  #######################################################


                         Program Version 4.2.0 -  RELEASE  -


 With contributions from (in alphabetic order):
   Daniel Aravena         : Magnetic Suceptibility
   Michael Atanasov       : Ab Initio Ligand Field Theory (pilot matlab implementation)
   Alexander A. Auer      : GIAO ZORA, VPT2
   Ute Becker             : Parallelization
   Giovanni Bistoni       : ED, misc. LED, open-shell LED, HFLED
   Martin Brehm           : Molecular dynamics
   Dmytro Bykov           : SCF Hessian
   Vijay G. Chilkuri      : MRCI spin determinant printing, contributions to CSF-ICE
   Dipayan Datta          : RHF DLPNO-CCSD density
   Achintya Kumar Dutta   : EOM-CC, STEOM-CC
   Dmitry Ganyushin       : Spin-Orbit,Spin-Spin,Magnetic field MRCI
   Miquel Garcia          : C-PCM Hessian, Gaussian charge scheme
   Yang Guo               : DLPNO-NEVPT2, CIM, IAO-localization
   Andreas Hansen         : Spin unrestricted coupled pair/coupled cluster methods
   Benjamin Helmich-Paris : CASSCF linear response (MC-RPA)
   Lee Huntington         : MR-EOM, pCC
   Robert Izsak           : Overlap fitted RIJCOSX, COSX-SCS-MP3, EOM
   Christian Kollmar      : KDIIS, OOCD, Brueckner-CCSD(T), CCSD density
   Simone Kossmann        : Meta GGA functionals, TD-DFT gradient, OOMP2, MP2 Hessian
   Martin Krupicka        : AUTO-CI
   Lucas Lang             : DCDCAS
   Dagmar Lenk            : GEPOL surface, SMD
   Dimitrios Liakos       : Extrapolation schemes; Compound Job, initial MDCI parallelization
   Dimitrios Manganas     : Further ROCIS development; embedding schemes
   Dimitrios Pantazis     : SARC Basis sets
   Taras Petrenko         : DFT Hessian,TD-DFT gradient, ASA, ECA, R-Raman, ABS, FL, XAS/XES, NRVS
   Peter Pinski           : DLPNO-MP2, DLPNO-MP2 Gradient
   Christoph Reimann      : Effective Core Potentials
   Marius Retegan         : Local ZFS, SOC
   Christoph Riplinger    : Optimizer, TS searches, QM/MM, DLPNO-CCSD(T), (RO)-DLPNO pert. Triples
   Tobias Risthaus        : Range-separated hybrids, TD-DFT gradient, RPA, STAB
   Michael Roemelt        : Original ROCIS implementation
   Masaaki Saitow         : Open-shell DLPNO-CCSD energy and density
   Barbara Sandhoefer     : DKH picture change effects
   Avijit Sen             : IP-ROCIS
   Kantharuban Sivalingam : CASSCF convergence, NEVPT2, FIC-MRCI
   Bernardo de Souza      : ESD, SOC TD-DFT
   Georgi Stoychev        : AutoAux, RI-MP2 NMR
   Willem Van den Heuvel  : Paramagnetic NMR
   Boris Wezisla          : Elementary symmetry handling
   Frank Wennmohs         : Technical directorship


 We gratefully acknowledge several colleagues who have allowed us to
 interface, adapt or use parts of their codes:
   Stefan Grimme, W. Hujo, H. Kruse,             : VdW corrections, initial TS optimization,
                  C. Bannwarth                     DFT functionals, gCP, sTDA/sTD-DF
   Ed Valeev, F. Pavosevic, A. Kumar             : LibInt (2-el integral package), F12 methods
   Garnet Chan, S. Sharma, J. Yang, R. Olivares  : DMRG
   Ulf Ekstrom                                   : XCFun DFT Library
   Mihaly Kallay                                 : mrcc  (arbitrary order and MRCC methods)
   Andreas Klamt, Michael Diedenhofen            : otool_cosmo (COSMO solvation model)
   Jiri Pittner, Ondrej Demel                    : Mk-CCSD
   Frank Weinhold                                : gennbo (NPA and NBO analysis)
   Christopher J. Cramer and Donald G. Truhlar   : smd solvation model
   Lars Goerigk                                  : TD-DFT with DH, B97 family of functionals
   V. Asgeirsson, H. Jonsson                     : NEB implementation
   FAccTs GmbH                                   : IRC, NEB, NEB-TS, Multilevel, MM, QM/MM, CI optimization
   S Lehtola, MJT Oliveira, MAL Marques          : LibXC Library


 Your calculation uses the libint2 library for the computation of 2-el integrals
 For citations please refer to: http://libint.valeyev.net

 Your ORCA version has been built with support for libXC version: 4.2.3
 For citations please refer to: https://tddft.org/programs/libxc/

 This ORCA versions uses:
   CBLAS   interface :  Fast vector & matrix operations
   LAPACKE interface :  Fast linear algebra routines
   SCALAPACK package :  Parallel linear algebra routines


----- Orbital basis set information -----
Your calculation utilizes the basis: def2-SVP
   F. Weigend and R. Ahlrichs, Phys. Chem. Chem. Phys. 7, 3297 (2005).

----- AuxJ basis set information -----
Your calculation utilizes the auxiliary basis: def2/J
   F. Weigend, Phys. Chem. Chem. Phys. 8, 1057 (2006).

================================================================================
                                        WARNINGS
                       Please study these warnings very carefully!
================================================================================


INFO   : the flag for use of LIBINT has been found!

================================================================================
                                       INPUT FILE
================================================================================
NAME = 51_Sb_atom51.inp
|  1> # input to generate an atomic fitting density for Sb
|  2> # this file is use internally by ORCA
|  3> #
|  4> # atomic ground state (S=4): 1s2 2s2 2p6 3s2 3p6 4s2 3d10 4p6 5s2 4d10 5p3 
|  5> #
|  6> ! RHF AllowRHF def2-SVP def2/J  NoMulliken NoLoewdin NoMayer NoPrintMOs 
|  7> 
|  8> %output print[p_atomdensfit] 2 end
|  9> 
| 10> %scf
| 11>   guess hcore
| 12>   maxiter 1000
| 13>   maxdisk 500000
| 14>   SCFMode Conventional
| 15>   lshift 1.000000
| 16>   hftyp rohf
| 17>   rohf_case sahf
| 18>   rohf_numop   2
| 19>   rohf_norb[1] 3
| 20>   rohf_nel[1]  3
| 21> end
| 22> 
| 23> %basis
| 24>   NewECP 51
| 25>     N_core 28
| 26>     lmax f
| 27>     s 4
| 28>       1      16.3308650000    281.0715810000  2
| 29>       2       8.5565420000     61.7166040000  2
| 30>       3      14.4449780000     15.3668010000  2
| 31>       4      14.4492950000     20.2961380000  2
| 32>     p 6
| 33>       1      14.4703370000     67.4573800000  2
| 34>       2      13.8161940000    134.9335030000  2
| 35>       3       8.4249240000     14.7163440000  2
| 36>       4       8.0927280000     29.5185120000  2
| 37>       5      14.4449780000     15.3668010000  2
| 38>       6      14.4492950000     20.2961380000  2
| 39>     d 6
| 40>       1      14.8863310000     35.4478150000  2
| 41>       2      15.1463190000     53.1434660000  2
| 42>       3       5.9082670000      9.1792230000  2
| 43>       4       5.5943220000     13.2402530000  2
| 44>       5      14.4449780000     15.3668010000  2
| 45>       6      14.4492950000     20.2961380000  2
| 46>     f 2
| 47>       1      14.4449780000    -15.3668010000  2
| 48>       2      14.4492950000    -20.2961380000  2
| 49>   end
| 50>   NewGTO 51
| 51>     s 9 
| 52>      1   12339.3165550000      0.0001062594
| 53>      2    1854.7043271000      0.0007636787
| 54>      3     418.4444177200      0.0030770599
| 55>      4      96.9651111090      0.0079471651
| 56>      5      28.5379602670     -0.1669386813
| 57>      6      17.8629071440      0.7715813479
| 58>      7       8.4541754812     -1.5092770049
| 59>      8       5.2813981306     -0.8362947252
| 60>      9       2.3194618632      1.8771593451
| 61>     s 1 
| 62>      1       1.2167512076      1.0000000000
| 63>     s 3 
| 64>      1      25.3362666010      0.0501016644
| 65>      2      12.4770433090     -0.3294267888
| 66>      3       3.0723142741      1.1909064315
| 67>     s 1 
| 68>      1       0.6017477470      1.0000000000
| 69>     s 1 
| 70>      1       0.2832393635      1.0000000000
| 71>     s 1 
| 72>      1       0.1322176573      1.0000000000
| 73>     s 1 
| 74>      1       0.0609867190      1.0000000000
| 75>     p 7 
| 76>      1     162.8930000000      0.0004035625
| 77>      2      30.3996000000     -0.0051634476
| 78>      3      19.0004000000      0.0588996771
| 79>      4       9.3225600000     -0.2747281280
| 80>      5       3.0166800000      0.3716832104
| 81>      6       1.8621900000      0.4356677749
| 82>      7       1.1033100000      0.3507463881
| 83>     p 3 
| 84>      1      12.6653261130     -0.0222287165
| 85>      2       3.3473442879      0.2887067805
| 86>      3       1.1722158971      0.7797103956
| 87>     p 1 
| 88>      1       0.5888674548      1.0000000000
| 89>     p 1 
| 90>      1       0.2501424961      1.0000000000
| 91>     p 1 
| 92>      1       0.1112016109      1.0000000000
| 93>     p 1 
| 94>      1       0.0482066854      1.0000000000
| 95>   end
| 96>   NewAuxGTO 51
| 97>     S 1
| 98>      1 1310.72 1.0
| 99>     S 1
|100>      1  655.36 1.0
|101>     S 1
|102>      1  327.68 1.0
|103>     S 1
|104>      1  163.84 1.0
|105>     S 1
|106>      1   81.82 1.0
|107>     S 1
|108>      1   40.96 1.0
|109>     S 1
|110>      1   20.48 1.0
|111>     S 1
|112>      1   10.24 1.0
|113>     S 1
|114>      1    5.12 1.0
|115>     S 1
|116>      1    2.56 1.0
|117>     S 1
|118>      1    1.28 1.0
|119>     S 1
|120>      1    0.64 1.0
|121>     S 1
|122>      1    0.32 1.0
|123>     S 1
|124>      1    0.16 1.0
|125>     S 1
|126>      1    0.08 1.0
|127>     S 1
|128>      1    0.04 1.0
|129>     S 1
|130>      1    0.02 1.0
|131>     S 1
|132>      1    0.01 1.0
|133>   end
|134> end
|135> 
|136> * xyz 0 4
|137> 51  0.0 0.0 0.0
|138> *
|139> 
|140> 
|141>                          ****END OF INPUT****
================================================================================

                       ****************************
                       * Single Point Calculation *
                       ****************************

---------------------------------
CARTESIAN COORDINATES (ANGSTROEM)
---------------------------------
  Sb     0.000000    0.000000    0.000000

----------------------------
CARTESIAN COORDINATES (A.U.)
----------------------------
  NO LB      ZA    FRAG     MASS         X           Y           Z
   0 Sb   23.0000*   0   121.750    0.000000    0.000000    0.000000
* core charge reduced due to ECP

--------------------------------
INTERNAL COORDINATES (ANGSTROEM)
--------------------------------
 Sb     0   0   0     0.000000000000     0.00000000     0.00000000

---------------------------
INTERNAL COORDINATES (A.U.)
---------------------------
 Sb     0   0   0     0.000000000000     0.00000000     0.00000000

---------------------
BASIS SET INFORMATION
---------------------
There are 1 groups of distinct atoms

 Group   1 Type Sb  : 17s14p contracted to 7s6p pattern {9131111/731111}

Atom   0Sb   basis set group =>   1
---------------------------------
AUXILIARY/J BASIS SET INFORMATION
---------------------------------
There are 1 groups of distinct atoms

 Group   1 Type Sb  : 18s contracted to 18s pattern {111111111111111111}

Atom   0Sb   basis set group =>   1
-------------------------
ECP PARAMETER INFORMATION
-------------------------

 Group 1, Type Sb ECP (replacing 28 core electrons, lmax=3)

Atom   0Sb   ECP group =>   1

------------------------------------------------------------------------------
                           ORCA GTO INTEGRAL CALCULATION
------------------------------------------------------------------------------

                         BASIS SET STATISTICS AND STARTUP INFO

 # of primitive gaussian shells          ...   31
 # of primitive gaussian functions       ...   59
 # of contracted shells                  ...   13
 # of contracted basis functions         ...   25
 Highest angular momentum                ...    1
 Maximum contraction depth               ...    9
 Integral package used                   ... LIBINT
 Integral threshhold            Thresh   ...  1.000e-10
 Primitive cut-off              TCut     ...  1.000e-11
 Storage cut-off                TCutStore... -1.000e+00
 Buffer length                           ... 1048576 integrals/buffer
 Generate file with integrals 4 distinct ...false


------------------------------ INTEGRAL EVALUATION ----------------------------


 * One electron integrals 

   ECP integrals                         ... done
 Pre-screening matrix                    ... done
 Shell pair data                         ... done (   0.000 sec)
 Statistics run                          ... done
 Maximum amount of storage needed        ...     0 MB
 Maximum amount of storage dedicated     ... 500000 MB
 Beginning two electron integral evaluation:
 Starting repulsion integrals
  <ss|ss>  ...          406 b.         0 skpd (  0.0%)     0.000 s. (  0.001 ms/b)
  <ss|sp>  ...         1176 b.         0 skpd (  0.0%)     0.001 s. (  0.001 ms/b)
  <ss|pp>  ...          588 b.         0 skpd (  0.0%)     0.002 s. (  0.004 ms/b)
  <sp|sp>  ...          903 b.         0 skpd (  0.0%)     0.002 s. (  0.003 ms/b)
  <sp|pp>  ...          882 b.         0 skpd (  0.0%)     0.004 s. (  0.005 ms/b)
  <pp|pp>  ...          231 b.         0 skpd (  0.0%)     0.003 s. (  0.013 ms/b)


                                      INTEGRAL STATISTICS

Integral type statistics:
 Number of integrals retained            ...      52975 
 One   Center Integrals retained         ...      52975 (100.0%)
 Two   Center Integrals retained         ...          0 (  0.0%)
 Three Center Integrals retained         ...          0 (  0.0%)
 Four  Center Integrals retained         ...          0 (  0.0%)

Storage statistics:
 Number of char integrals                ...          0 (  0.0%)
 Number of short int integrals           ...          0 (  0.0%)
 Number of double/float integrals        ...      52975 (100.0%)
 Amount of memory used                   ...          0 MB
 Amount of memory estimated              ...          0 MB ( 95.8%)

Prescreening statistics:
 Total number of shell quadruples        ...       4186 
 Number of skipped shell quadruples      ...          0 (  0.0%)
 # of negligible batches done            ...          0 (  0.0%)

Timings:
 Total evaluation time               ...     0.178 sec (   0.003 min)
 One electron matrix time            ...     0.016 sec (   0.000 min) =  9.2%
 Schwartz matrix evaluation time     ...     0.076 sec (   0.001 min) = 42.8%
 Statistics run                      ...     0.001 sec (   0.000 min) =  0.3%
 Repulsion integral time             ...     0.014 sec (   0.000 min) =  7.6%

-------------------------------------------------------------------------------
                                 ORCA SCF
-------------------------------------------------------------------------------

------------
SCF SETTINGS
------------
Hamiltonian:
 Ab initio Hamiltonian  Method          .... Hartree-Fock(GTOs)


General Settings:
 Integral files         IntName         .... 51_Sb_atom51
 Hartree-Fock type      HFTyp           .... ROHF
 Total Charge           Charge          ....    0
 Multiplicity           Mult            ....    4
 Number of Electrons    NEL             ....   23
 Basis Dimension        Dim             ....   25
 Nuclear Repulsion      ENuc            ....      0.0000000000 Eh

Convergence Acceleration:
 DIIS                   CNVDIIS         .... on
   Start iteration      DIISMaxIt       ....    12
   Startup error        DIISStart       ....  0.200000
   # of expansion vecs  DIISMaxEq       ....     5
   Bias factor          DIISBfac        ....   1.050
   Max. coefficient     DIISMaxC        ....  10.000
 Newton-Raphson         CNVNR           .... off
 SOSCF                  CNVSOSCF        .... off
 Level Shifting         CNVShift        .... on
   Level shift para.    LevelShift      ....    1.0000
   Turn off err/grad.   ShiftErr        ....    0.0010
 Zerner damping         CNVZerner       .... off
 Static damping         CNVDamp         .... on
   Fraction old density DampFac         ....    0.7000
   Max. Damping (<1)    DampMax         ....    0.9800
   Min. Damping (>=0)   DampMin         ....    0.0000
   Turn off err/grad.   DampErr         ....    0.1000
 Fernandez-Rico         CNVRico         .... off

SCF Procedure:
 Maximum # iterations   MaxIter         ....  1000
 SCF integral mode      SCFMode         .... Conventional
 Integral Threshold     Thresh          ....  1.000e-10 Eh
 Primitive CutOff       TCut            ....  1.000e-11 Eh
 Integral Buffer length BufferLength    .... 1048576
 Integral index format  IndFormat       ....     0
 Integral value format  ValFormat       ....     0
 Integral Storage       Thresh          ....  1.000e-10 Eh

Convergence Tolerance:
 Convergence Check Mode ConvCheckMode   .... Total+1el-Energy
 Convergence forced     ConvForced      .... 0
 Energy Change          TolE            ....  1.000e-06 Eh
 1-El. energy change                    ....  1.000e-03 Eh
 DIIS Error             TolErr          ....  1.000e-06


Diagonalization of the overlap matrix:
Smallest eigenvalue                        ... 1.490e-03
Time for diagonalization                   ...    0.000 sec
Threshold for overlap eigenvalues          ... 1.000e-08
Number of eigenvalues below threshold      ... 0
Time for construction of square roots      ...    0.002 sec
Total time needed                          ...    0.002 sec

--------------------
INITIAL GUESS: HCORE
--------------------
AVERAGE-CONFIGURATION (SAHF) CASE FOUND

-------------------
FINAL ROHF SETTINGS
-------------------
Number of operators             ... 2
  operator   0:  10 orbitals  20 electrons n(mue)= 2.000
  operator   1:   3 orbitals   3 electrons n(mue)= 1.000
Vector coupling coefficients a and b (Zerner convention):
   1.000    1.000           1.000    1.000 
   1.000    1.000           1.000    2.000 

                      -----------------
                      INTIAL GUESS DONE 
                      -----------------

 InCore treatment chosen:
   Memory dedicated               ...    1024 MB
   Memory needed                  ...      0 MB
   Number of tiny    integrals    ...       0
   Number of small   integrals    ...       0
   Number of regular integrals    ...   52975

--------------
SCF ITERATIONS
--------------
ITER       Energy         Delta-E        Max-DP      RMS-DP      [F,P]     Damp
  0   -203.0938822476   0.000000000000 8.31246385  0.48145473  2.8406363 0.7000
  1   -206.9357711778  -3.841888930168 5.81872469  0.38990717  0.6658361 0.7000
  2   -208.5401336537  -1.604362475901 5.16752960  0.33196217  0.4552142 0.7000
  3   -209.5626664629  -1.022532809203 4.13665595  0.25425731  0.2628387 0.7000
                            ****Activating DIIS****
  4   -210.2276820772  -0.665015614330 3.97116468  0.19806486  0.1515872 0.7000
  5   -210.7445253448  -0.516843267539 8.75196637  0.45842999  0.0812123 0.0000
  6   -211.6946410191  -0.950115674347 0.54072355  0.02614988  0.0532843 0.0000
  7   -211.7114717281  -0.016830708957 1.04031297  0.05611539  0.0418061 0.0000
  8   -211.7312565812  -0.019784853136 0.27169422  0.01454513  0.0271743 0.0000
  9   -211.7349029682  -0.003646386983 0.11679291  0.00694943  0.0255312 0.0000
 10   -211.7368901455  -0.001987177358 0.08531478  0.00546497  0.0254045 0.0000
 11   -211.7378497608  -0.000959615262 0.03557148  0.00192555  0.0253422 0.0000
 12   -211.7380358935  -0.000186132660 0.01965002  0.00129604  0.0253614 0.0000
 13   -211.7380740831  -0.000038189663 0.01440912  0.00083233  0.0253967 0.0000
 14   -211.7380787978  -0.000004714703 0.00447331  0.00026922  0.0254209 0.0000
 15   -211.7380813980  -0.000002600159 0.00839877  0.00050568  0.0254289 0.0000
 16   -211.7381217411  -0.000040343093 0.01062093  0.00055338  0.0254290 0.0000
 17   -211.7381590119  -0.000037270850 0.00961706  0.00050451  0.0254361 0.0000
 18   -211.7381847878  -0.000025775916 0.00729168  0.00038798  0.0254472 0.0000
 19   -211.7382019714  -0.000017183601 0.00615696  0.00032053  0.0254565 0.0000
 20   -211.7382160875  -0.000014116027 0.00655042  0.00033468  0.0254637 0.0000
 21   -211.7382308606  -0.000014773144 0.00628431  0.00032096  0.0254699 0.0000
 22   -211.7382438680  -0.000013007376 0.00562226  0.00028826  0.0254757 0.0000
 23   -211.7382543736  -0.000010505636 0.00484218  0.00024957  0.0254808 0.0000
 24   -211.7382625995  -0.000008225830 0.00425388  0.00022040  0.0254851 0.0000
 25   -211.7382692061  -0.000006606663 0.00385242  0.00020058  0.0254887 0.0000
 26   -211.7382746685  -0.000005462405 0.00345054  0.00018065  0.0254918 0.0000
 27   -211.7382791147  -0.000004446128 0.00304414  0.00016035  0.0254944 0.0000
 28   -211.7382826671  -0.000003552408 0.00266244  0.00014115  0.0254966 0.0000
 29   -211.7382854751  -0.000002808075 0.00232742  0.00012420  0.0254984 0.0000
 30   -211.7382876892  -0.000002214097 0.00203755  0.00010945  0.0254998 0.0000
 31   -211.7382894333  -0.000001744094 0.00178096  0.00009629  0.0255010 0.0000
 32   -211.7382908016  -0.000001368231 0.00155208  0.00008447  0.0255020 0.0000
 33   -211.7382918691  -0.000001067571 0.00134884  0.00007390  0.0255028 0.0000
                 **** Energy Check signals convergence ****

               *****************************************************
               *                     SUCCESS                       *
               *           SCF CONVERGED AFTER  34 CYCLES          *
               *****************************************************


----------------
TOTAL SCF ENERGY
----------------

Total Energy       :         -211.73829270 Eh           -5761.69186 eV

Components:
Nuclear Repulsion  :            0.00000000 Eh               0.00000 eV
Electronic Energy  :         -211.73829270 Eh           -5761.69186 eV
One Electron Energy:         -332.75573862 Eh           -9054.74398 eV
Two Electron Energy:          121.01744592 Eh            3293.05212 eV

Virial components:
Potential Energy   :         -272.29763020 Eh           -7409.59521 eV
Kinetic Energy     :           60.55933750 Eh            1647.90335 eV
Virial Ratio       :            4.49637730


---------------
SCF CONVERGENCE
---------------

  Last Energy change         ...   -8.2870e-07  Tolerance :   1.0000e-06
  Last MAX-Density change    ...    1.1697e-03  Tolerance :   1.0000e-05
  Last RMS-Density change    ...    6.4509e-05  Tolerance :   1.0000e-06
  Last DIIS Error            ...    2.5503e-02  Tolerance :   1.0000e-06

             **** THE GBW FILE WAS UPDATED (51_Sb_atom51.gbw) ****
             **** DENSITY FILE WAS UPDATED (51_Sb_atom51.scfp) ****
             **** ENERGY FILE WAS UPDATED (51_Sb_atom51.en.tmp) ****
             **** THE GBW FILE WAS UPDATED (51_Sb_atom51.gbw) ****
             **** DENSITY FILE WAS UPDATED (51_Sb_atom51.scfp) ****
----------------
ORBITAL ENERGIES
----------------

  NO   OCC          E(Eh)            E(eV) 
   0   2.0000     -10.674836      -290.4770 
   1   2.0000      -8.429423      -229.3763 
   2   2.0000      -8.425715      -229.2754 
   3   2.0000      -8.422590      -229.1903 
   4   2.0000      -2.697925       -73.4143 
   5   2.0000      -1.876686       -51.0672 
   6   2.0000      -1.869361       -50.8679 
   7   2.0000      -1.863884       -50.7189 
   8   2.0000      -0.502458       -13.6726 
   9   2.0000      -0.282007        -7.6738 
  10   1.0000      -0.330982        -9.0065 
  11   1.0000      -0.330799        -9.0015 
  12   1.0000       0.031637         0.8609 
  13   0.0000       0.166940         4.5427 
  14   0.0000       0.168258         4.5785 
  15   0.0000       0.186067         5.0631 
  16   0.0000       0.978138        26.6165 
  17   0.0000       0.978829        26.6353 
  18   0.0000       1.003754        27.3135 
  19   0.0000       1.233656        33.5695 
  20   0.0000      10.695558       291.0409 
  21   0.0000      36.058842       981.2110 
  22   0.0000      36.060080       981.2447 
  23   0.0000      36.063657       981.3420 
  24   0.0000      70.817263      1927.0357 
CleanUpVectors: The p-vectors have cracked symmetry
CleanUpVectors: The p-vectors have cracked symmetry
CleanUpVectors: The p-vectors have cracked symmetry
CleanUpVectors: The p-vectors have cracked symmetry
CleanUpVectors: The p-vectors have cracked symmetry
CleanUpVectors: The p-vectors have cracked symmetry
CleanUpVectors: The p-vectors have cracked symmetry
CleanUpVectors: The p-vectors have cracked symmetry
CleanUpVectors: The p-vectors have cracked symmetry
CleanUpVectors: The p-vectors have cracked symmetry
CleanUpVectors: The p-vectors have cracked symmetry
CleanUpVectors: The p-vectors have cracked symmetry
CleanUpVectors: The p-vectors have cracked symmetry
CleanUpVectors: The p-vectors have cracked symmetry
CleanUpVectors: The p-vectors have cracked symmetry
CleanUpVectors: The p-vectors have cracked symmetry
CleanUpVectors: The p-vectors have cracked symmetry
--------------------------
ATOM BASIS FOR ELEMENT Sb
--------------------------
 NewGTO Sb
 S 17
    1      12339.316554999999        -0.000042640639
    2       1854.704327100000        -0.000306455217
    3        418.444417720000        -0.001234787693
    4         96.965111109000        -0.003189103228
    5         28.537960267000         0.066990515585
    6         17.862907144000        -0.309626456308
    7          8.454175481200         0.605654986200
    8          5.281398130600         0.335595168154
    9          2.319461863200        -0.753281812126
   10          1.216751207600        -0.758574024847
   11         25.336266601000        -0.004875779302
   12         12.477043309000         0.032059061066
   13          3.072314274100        -0.115896288066
   14          0.601747747000         0.213414381958
   15          0.283239363500        -0.140591238000
   16          0.132217657300         0.066079166734
   17          0.060986719000        -0.017689599436
 P 31
    1        162.893000000000        -0.000337693042
    2         30.399600000000         0.004320669854
    3         19.000400000000        -0.049286073753
    4          9.322560000000         0.229887012039
    5          3.016680000000        -0.311017089098
    6          1.862190000000        -0.364558095098
    7          1.103310000000        -0.293497574241
    8        162.893000000000         0.000220705420
    9         30.399600000000        -0.002823852243
   10         19.000400000000         0.032211808496
   11          9.322560000000        -0.150246831278
   12          3.016680000000         0.203270866396
   13          1.862190000000         0.238263563128
   14          1.103310000000         0.191820669321
   15        162.893000000000         0.000077337881
   16         30.399600000000        -0.000989512402
   17         19.000400000000         0.011287412105
   18          9.322560000000        -0.052648329332
   19          3.016680000000         0.071228600474
   20          1.862190000000         0.083490469867
   21          1.103310000000         0.067216311221
   22         12.665326113000         0.001824711032
   23          3.347344287900        -0.023699364172
   24          1.172215897100        -0.064004872285
   25         12.665326113000        -0.001192573030
   26          3.347344287900         0.015489149815
   27          1.172215897100         0.041831546558
   28         12.665326113000        -0.000417892192
   29          3.347344287900         0.005427587748
   30          1.172215897100         0.014658286108
   31          0.588867454800         0.181213298450
 S 17
    1      12339.316554999999        -0.000028033617
    2       1854.704327100000        -0.000201475595
    3        418.444417720000        -0.000811797520
    4         96.965111109000        -0.002096640666
    5         28.537960267000         0.044042173973
    6         17.862907144000        -0.203560491155
    7          8.454175481200         0.398181175896
    8          5.281398130600         0.220633333705
    9          2.319461863200        -0.495236800765
   10          1.216751207600        -1.427110208965
   11         25.336266601000        -0.011644938490
   12         12.477043309000         0.076567410252
   13          3.072314274100        -0.276797833122
   14          0.601747747000         1.841511418375
   15          0.283239363500         0.164751885824
   16          0.132217657300         0.145291331025
   17          0.060986719000        -0.039361233114
 P 31
    1        162.893000000000        -0.000188407381
    2         30.399600000000         0.002410609611
    3         19.000400000000        -0.027497931366
    4          9.322560000000         0.128259704974
    5          3.016680000000        -0.173524201023
    6          1.862190000000        -0.203396065348
    7          1.103310000000        -0.163749626171
    8        162.893000000000         0.000123137065
    9         30.399600000000        -0.001575497686
   10         19.000400000000         0.017971772384
   11          9.322560000000        -0.083826459277
   12          3.016680000000         0.113409892636
   13          1.862190000000         0.132933192014
   14          1.103310000000         0.107021541743
   15        162.893000000000         0.000043148735
   16         30.399600000000        -0.000552073680
   17         19.000400000000         0.006297529093
   18          9.322560000000        -0.029373817719
   19          3.016680000000         0.039740214993
   20          1.862190000000         0.046581418142
   21          1.103310000000         0.037501658620
   22         12.665326113000         0.008104843189
   23          3.347344287900        -0.105265780123
   24          1.172215897100        -0.284291290009
   25         12.665326113000        -0.005297067443
   26          3.347344287900         0.068798362140
   27          1.172215897100         0.185803735083
   28         12.665326113000        -0.001856157291
   29          3.347344287900         0.024107788475
   30          1.172215897100         0.065107903791
   31          0.588867454800         1.124783012885
 S 17
    1      12339.316554999999         0.000008686966
    2       1854.704327100000         0.000062432600
    3        418.444417720000         0.000251557166
    4         96.965111109000         0.000649700167
    5         28.537960267000        -0.013647645136
    6         17.862907144000         0.063078660667
    7          8.454175481200        -0.123387083298
    8          5.281398130600        -0.068369137398
    9          2.319461863200         0.153462363586
   10          1.216751207600         0.421236414094
   11         25.336266601000         0.006709720002
   12         12.477043309000        -0.044117526642
   13          3.072314274100         0.159488687641
   14          0.601747747000        -0.239970895386
   15          0.283239363500        -2.990159646893
   16          0.132217657300         5.716087778412
   17          0.060986719000        -3.328319629166
 S 17
    1      12339.316554999999        -0.000027050853
    2       1854.704327100000        -0.000194412544
    3        418.444417720000        -0.000783338653
    4         96.965111109000        -0.002023139558
    5         28.537960267000         0.042498204793
    6         17.862907144000        -0.196424351036
    7          8.454175481200         0.384222294938
    8          5.281398130600         0.212898677657
    9          2.319461863200        -0.477875478919
   10          1.216751207600        -3.563239881678
   11         25.336266601000        -0.006349942871
   12         12.477043309000         0.041751932079
   13          3.072314274100        -0.150936857993
   14          0.601747747000        10.172824903711
   15          0.283239363500       -12.138939838576
   16          0.132217657300         7.843573946450
   17          0.060986719000        -2.329260453829
 S 17
    1      12339.316554999999        -0.000009381829
    2       1854.704327100000        -0.000067426534
    3        418.444417720000        -0.000271679026
    4         96.965111109000        -0.000701669172
    5         28.537960267000         0.014739309520
    6         17.862907144000        -0.068124273046
    7          8.454175481200         0.133256718898
    8          5.281398130600         0.073837930844
    9          2.319461863200        -0.165737697166
   10          1.216751207600        -9.791522427755
   11         25.336266601000         0.211653564713
   12         12.477043309000        -1.391657442851
   13          3.072314274100         5.030962433787
   14          0.601747747000        10.906128424594
   15          0.283239363500        -7.367668361919
   16          0.132217657300         3.516276550497
   17          0.060986719000        -0.931432067621
 P 31
    1        162.893000000000        -0.000117249415
    2         30.399600000000         0.001500167167
    3         19.000400000000        -0.017112473790
    4          9.322560000000         0.079818398355
    5          3.016680000000        -0.107987335572
    6          1.862190000000        -0.126577151966
    7          1.103310000000        -0.101904435962
    8        162.893000000000        -0.000193790421
    9         30.399600000000         0.002479483804
   10         19.000400000000        -0.028283582356
   11          9.322560000000         0.131924248423
   12          3.016680000000        -0.178482008888
   13          1.862190000000        -0.209207350497
   14          1.103310000000        -0.168428161958
   15        162.893000000000         0.000041070228
   16         30.399600000000        -0.000525479870
   17         19.000400000000         0.005994172314
   18          9.322560000000        -0.027958858515
   19          3.016680000000         0.037825898526
   20          1.862190000000         0.044337555701
   21          1.103310000000         0.035695175120
   22         12.665326113000         0.005064969420
   23          3.347344287900        -0.065783870812
   24          1.172215897100        -0.177662498421
   25         12.665326113000         0.008371406816
   26          3.347344287900        -0.108727911034
   27          1.172215897100        -0.293641466883
   28         12.665326113000        -0.001774161926
   29          3.347344287900         0.023042831910
   30          1.172215897100         0.062231775620
   31          0.588867454800         0.705369582313
 P 31
    1        162.893000000000        -0.000024397505
    2         30.399600000000         0.000312157941
    3         19.000400000000        -0.003560799555
    4          9.322560000000         0.016608780288
    5          3.016680000000        -0.022470232020
    6          1.862190000000        -0.026338440133
    7          1.103310000000        -0.021204489469
    8        162.893000000000        -0.000004870327
    9         30.399600000000         0.000062314214
   10         19.000400000000        -0.000710821019
   11          9.322560000000         0.003315511011
   12          3.016680000000        -0.004485597399
   13          1.862190000000        -0.005257784542
   14          1.103310000000        -0.004232924820
   15        162.893000000000        -0.000092631967
   16         30.399600000000         0.001185195122
   17         19.000400000000        -0.013519573622
   18          9.322560000000         0.063059889893
   19          3.016680000000        -0.085314534385
   20          1.862190000000        -0.100001270765
   21          1.103310000000        -0.080508787997
   22         12.665326113000         0.001374774601
   23          3.347344287900        -0.017855585545
   24          1.172215897100        -0.048222579479
   25         12.665326113000         0.000274437993
   26          3.347344287900        -0.003564403252
   27          1.172215897100        -0.009626383783
   28         12.665326113000         0.005219717130
   29          3.347344287900        -0.067793735534
   30          1.172215897100        -0.183090540032
   31          0.588867454800         0.233695348221
 P 31
    1        162.893000000000        -0.000032008308
    2         30.399600000000         0.000409535629
    3         19.000400000000        -0.004671591186
    4          9.322560000000         0.021789890276
    5          3.016680000000        -0.029479822219
    6          1.862190000000        -0.034554718080
    7          1.103310000000        -0.027819231205
    8        162.893000000000        -0.000052903492
    9         30.399600000000         0.000676882538
   10         19.000400000000        -0.007721229301
   11          9.322560000000         0.036014439742
   12          3.016680000000        -0.048724397758
   13          1.862190000000        -0.057112211046
   14          1.103310000000        -0.045979764616
   15        162.893000000000         0.000011211898
   16         30.399600000000        -0.000143452499
   17         19.000400000000         0.001636369054
   18          9.322560000000        -0.007632581859
   19          3.016680000000         0.010326217958
   20          1.862190000000         0.012103856927
   21          1.103310000000         0.009744544682
   22         12.665326113000         0.001693032147
   23          3.347344287900        -0.021989117570
   24          1.172215897100        -0.059386009327
   25         12.665326113000         0.002798252010
   26          3.347344287900        -0.036343723612
   27          1.172215897100        -0.098153493540
   28         12.665326113000        -0.000593036784
   29          3.347344287900         0.007702367370
   30          1.172215897100         0.020801783383
   31          0.588867454800         0.242884832509
 P 31
    1        162.893000000000        -0.000097263764
    2         30.399600000000         0.001244457417
    3         19.000400000000        -0.014195581269
    4          9.322560000000         0.066213019493
    5          3.016680000000        -0.089580443890
    6          1.862190000000        -0.105001548556
    7          1.103310000000        -0.084534399886
    8        162.893000000000        -0.000160758035
    9         30.399600000000         0.002056845450
   10         19.000400000000        -0.023462527794
   11          9.322560000000         0.109437210122
   12          3.016680000000        -0.148059006159
   13          1.862190000000        -0.173547085158
   14          1.103310000000        -0.139718879365
   15        162.893000000000         0.000034069636
   16         30.399600000000        -0.000435909634
   17         19.000400000000         0.004972440645
   18          9.322560000000        -0.023193154485
   19          3.016680000000         0.031378316378
   20          1.862190000000         0.036780034432
   21          1.103310000000         0.029610783663
   22         12.665326113000         0.007209425300
   23          3.347344287900        -0.093636084104
   24          1.172215897100        -0.252882970232
   25         12.665326113000         0.011915774231
   26          3.347344287900        -0.154762188609
   27          1.172215897100        -0.417966239295
   28         12.665326113000        -0.002525323811
   29          3.347344287900         0.032798929586
   30          1.172215897100         0.088580068394
   31          0.588867454800         1.688410943903
 P 31
    1        162.893000000000        -0.001328998070
    2         30.399600000000         0.017004087092
    3         19.000400000000        -0.193966379961
    4          9.322560000000         0.904725171431
    5          3.016680000000        -1.224014296225
    6          1.862190000000        -1.434726051544
    7          1.103310000000        -1.155065876992
    8        162.893000000000        -0.002196574661
    9         30.399600000000         0.028104440229
   10         19.000400000000        -0.320588603351
   11          9.322560000000         1.495334290328
   12          3.016680000000        -2.023056953419
   13          1.862190000000        -2.371322396951
   14          1.103310000000        -1.909098661112
   15        162.893000000000         0.000465522602
   16         30.399600000000        -0.005956206439
   17         19.000400000000         0.067942712534
   18          9.322560000000        -0.316907921141
   19          3.016680000000         0.428748793901
   20          1.862190000000         0.502557091102
   21          1.103310000000         0.404597481552
   22         12.665326113000        -0.084807852730
   23          3.347344287900         1.101485194735
   24          1.172215897100         2.974781040635
   25         12.665326113000        -0.140170843346
   26          3.347344287900         1.820540241375
   27          1.172215897100         4.916732988916
   28         12.665326113000         0.029706568529
   29          3.347344287900        -0.385829193498
   30          1.172215897100        -1.042008894198
   31          0.588867454800        -0.774549651834
 end
  // -----------------------------------------------
  // The basis set
  // -----------------------------------------------
  BAS[ATNO] = new BFNGauss[NSH];
  // Basis function   1 L = s
  InitBFNGauss(BAS[ATNO][  0]);
  BAS[ATNO][  0].l  = 0;
  BAS[ATNO][  0].ng = 17;
  BAS[ATNO][  0].a[  0] =     12339.316554999999;     BAS[ATNO][  0].d[  0] =         0.000042640639;
  BAS[ATNO][  0].a[  1] =      1854.704327100000;     BAS[ATNO][  0].d[  1] =         0.000306455217;
  BAS[ATNO][  0].a[  2] =       418.444417720000;     BAS[ATNO][  0].d[  2] =         0.001234787693;
  BAS[ATNO][  0].a[  3] =        96.965111109000;     BAS[ATNO][  0].d[  3] =         0.003189103228;
  BAS[ATNO][  0].a[  4] =        28.537960267000;     BAS[ATNO][  0].d[  4] =        -0.066990515585;
  BAS[ATNO][  0].a[  5] =        17.862907144000;     BAS[ATNO][  0].d[  5] =         0.309626456308;
  BAS[ATNO][  0].a[  6] =         8.454175481200;     BAS[ATNO][  0].d[  6] =        -0.605654986200;
  BAS[ATNO][  0].a[  7] =         5.281398130600;     BAS[ATNO][  0].d[  7] =        -0.335595168154;
  BAS[ATNO][  0].a[  8] =         2.319461863200;     BAS[ATNO][  0].d[  8] =         0.753281812126;
  BAS[ATNO][  0].a[  9] =         1.216751207600;     BAS[ATNO][  0].d[  9] =         0.758574024847;
  BAS[ATNO][  0].a[ 10] =        25.336266601000;     BAS[ATNO][  0].d[ 10] =         0.004875779302;
  BAS[ATNO][  0].a[ 11] =        12.477043309000;     BAS[ATNO][  0].d[ 11] =        -0.032059061066;
  BAS[ATNO][  0].a[ 12] =         3.072314274100;     BAS[ATNO][  0].d[ 12] =         0.115896288066;
  BAS[ATNO][  0].a[ 13] =         0.601747747000;     BAS[ATNO][  0].d[ 13] =        -0.213414381958;
  BAS[ATNO][  0].a[ 14] =         0.283239363500;     BAS[ATNO][  0].d[ 14] =         0.140591238000;
  BAS[ATNO][  0].a[ 15] =         0.132217657300;     BAS[ATNO][  0].d[ 15] =        -0.066079166734;
  BAS[ATNO][  0].a[ 16] =         0.060986719000;     BAS[ATNO][  0].d[ 16] =         0.017689599436;

  // Basis function   2 L = p
  InitBFNGauss(BAS[ATNO][  1]);
  BAS[ATNO][  1].l  = 1;
  BAS[ATNO][  1].ng = 31;
  BAS[ATNO][  1].a[  0] =       162.893000000000;     BAS[ATNO][  1].d[  0] =         0.000337693042;
  BAS[ATNO][  1].a[  1] =        30.399600000000;     BAS[ATNO][  1].d[  1] =        -0.004320669854;
  BAS[ATNO][  1].a[  2] =        19.000400000000;     BAS[ATNO][  1].d[  2] =         0.049286073753;
  BAS[ATNO][  1].a[  3] =         9.322560000000;     BAS[ATNO][  1].d[  3] =        -0.229887012039;
  BAS[ATNO][  1].a[  4] =         3.016680000000;     BAS[ATNO][  1].d[  4] =         0.311017089098;
  BAS[ATNO][  1].a[  5] =         1.862190000000;     BAS[ATNO][  1].d[  5] =         0.364558095098;
  BAS[ATNO][  1].a[  6] =         1.103310000000;     BAS[ATNO][  1].d[  6] =         0.293497574241;
  BAS[ATNO][  1].a[  7] =       162.893000000000;     BAS[ATNO][  1].d[  7] =        -0.000220705420;
  BAS[ATNO][  1].a[  8] =        30.399600000000;     BAS[ATNO][  1].d[  8] =         0.002823852243;
  BAS[ATNO][  1].a[  9] =        19.000400000000;     BAS[ATNO][  1].d[  9] =        -0.032211808496;
  BAS[ATNO][  1].a[ 10] =         9.322560000000;     BAS[ATNO][  1].d[ 10] =         0.150246831278;
  BAS[ATNO][  1].a[ 11] =         3.016680000000;     BAS[ATNO][  1].d[ 11] =        -0.203270866396;
  BAS[ATNO][  1].a[ 12] =         1.862190000000;     BAS[ATNO][  1].d[ 12] =        -0.238263563128;
  BAS[ATNO][  1].a[ 13] =         1.103310000000;     BAS[ATNO][  1].d[ 13] =        -0.191820669321;
  BAS[ATNO][  1].a[ 14] =       162.893000000000;     BAS[ATNO][  1].d[ 14] =        -0.000077337881;
  BAS[ATNO][  1].a[ 15] =        30.399600000000;     BAS[ATNO][  1].d[ 15] =         0.000989512402;
  BAS[ATNO][  1].a[ 16] =        19.000400000000;     BAS[ATNO][  1].d[ 16] =        -0.011287412105;
  BAS[ATNO][  1].a[ 17] =         9.322560000000;     BAS[ATNO][  1].d[ 17] =         0.052648329332;
  BAS[ATNO][  1].a[ 18] =         3.016680000000;     BAS[ATNO][  1].d[ 18] =        -0.071228600474;
  BAS[ATNO][  1].a[ 19] =         1.862190000000;     BAS[ATNO][  1].d[ 19] =        -0.083490469867;
  BAS[ATNO][  1].a[ 20] =         1.103310000000;     BAS[ATNO][  1].d[ 20] =        -0.067216311221;
  BAS[ATNO][  1].a[ 21] =        12.665326113000;     BAS[ATNO][  1].d[ 21] =        -0.001824711032;
  BAS[ATNO][  1].a[ 22] =         3.347344287900;     BAS[ATNO][  1].d[ 22] =         0.023699364172;
  BAS[ATNO][  1].a[ 23] =         1.172215897100;     BAS[ATNO][  1].d[ 23] =         0.064004872285;
  BAS[ATNO][  1].a[ 24] =        12.665326113000;     BAS[ATNO][  1].d[ 24] =         0.001192573030;
  BAS[ATNO][  1].a[ 25] =         3.347344287900;     BAS[ATNO][  1].d[ 25] =        -0.015489149815;
  BAS[ATNO][  1].a[ 26] =         1.172215897100;     BAS[ATNO][  1].d[ 26] =        -0.041831546558;
  BAS[ATNO][  1].a[ 27] =        12.665326113000;     BAS[ATNO][  1].d[ 27] =         0.000417892192;
  BAS[ATNO][  1].a[ 28] =         3.347344287900;     BAS[ATNO][  1].d[ 28] =        -0.005427587748;
  BAS[ATNO][  1].a[ 29] =         1.172215897100;     BAS[ATNO][  1].d[ 29] =        -0.014658286108;
  BAS[ATNO][  1].a[ 30] =         0.588867454800;     BAS[ATNO][  1].d[ 30] =        -0.181213298450;

  // Basis function   3 L = s
  InitBFNGauss(BAS[ATNO][  2]);
  BAS[ATNO][  2].l  = 0;
  BAS[ATNO][  2].ng = 17;
  BAS[ATNO][  2].a[  0] =     12339.316554999999;     BAS[ATNO][  2].d[  0] =        -0.000028033617;
  BAS[ATNO][  2].a[  1] =      1854.704327100000;     BAS[ATNO][  2].d[  1] =        -0.000201475595;
  BAS[ATNO][  2].a[  2] =       418.444417720000;     BAS[ATNO][  2].d[  2] =        -0.000811797520;
  BAS[ATNO][  2].a[  3] =        96.965111109000;     BAS[ATNO][  2].d[  3] =        -0.002096640666;
  BAS[ATNO][  2].a[  4] =        28.537960267000;     BAS[ATNO][  2].d[  4] =         0.044042173973;
  BAS[ATNO][  2].a[  5] =        17.862907144000;     BAS[ATNO][  2].d[  5] =        -0.203560491155;
  BAS[ATNO][  2].a[  6] =         8.454175481200;     BAS[ATNO][  2].d[  6] =         0.398181175896;
  BAS[ATNO][  2].a[  7] =         5.281398130600;     BAS[ATNO][  2].d[  7] =         0.220633333705;
  BAS[ATNO][  2].a[  8] =         2.319461863200;     BAS[ATNO][  2].d[  8] =        -0.495236800765;
  BAS[ATNO][  2].a[  9] =         1.216751207600;     BAS[ATNO][  2].d[  9] =        -1.427110208965;
  BAS[ATNO][  2].a[ 10] =        25.336266601000;     BAS[ATNO][  2].d[ 10] =        -0.011644938490;
  BAS[ATNO][  2].a[ 11] =        12.477043309000;     BAS[ATNO][  2].d[ 11] =         0.076567410252;
  BAS[ATNO][  2].a[ 12] =         3.072314274100;     BAS[ATNO][  2].d[ 12] =        -0.276797833122;
  BAS[ATNO][  2].a[ 13] =         0.601747747000;     BAS[ATNO][  2].d[ 13] =         1.841511418375;
  BAS[ATNO][  2].a[ 14] =         0.283239363500;     BAS[ATNO][  2].d[ 14] =         0.164751885824;
  BAS[ATNO][  2].a[ 15] =         0.132217657300;     BAS[ATNO][  2].d[ 15] =         0.145291331025;
  BAS[ATNO][  2].a[ 16] =         0.060986719000;     BAS[ATNO][  2].d[ 16] =        -0.039361233114;

  // Basis function   4 L = p
  InitBFNGauss(BAS[ATNO][  3]);
  BAS[ATNO][  3].l  = 1;
  BAS[ATNO][  3].ng = 31;
  BAS[ATNO][  3].a[  0] =       162.893000000000;     BAS[ATNO][  3].d[  0] =        -0.000188407381;
  BAS[ATNO][  3].a[  1] =        30.399600000000;     BAS[ATNO][  3].d[  1] =         0.002410609611;
  BAS[ATNO][  3].a[  2] =        19.000400000000;     BAS[ATNO][  3].d[  2] =        -0.027497931366;
  BAS[ATNO][  3].a[  3] =         9.322560000000;     BAS[ATNO][  3].d[  3] =         0.128259704974;
  BAS[ATNO][  3].a[  4] =         3.016680000000;     BAS[ATNO][  3].d[  4] =        -0.173524201023;
  BAS[ATNO][  3].a[  5] =         1.862190000000;     BAS[ATNO][  3].d[  5] =        -0.203396065348;
  BAS[ATNO][  3].a[  6] =         1.103310000000;     BAS[ATNO][  3].d[  6] =        -0.163749626171;
  BAS[ATNO][  3].a[  7] =       162.893000000000;     BAS[ATNO][  3].d[  7] =         0.000123137065;
  BAS[ATNO][  3].a[  8] =        30.399600000000;     BAS[ATNO][  3].d[  8] =        -0.001575497686;
  BAS[ATNO][  3].a[  9] =        19.000400000000;     BAS[ATNO][  3].d[  9] =         0.017971772384;
  BAS[ATNO][  3].a[ 10] =         9.322560000000;     BAS[ATNO][  3].d[ 10] =        -0.083826459277;
  BAS[ATNO][  3].a[ 11] =         3.016680000000;     BAS[ATNO][  3].d[ 11] =         0.113409892636;
  BAS[ATNO][  3].a[ 12] =         1.862190000000;     BAS[ATNO][  3].d[ 12] =         0.132933192014;
  BAS[ATNO][  3].a[ 13] =         1.103310000000;     BAS[ATNO][  3].d[ 13] =         0.107021541743;
  BAS[ATNO][  3].a[ 14] =       162.893000000000;     BAS[ATNO][  3].d[ 14] =         0.000043148735;
  BAS[ATNO][  3].a[ 15] =        30.399600000000;     BAS[ATNO][  3].d[ 15] =        -0.000552073680;
  BAS[ATNO][  3].a[ 16] =        19.000400000000;     BAS[ATNO][  3].d[ 16] =         0.006297529093;
  BAS[ATNO][  3].a[ 17] =         9.322560000000;     BAS[ATNO][  3].d[ 17] =        -0.029373817719;
  BAS[ATNO][  3].a[ 18] =         3.016680000000;     BAS[ATNO][  3].d[ 18] =         0.039740214993;
  BAS[ATNO][  3].a[ 19] =         1.862190000000;     BAS[ATNO][  3].d[ 19] =         0.046581418142;
  BAS[ATNO][  3].a[ 20] =         1.103310000000;     BAS[ATNO][  3].d[ 20] =         0.037501658620;
  BAS[ATNO][  3].a[ 21] =        12.665326113000;     BAS[ATNO][  3].d[ 21] =         0.008104843189;
  BAS[ATNO][  3].a[ 22] =         3.347344287900;     BAS[ATNO][  3].d[ 22] =        -0.105265780123;
  BAS[ATNO][  3].a[ 23] =         1.172215897100;     BAS[ATNO][  3].d[ 23] =        -0.284291290009;
  BAS[ATNO][  3].a[ 24] =        12.665326113000;     BAS[ATNO][  3].d[ 24] =        -0.005297067443;
  BAS[ATNO][  3].a[ 25] =         3.347344287900;     BAS[ATNO][  3].d[ 25] =         0.068798362140;
  BAS[ATNO][  3].a[ 26] =         1.172215897100;     BAS[ATNO][  3].d[ 26] =         0.185803735083;
  BAS[ATNO][  3].a[ 27] =        12.665326113000;     BAS[ATNO][  3].d[ 27] =        -0.001856157291;
  BAS[ATNO][  3].a[ 28] =         3.347344287900;     BAS[ATNO][  3].d[ 28] =         0.024107788475;
  BAS[ATNO][  3].a[ 29] =         1.172215897100;     BAS[ATNO][  3].d[ 29] =         0.065107903791;
  BAS[ATNO][  3].a[ 30] =         0.588867454800;     BAS[ATNO][  3].d[ 30] =         1.124783012885;

  // Basis function   5 L = s
  InitBFNGauss(BAS[ATNO][  4]);
  BAS[ATNO][  4].l  = 0;
  BAS[ATNO][  4].ng = 17;
  BAS[ATNO][  4].a[  0] =     12339.316554999999;     BAS[ATNO][  4].d[  0] =         0.000008686966;
  BAS[ATNO][  4].a[  1] =      1854.704327100000;     BAS[ATNO][  4].d[  1] =         0.000062432600;
  BAS[ATNO][  4].a[  2] =       418.444417720000;     BAS[ATNO][  4].d[  2] =         0.000251557166;
  BAS[ATNO][  4].a[  3] =        96.965111109000;     BAS[ATNO][  4].d[  3] =         0.000649700167;
  BAS[ATNO][  4].a[  4] =        28.537960267000;     BAS[ATNO][  4].d[  4] =        -0.013647645136;
  BAS[ATNO][  4].a[  5] =        17.862907144000;     BAS[ATNO][  4].d[  5] =         0.063078660667;
  BAS[ATNO][  4].a[  6] =         8.454175481200;     BAS[ATNO][  4].d[  6] =        -0.123387083298;
  BAS[ATNO][  4].a[  7] =         5.281398130600;     BAS[ATNO][  4].d[  7] =        -0.068369137398;
  BAS[ATNO][  4].a[  8] =         2.319461863200;     BAS[ATNO][  4].d[  8] =         0.153462363586;
  BAS[ATNO][  4].a[  9] =         1.216751207600;     BAS[ATNO][  4].d[  9] =         0.421236414094;
  BAS[ATNO][  4].a[ 10] =        25.336266601000;     BAS[ATNO][  4].d[ 10] =         0.006709720002;
  BAS[ATNO][  4].a[ 11] =        12.477043309000;     BAS[ATNO][  4].d[ 11] =        -0.044117526642;
  BAS[ATNO][  4].a[ 12] =         3.072314274100;     BAS[ATNO][  4].d[ 12] =         0.159488687641;
  BAS[ATNO][  4].a[ 13] =         0.601747747000;     BAS[ATNO][  4].d[ 13] =        -0.239970895386;
  BAS[ATNO][  4].a[ 14] =         0.283239363500;     BAS[ATNO][  4].d[ 14] =        -2.990159646893;
  BAS[ATNO][  4].a[ 15] =         0.132217657300;     BAS[ATNO][  4].d[ 15] =         5.716087778412;
  BAS[ATNO][  4].a[ 16] =         0.060986719000;     BAS[ATNO][  4].d[ 16] =        -3.328319629166;

  // Basis function   6 L = s
  InitBFNGauss(BAS[ATNO][  5]);
  BAS[ATNO][  5].l  = 0;
  BAS[ATNO][  5].ng = 17;
  BAS[ATNO][  5].a[  0] =     12339.316554999999;     BAS[ATNO][  5].d[  0] =         0.000027050853;
  BAS[ATNO][  5].a[  1] =      1854.704327100000;     BAS[ATNO][  5].d[  1] =         0.000194412544;
  BAS[ATNO][  5].a[  2] =       418.444417720000;     BAS[ATNO][  5].d[  2] =         0.000783338653;
  BAS[ATNO][  5].a[  3] =        96.965111109000;     BAS[ATNO][  5].d[  3] =         0.002023139558;
  BAS[ATNO][  5].a[  4] =        28.537960267000;     BAS[ATNO][  5].d[  4] =        -0.042498204793;
  BAS[ATNO][  5].a[  5] =        17.862907144000;     BAS[ATNO][  5].d[  5] =         0.196424351036;
  BAS[ATNO][  5].a[  6] =         8.454175481200;     BAS[ATNO][  5].d[  6] =        -0.384222294938;
  BAS[ATNO][  5].a[  7] =         5.281398130600;     BAS[ATNO][  5].d[  7] =        -0.212898677657;
  BAS[ATNO][  5].a[  8] =         2.319461863200;     BAS[ATNO][  5].d[  8] =         0.477875478919;
  BAS[ATNO][  5].a[  9] =         1.216751207600;     BAS[ATNO][  5].d[  9] =         3.563239881678;
  BAS[ATNO][  5].a[ 10] =        25.336266601000;     BAS[ATNO][  5].d[ 10] =         0.006349942871;
  BAS[ATNO][  5].a[ 11] =        12.477043309000;     BAS[ATNO][  5].d[ 11] =        -0.041751932079;
  BAS[ATNO][  5].a[ 12] =         3.072314274100;     BAS[ATNO][  5].d[ 12] =         0.150936857993;
  BAS[ATNO][  5].a[ 13] =         0.601747747000;     BAS[ATNO][  5].d[ 13] =       -10.172824903711;
  BAS[ATNO][  5].a[ 14] =         0.283239363500;     BAS[ATNO][  5].d[ 14] =        12.138939838576;
  BAS[ATNO][  5].a[ 15] =         0.132217657300;     BAS[ATNO][  5].d[ 15] =        -7.843573946450;
  BAS[ATNO][  5].a[ 16] =         0.060986719000;     BAS[ATNO][  5].d[ 16] =         2.329260453829;

  // Basis function   7 L = s
  InitBFNGauss(BAS[ATNO][  6]);
  BAS[ATNO][  6].l  = 0;
  BAS[ATNO][  6].ng = 17;
  BAS[ATNO][  6].a[  0] =     12339.316554999999;     BAS[ATNO][  6].d[  0] =        -0.000009381829;
  BAS[ATNO][  6].a[  1] =      1854.704327100000;     BAS[ATNO][  6].d[  1] =        -0.000067426534;
  BAS[ATNO][  6].a[  2] =       418.444417720000;     BAS[ATNO][  6].d[  2] =        -0.000271679026;
  BAS[ATNO][  6].a[  3] =        96.965111109000;     BAS[ATNO][  6].d[  3] =        -0.000701669172;
  BAS[ATNO][  6].a[  4] =        28.537960267000;     BAS[ATNO][  6].d[  4] =         0.014739309520;
  BAS[ATNO][  6].a[  5] =        17.862907144000;     BAS[ATNO][  6].d[  5] =        -0.068124273046;
  BAS[ATNO][  6].a[  6] =         8.454175481200;     BAS[ATNO][  6].d[  6] =         0.133256718898;
  BAS[ATNO][  6].a[  7] =         5.281398130600;     BAS[ATNO][  6].d[  7] =         0.073837930844;
  BAS[ATNO][  6].a[  8] =         2.319461863200;     BAS[ATNO][  6].d[  8] =        -0.165737697166;
  BAS[ATNO][  6].a[  9] =         1.216751207600;     BAS[ATNO][  6].d[  9] =        -9.791522427755;
  BAS[ATNO][  6].a[ 10] =        25.336266601000;     BAS[ATNO][  6].d[ 10] =         0.211653564713;
  BAS[ATNO][  6].a[ 11] =        12.477043309000;     BAS[ATNO][  6].d[ 11] =        -1.391657442851;
  BAS[ATNO][  6].a[ 12] =         3.072314274100;     BAS[ATNO][  6].d[ 12] =         5.030962433787;
  BAS[ATNO][  6].a[ 13] =         0.601747747000;     BAS[ATNO][  6].d[ 13] =        10.906128424594;
  BAS[ATNO][  6].a[ 14] =         0.283239363500;     BAS[ATNO][  6].d[ 14] =        -7.367668361919;
  BAS[ATNO][  6].a[ 15] =         0.132217657300;     BAS[ATNO][  6].d[ 15] =         3.516276550497;
  BAS[ATNO][  6].a[ 16] =         0.060986719000;     BAS[ATNO][  6].d[ 16] =        -0.931432067621;

  // Basis function   8 L = p
  InitBFNGauss(BAS[ATNO][  7]);
  BAS[ATNO][  7].l  = 1;
  BAS[ATNO][  7].ng = 31;
  BAS[ATNO][  7].a[  0] =       162.893000000000;     BAS[ATNO][  7].d[  0] =        -0.000117249415;
  BAS[ATNO][  7].a[  1] =        30.399600000000;     BAS[ATNO][  7].d[  1] =         0.001500167167;
  BAS[ATNO][  7].a[  2] =        19.000400000000;     BAS[ATNO][  7].d[  2] =        -0.017112473790;
  BAS[ATNO][  7].a[  3] =         9.322560000000;     BAS[ATNO][  7].d[  3] =         0.079818398355;
  BAS[ATNO][  7].a[  4] =         3.016680000000;     BAS[ATNO][  7].d[  4] =        -0.107987335572;
  BAS[ATNO][  7].a[  5] =         1.862190000000;     BAS[ATNO][  7].d[  5] =        -0.126577151966;
  BAS[ATNO][  7].a[  6] =         1.103310000000;     BAS[ATNO][  7].d[  6] =        -0.101904435962;
  BAS[ATNO][  7].a[  7] =       162.893000000000;     BAS[ATNO][  7].d[  7] =        -0.000193790421;
  BAS[ATNO][  7].a[  8] =        30.399600000000;     BAS[ATNO][  7].d[  8] =         0.002479483804;
  BAS[ATNO][  7].a[  9] =        19.000400000000;     BAS[ATNO][  7].d[  9] =        -0.028283582356;
  BAS[ATNO][  7].a[ 10] =         9.322560000000;     BAS[ATNO][  7].d[ 10] =         0.131924248423;
  BAS[ATNO][  7].a[ 11] =         3.016680000000;     BAS[ATNO][  7].d[ 11] =        -0.178482008888;
  BAS[ATNO][  7].a[ 12] =         1.862190000000;     BAS[ATNO][  7].d[ 12] =        -0.209207350497;
  BAS[ATNO][  7].a[ 13] =         1.103310000000;     BAS[ATNO][  7].d[ 13] =        -0.168428161958;
  BAS[ATNO][  7].a[ 14] =       162.893000000000;     BAS[ATNO][  7].d[ 14] =         0.000041070228;
  BAS[ATNO][  7].a[ 15] =        30.399600000000;     BAS[ATNO][  7].d[ 15] =        -0.000525479870;
  BAS[ATNO][  7].a[ 16] =        19.000400000000;     BAS[ATNO][  7].d[ 16] =         0.005994172314;
  BAS[ATNO][  7].a[ 17] =         9.322560000000;     BAS[ATNO][  7].d[ 17] =        -0.027958858515;
  BAS[ATNO][  7].a[ 18] =         3.016680000000;     BAS[ATNO][  7].d[ 18] =         0.037825898526;
  BAS[ATNO][  7].a[ 19] =         1.862190000000;     BAS[ATNO][  7].d[ 19] =         0.044337555701;
  BAS[ATNO][  7].a[ 20] =         1.103310000000;     BAS[ATNO][  7].d[ 20] =         0.035695175120;
  BAS[ATNO][  7].a[ 21] =        12.665326113000;     BAS[ATNO][  7].d[ 21] =         0.005064969420;
  BAS[ATNO][  7].a[ 22] =         3.347344287900;     BAS[ATNO][  7].d[ 22] =        -0.065783870812;
  BAS[ATNO][  7].a[ 23] =         1.172215897100;     BAS[ATNO][  7].d[ 23] =        -0.177662498421;
  BAS[ATNO][  7].a[ 24] =        12.665326113000;     BAS[ATNO][  7].d[ 24] =         0.008371406816;
  BAS[ATNO][  7].a[ 25] =         3.347344287900;     BAS[ATNO][  7].d[ 25] =        -0.108727911034;
  BAS[ATNO][  7].a[ 26] =         1.172215897100;     BAS[ATNO][  7].d[ 26] =        -0.293641466883;
  BAS[ATNO][  7].a[ 27] =        12.665326113000;     BAS[ATNO][  7].d[ 27] =        -0.001774161926;
  BAS[ATNO][  7].a[ 28] =         3.347344287900;     BAS[ATNO][  7].d[ 28] =         0.023042831910;
  BAS[ATNO][  7].a[ 29] =         1.172215897100;     BAS[ATNO][  7].d[ 29] =         0.062231775620;
  BAS[ATNO][  7].a[ 30] =         0.588867454800;     BAS[ATNO][  7].d[ 30] =         0.705369582313;

  // Basis function   9 L = p
  InitBFNGauss(BAS[ATNO][  8]);
  BAS[ATNO][  8].l  = 1;
  BAS[ATNO][  8].ng = 31;
  BAS[ATNO][  8].a[  0] =       162.893000000000;     BAS[ATNO][  8].d[  0] =        -0.000024397505;
  BAS[ATNO][  8].a[  1] =        30.399600000000;     BAS[ATNO][  8].d[  1] =         0.000312157941;
  BAS[ATNO][  8].a[  2] =        19.000400000000;     BAS[ATNO][  8].d[  2] =        -0.003560799555;
  BAS[ATNO][  8].a[  3] =         9.322560000000;     BAS[ATNO][  8].d[  3] =         0.016608780288;
  BAS[ATNO][  8].a[  4] =         3.016680000000;     BAS[ATNO][  8].d[  4] =        -0.022470232020;
  BAS[ATNO][  8].a[  5] =         1.862190000000;     BAS[ATNO][  8].d[  5] =        -0.026338440133;
  BAS[ATNO][  8].a[  6] =         1.103310000000;     BAS[ATNO][  8].d[  6] =        -0.021204489469;
  BAS[ATNO][  8].a[  7] =       162.893000000000;     BAS[ATNO][  8].d[  7] =        -0.000004870327;
  BAS[ATNO][  8].a[  8] =        30.399600000000;     BAS[ATNO][  8].d[  8] =         0.000062314214;
  BAS[ATNO][  8].a[  9] =        19.000400000000;     BAS[ATNO][  8].d[  9] =        -0.000710821019;
  BAS[ATNO][  8].a[ 10] =         9.322560000000;     BAS[ATNO][  8].d[ 10] =         0.003315511011;
  BAS[ATNO][  8].a[ 11] =         3.016680000000;     BAS[ATNO][  8].d[ 11] =        -0.004485597399;
  BAS[ATNO][  8].a[ 12] =         1.862190000000;     BAS[ATNO][  8].d[ 12] =        -0.005257784542;
  BAS[ATNO][  8].a[ 13] =         1.103310000000;     BAS[ATNO][  8].d[ 13] =        -0.004232924820;
  BAS[ATNO][  8].a[ 14] =       162.893000000000;     BAS[ATNO][  8].d[ 14] =        -0.000092631967;
  BAS[ATNO][  8].a[ 15] =        30.399600000000;     BAS[ATNO][  8].d[ 15] =         0.001185195122;
  BAS[ATNO][  8].a[ 16] =        19.000400000000;     BAS[ATNO][  8].d[ 16] =        -0.013519573622;
  BAS[ATNO][  8].a[ 17] =         9.322560000000;     BAS[ATNO][  8].d[ 17] =         0.063059889893;
  BAS[ATNO][  8].a[ 18] =         3.016680000000;     BAS[ATNO][  8].d[ 18] =        -0.085314534385;
  BAS[ATNO][  8].a[ 19] =         1.862190000000;     BAS[ATNO][  8].d[ 19] =        -0.100001270765;
  BAS[ATNO][  8].a[ 20] =         1.103310000000;     BAS[ATNO][  8].d[ 20] =        -0.080508787997;
  BAS[ATNO][  8].a[ 21] =        12.665326113000;     BAS[ATNO][  8].d[ 21] =         0.001374774601;
  BAS[ATNO][  8].a[ 22] =         3.347344287900;     BAS[ATNO][  8].d[ 22] =        -0.017855585545;
  BAS[ATNO][  8].a[ 23] =         1.172215897100;     BAS[ATNO][  8].d[ 23] =        -0.048222579479;
  BAS[ATNO][  8].a[ 24] =        12.665326113000;     BAS[ATNO][  8].d[ 24] =         0.000274437993;
  BAS[ATNO][  8].a[ 25] =         3.347344287900;     BAS[ATNO][  8].d[ 25] =        -0.003564403252;
  BAS[ATNO][  8].a[ 26] =         1.172215897100;     BAS[ATNO][  8].d[ 26] =        -0.009626383783;
  BAS[ATNO][  8].a[ 27] =        12.665326113000;     BAS[ATNO][  8].d[ 27] =         0.005219717130;
  BAS[ATNO][  8].a[ 28] =         3.347344287900;     BAS[ATNO][  8].d[ 28] =        -0.067793735534;
  BAS[ATNO][  8].a[ 29] =         1.172215897100;     BAS[ATNO][  8].d[ 29] =        -0.183090540032;
  BAS[ATNO][  8].a[ 30] =         0.588867454800;     BAS[ATNO][  8].d[ 30] =         0.233695348221;

  // Basis function  10 L = p
  InitBFNGauss(BAS[ATNO][  9]);
  BAS[ATNO][  9].l  = 1;
  BAS[ATNO][  9].ng = 31;
  BAS[ATNO][  9].a[  0] =       162.893000000000;     BAS[ATNO][  9].d[  0] =        -0.000032008308;
  BAS[ATNO][  9].a[  1] =        30.399600000000;     BAS[ATNO][  9].d[  1] =         0.000409535629;
  BAS[ATNO][  9].a[  2] =        19.000400000000;     BAS[ATNO][  9].d[  2] =        -0.004671591186;
  BAS[ATNO][  9].a[  3] =         9.322560000000;     BAS[ATNO][  9].d[  3] =         0.021789890276;
  BAS[ATNO][  9].a[  4] =         3.016680000000;     BAS[ATNO][  9].d[  4] =        -0.029479822219;
  BAS[ATNO][  9].a[  5] =         1.862190000000;     BAS[ATNO][  9].d[  5] =        -0.034554718080;
  BAS[ATNO][  9].a[  6] =         1.103310000000;     BAS[ATNO][  9].d[  6] =        -0.027819231205;
  BAS[ATNO][  9].a[  7] =       162.893000000000;     BAS[ATNO][  9].d[  7] =        -0.000052903492;
  BAS[ATNO][  9].a[  8] =        30.399600000000;     BAS[ATNO][  9].d[  8] =         0.000676882538;
  BAS[ATNO][  9].a[  9] =        19.000400000000;     BAS[ATNO][  9].d[  9] =        -0.007721229301;
  BAS[ATNO][  9].a[ 10] =         9.322560000000;     BAS[ATNO][  9].d[ 10] =         0.036014439742;
  BAS[ATNO][  9].a[ 11] =         3.016680000000;     BAS[ATNO][  9].d[ 11] =        -0.048724397758;
  BAS[ATNO][  9].a[ 12] =         1.862190000000;     BAS[ATNO][  9].d[ 12] =        -0.057112211046;
  BAS[ATNO][  9].a[ 13] =         1.103310000000;     BAS[ATNO][  9].d[ 13] =        -0.045979764616;
  BAS[ATNO][  9].a[ 14] =       162.893000000000;     BAS[ATNO][  9].d[ 14] =         0.000011211898;
  BAS[ATNO][  9].a[ 15] =        30.399600000000;     BAS[ATNO][  9].d[ 15] =        -0.000143452499;
  BAS[ATNO][  9].a[ 16] =        19.000400000000;     BAS[ATNO][  9].d[ 16] =         0.001636369054;
  BAS[ATNO][  9].a[ 17] =         9.322560000000;     BAS[ATNO][  9].d[ 17] =        -0.007632581859;
  BAS[ATNO][  9].a[ 18] =         3.016680000000;     BAS[ATNO][  9].d[ 18] =         0.010326217958;
  BAS[ATNO][  9].a[ 19] =         1.862190000000;     BAS[ATNO][  9].d[ 19] =         0.012103856927;
  BAS[ATNO][  9].a[ 20] =         1.103310000000;     BAS[ATNO][  9].d[ 20] =         0.009744544682;
  BAS[ATNO][  9].a[ 21] =        12.665326113000;     BAS[ATNO][  9].d[ 21] =         0.001693032147;
  BAS[ATNO][  9].a[ 22] =         3.347344287900;     BAS[ATNO][  9].d[ 22] =        -0.021989117570;
  BAS[ATNO][  9].a[ 23] =         1.172215897100;     BAS[ATNO][  9].d[ 23] =        -0.059386009327;
  BAS[ATNO][  9].a[ 24] =        12.665326113000;     BAS[ATNO][  9].d[ 24] =         0.002798252010;
  BAS[ATNO][  9].a[ 25] =         3.347344287900;     BAS[ATNO][  9].d[ 25] =        -0.036343723612;
  BAS[ATNO][  9].a[ 26] =         1.172215897100;     BAS[ATNO][  9].d[ 26] =        -0.098153493540;
  BAS[ATNO][  9].a[ 27] =        12.665326113000;     BAS[ATNO][  9].d[ 27] =        -0.000593036784;
  BAS[ATNO][  9].a[ 28] =         3.347344287900;     BAS[ATNO][  9].d[ 28] =         0.007702367370;
  BAS[ATNO][  9].a[ 29] =         1.172215897100;     BAS[ATNO][  9].d[ 29] =         0.020801783383;
  BAS[ATNO][  9].a[ 30] =         0.588867454800;     BAS[ATNO][  9].d[ 30] =         0.242884832509;

  // Basis function  11 L = p
  InitBFNGauss(BAS[ATNO][ 10]);
  BAS[ATNO][ 10].l  = 1;
  BAS[ATNO][ 10].ng = 31;
  BAS[ATNO][ 10].a[  0] =       162.893000000000;     BAS[ATNO][ 10].d[  0] =        -0.000097263764;
  BAS[ATNO][ 10].a[  1] =        30.399600000000;     BAS[ATNO][ 10].d[  1] =         0.001244457417;
  BAS[ATNO][ 10].a[  2] =        19.000400000000;     BAS[ATNO][ 10].d[  2] =        -0.014195581269;
  BAS[ATNO][ 10].a[  3] =         9.322560000000;     BAS[ATNO][ 10].d[  3] =         0.066213019493;
  BAS[ATNO][ 10].a[  4] =         3.016680000000;     BAS[ATNO][ 10].d[  4] =        -0.089580443890;
  BAS[ATNO][ 10].a[  5] =         1.862190000000;     BAS[ATNO][ 10].d[  5] =        -0.105001548556;
  BAS[ATNO][ 10].a[  6] =         1.103310000000;     BAS[ATNO][ 10].d[  6] =        -0.084534399886;
  BAS[ATNO][ 10].a[  7] =       162.893000000000;     BAS[ATNO][ 10].d[  7] =        -0.000160758035;
  BAS[ATNO][ 10].a[  8] =        30.399600000000;     BAS[ATNO][ 10].d[  8] =         0.002056845450;
  BAS[ATNO][ 10].a[  9] =        19.000400000000;     BAS[ATNO][ 10].d[  9] =        -0.023462527794;
  BAS[ATNO][ 10].a[ 10] =         9.322560000000;     BAS[ATNO][ 10].d[ 10] =         0.109437210122;
  BAS[ATNO][ 10].a[ 11] =         3.016680000000;     BAS[ATNO][ 10].d[ 11] =        -0.148059006159;
  BAS[ATNO][ 10].a[ 12] =         1.862190000000;     BAS[ATNO][ 10].d[ 12] =        -0.173547085158;
  BAS[ATNO][ 10].a[ 13] =         1.103310000000;     BAS[ATNO][ 10].d[ 13] =        -0.139718879365;
  BAS[ATNO][ 10].a[ 14] =       162.893000000000;     BAS[ATNO][ 10].d[ 14] =         0.000034069636;
  BAS[ATNO][ 10].a[ 15] =        30.399600000000;     BAS[ATNO][ 10].d[ 15] =        -0.000435909634;
  BAS[ATNO][ 10].a[ 16] =        19.000400000000;     BAS[ATNO][ 10].d[ 16] =         0.004972440645;
  BAS[ATNO][ 10].a[ 17] =         9.322560000000;     BAS[ATNO][ 10].d[ 17] =        -0.023193154485;
  BAS[ATNO][ 10].a[ 18] =         3.016680000000;     BAS[ATNO][ 10].d[ 18] =         0.031378316378;
  BAS[ATNO][ 10].a[ 19] =         1.862190000000;     BAS[ATNO][ 10].d[ 19] =         0.036780034432;
  BAS[ATNO][ 10].a[ 20] =         1.103310000000;     BAS[ATNO][ 10].d[ 20] =         0.029610783663;
  BAS[ATNO][ 10].a[ 21] =        12.665326113000;     BAS[ATNO][ 10].d[ 21] =         0.007209425300;
  BAS[ATNO][ 10].a[ 22] =         3.347344287900;     BAS[ATNO][ 10].d[ 22] =        -0.093636084104;
  BAS[ATNO][ 10].a[ 23] =         1.172215897100;     BAS[ATNO][ 10].d[ 23] =        -0.252882970232;
  BAS[ATNO][ 10].a[ 24] =        12.665326113000;     BAS[ATNO][ 10].d[ 24] =         0.011915774231;
  BAS[ATNO][ 10].a[ 25] =         3.347344287900;     BAS[ATNO][ 10].d[ 25] =        -0.154762188609;
  BAS[ATNO][ 10].a[ 26] =         1.172215897100;     BAS[ATNO][ 10].d[ 26] =        -0.417966239295;
  BAS[ATNO][ 10].a[ 27] =        12.665326113000;     BAS[ATNO][ 10].d[ 27] =        -0.002525323811;
  BAS[ATNO][ 10].a[ 28] =         3.347344287900;     BAS[ATNO][ 10].d[ 28] =         0.032798929586;
  BAS[ATNO][ 10].a[ 29] =         1.172215897100;     BAS[ATNO][ 10].d[ 29] =         0.088580068394;
  BAS[ATNO][ 10].a[ 30] =         0.588867454800;     BAS[ATNO][ 10].d[ 30] =         1.688410943903;

  // Basis function  12 L = p
  InitBFNGauss(BAS[ATNO][ 11]);
  BAS[ATNO][ 11].l  = 1;
  BAS[ATNO][ 11].ng = 31;
  BAS[ATNO][ 11].a[  0] =       162.893000000000;     BAS[ATNO][ 11].d[  0] =        -0.001328998070;
  BAS[ATNO][ 11].a[  1] =        30.399600000000;     BAS[ATNO][ 11].d[  1] =         0.017004087092;
  BAS[ATNO][ 11].a[  2] =        19.000400000000;     BAS[ATNO][ 11].d[  2] =        -0.193966379961;
  BAS[ATNO][ 11].a[  3] =         9.322560000000;     BAS[ATNO][ 11].d[  3] =         0.904725171431;
  BAS[ATNO][ 11].a[  4] =         3.016680000000;     BAS[ATNO][ 11].d[  4] =        -1.224014296225;
  BAS[ATNO][ 11].a[  5] =         1.862190000000;     BAS[ATNO][ 11].d[  5] =        -1.434726051544;
  BAS[ATNO][ 11].a[  6] =         1.103310000000;     BAS[ATNO][ 11].d[  6] =        -1.155065876992;
  BAS[ATNO][ 11].a[  7] =       162.893000000000;     BAS[ATNO][ 11].d[  7] =        -0.002196574661;
  BAS[ATNO][ 11].a[  8] =        30.399600000000;     BAS[ATNO][ 11].d[  8] =         0.028104440229;
  BAS[ATNO][ 11].a[  9] =        19.000400000000;     BAS[ATNO][ 11].d[  9] =        -0.320588603351;
  BAS[ATNO][ 11].a[ 10] =         9.322560000000;     BAS[ATNO][ 11].d[ 10] =         1.495334290328;
  BAS[ATNO][ 11].a[ 11] =         3.016680000000;     BAS[ATNO][ 11].d[ 11] =        -2.023056953419;
  BAS[ATNO][ 11].a[ 12] =         1.862190000000;     BAS[ATNO][ 11].d[ 12] =        -2.371322396951;
  BAS[ATNO][ 11].a[ 13] =         1.103310000000;     BAS[ATNO][ 11].d[ 13] =        -1.909098661112;
  BAS[ATNO][ 11].a[ 14] =       162.893000000000;     BAS[ATNO][ 11].d[ 14] =         0.000465522602;
  BAS[ATNO][ 11].a[ 15] =        30.399600000000;     BAS[ATNO][ 11].d[ 15] =        -0.005956206439;
  BAS[ATNO][ 11].a[ 16] =        19.000400000000;     BAS[ATNO][ 11].d[ 16] =         0.067942712534;
  BAS[ATNO][ 11].a[ 17] =         9.322560000000;     BAS[ATNO][ 11].d[ 17] =        -0.316907921141;
  BAS[ATNO][ 11].a[ 18] =         3.016680000000;     BAS[ATNO][ 11].d[ 18] =         0.428748793901;
  BAS[ATNO][ 11].a[ 19] =         1.862190000000;     BAS[ATNO][ 11].d[ 19] =         0.502557091102;
  BAS[ATNO][ 11].a[ 20] =         1.103310000000;     BAS[ATNO][ 11].d[ 20] =         0.404597481552;
  BAS[ATNO][ 11].a[ 21] =        12.665326113000;     BAS[ATNO][ 11].d[ 21] =        -0.084807852730;
  BAS[ATNO][ 11].a[ 22] =         3.347344287900;     BAS[ATNO][ 11].d[ 22] =         1.101485194735;
  BAS[ATNO][ 11].a[ 23] =         1.172215897100;     BAS[ATNO][ 11].d[ 23] =         2.974781040635;
  BAS[ATNO][ 11].a[ 24] =        12.665326113000;     BAS[ATNO][ 11].d[ 24] =        -0.140170843346;
  BAS[ATNO][ 11].a[ 25] =         3.347344287900;     BAS[ATNO][ 11].d[ 25] =         1.820540241375;
  BAS[ATNO][ 11].a[ 26] =         1.172215897100;     BAS[ATNO][ 11].d[ 26] =         4.916732988916;
  BAS[ATNO][ 11].a[ 27] =        12.665326113000;     BAS[ATNO][ 11].d[ 27] =         0.029706568529;
  BAS[ATNO][ 11].a[ 28] =         3.347344287900;     BAS[ATNO][ 11].d[ 28] =        -0.385829193498;
  BAS[ATNO][ 11].a[ 29] =         1.172215897100;     BAS[ATNO][ 11].d[ 29] =        -1.042008894198;
  BAS[ATNO][ 11].a[ 30] =         0.588867454800;     BAS[ATNO][ 11].d[ 30] =        -0.774549651834;

-------------------------------------------
RADIAL EXPECTATION VALUES <R**-3> TO <R**3>
-------------------------------------------
   0 :     0.000000     2.228365     1.423213     0.763419     0.631042     0.564768
   1 :     3.250544     1.977797     1.341481     0.813709     0.722021     0.714916
   2 :     3.251447     1.978167     1.341614     0.813618     0.721869     0.714875
   3 :     3.252301     1.978520     1.341740     0.813530     0.721710     0.714704
   4 :     0.000000     0.749232     0.757475     1.545646     2.635789     4.846410
   5 :     0.753073     0.595290     0.678076     1.714557     3.238276     6.644293
   6 :     0.754786     0.596288     0.678666     1.713141     3.233658     6.636574
   7 :     0.000000     0.189532     0.353741     3.391510    12.761824    52.153715
   8 :     0.000000     0.108427     0.252179     4.947352    27.200912   159.259509
   9 :     0.000000     0.410110     0.485046     3.041297    12.181611    59.637424
  10 :     0.000000     3.598682     1.470055     1.189159     2.687664    10.135374
  11 :     0.758952     0.598770     0.680183     1.708750     3.215145     6.570668
  12 :     0.124099     0.134989     0.301081     3.968149    17.560207    85.077316
  13 :     0.129837     0.139522     0.305896     3.903870    16.956861    80.422799
  14 :     0.128860     0.137569     0.302125     3.984120    17.781888    87.167200
  15 :     0.067617     0.078613     0.216995     5.778767    37.396797   258.786880
  16 :     0.053048     0.067369     0.205199     5.937065    38.914512   270.893697
  17 :     0.057083     0.070992     0.209687     5.868883    38.265488   265.858705
  18 :     0.429046     0.321254     0.430080     3.421939    15.403425    85.370442
  19 :     0.413230     0.310701     0.421358     3.501488    16.100879    90.740592
  20 :     0.423760     0.318137     0.428083     3.431823    15.472575    85.825071
  21 :    40.856171     9.741074     2.837820     0.465816     0.365306     0.662126
  22 :    40.855780     9.740968     2.837794     0.465823     0.365311     0.662152
  23 :    40.855525     9.740899     2.837778     0.465824     0.365277     0.661808
  24 :     0.000000    30.225223     4.385301     0.415875     0.544916     1.876275
Making the total density                ... o.k.
o.k.
Initializing the integrals              ... done
Making exponents                        ... done
Making rho(0)                           ... done (         0.173983626)
Integral calculation                    ... Two index integrals                     ... done
Solving the equation system             ... done
atomic density will be written to file 51_Sb_atom51.adf

-------
TIMINGS
-------

Total SCF time: 0 days 0 hours 0 min 0 sec 

Total time                  ....       0.803 sec
Sum of individual times     ....       0.378 sec  ( 47.1%)

Fock matrix formation       ....       0.268 sec  ( 33.4%)
Diagonalization             ....       0.046 sec  (  5.7%)
Density matrix formation    ....       0.001 sec  (  0.1%)
Population analysis         ....       0.000 sec  (  0.0%)
Initial guess               ....       0.000 sec  (  0.0%)
Orbital Transformation      ....       0.000 sec  (  0.0%)
Orbital Orthonormalization  ....       0.000 sec  (  0.0%)
DIIS solution               ....       0.064 sec  (  7.9%)

-------------------------   --------------------
FINAL SINGLE POINT ENERGY      -211.738292697828
-------------------------   --------------------


                            ***************************************
                            *     ORCA property calculations      *
                            ***************************************

                                    ---------------------
                                    Active property flags
                                    ---------------------
   (+) Dipole Moment


------------------------------------------------------------------------------
                       ORCA ELECTRIC PROPERTIES CALCULATION
------------------------------------------------------------------------------

Dipole Moment Calculation                       ... on
Quadrupole Moment Calculation                   ... off
Polarizability Calculation                      ... off
GBWName                                         ... 51_Sb_atom51.gbw
Electron density file                           ... 51_Sb_atom51.scfp
The origin for moment calculation is the CENTER OF MASS  = ( 0.000000,  0.000000  0.000000)

-------------
DIPOLE MOMENT
-------------
                                X             Y             Z
Electronic contribution:     -0.00000       0.00000       0.00000
Nuclear contribution   :      0.00000       0.00000       0.00000
                        -----------------------------------------
Total Dipole Moment    :     -0.00000       0.00000       0.00000
                        -----------------------------------------
Magnitude (a.u.)       :      0.00000
Magnitude (Debye)      :      0.00000



--------------------
Rotational spectrum 
--------------------
 
Rotational constants in cm-1:     0.000000     0.000000     0.000000 
Rotational constants in MHz :     0.000000     0.000000     0.000000 

 Dipole components along the rotational axes: 
x,y,z [a.u.] :    -0.000000     0.000000     0.000000 
x,y,z [Debye]:    -0.000000     0.000000     0.000000 

 

Timings for individual modules:

Sum of individual times         ...        1.057 sec (=   0.018 min)
GTO integral calculation        ...        0.238 sec (=   0.004 min)  22.5 %
SCF iterations                  ...        0.819 sec (=   0.014 min)  77.5 %
                             ****ORCA TERMINATED NORMALLY****
TOTAL RUN TIME: 0 days 0 hours 0 minutes 1 seconds 277 msec
