
                                 *****************
                                 * O   R   C   A *
                                 *****************

           --- An Ab Initio, DFT and Semiempirical electronic structure package ---

                  #######################################################
                  #                        -***-                        #
                  #          Department of theory and spectroscopy      #
                  #               Directorship: Frank Neese             #
                  #        Max Planck Institute fuer Kohlenforschung    #
                  #                Kaiser Wilhelm Platz 1               #
                  #                 D-45470 Muelheim/Ruhr               #
                  #                      Germany                        #
                  #                                                     #
                  #                  All rights reserved                #
                  #                        -***-                        #
                  #######################################################


                         Program Version 4.2.0 -  RELEASE  -


 With contributions from (in alphabetic order):
   Daniel Aravena         : Magnetic Suceptibility
   Michael Atanasov       : Ab Initio Ligand Field Theory (pilot matlab implementation)
   Alexander A. Auer      : GIAO ZORA, VPT2
   Ute Becker             : Parallelization
   Giovanni Bistoni       : ED, misc. LED, open-shell LED, HFLED
   Martin Brehm           : Molecular dynamics
   Dmytro Bykov           : SCF Hessian
   Vijay G. Chilkuri      : MRCI spin determinant printing, contributions to CSF-ICE
   Dipayan Datta          : RHF DLPNO-CCSD density
   Achintya Kumar Dutta   : EOM-CC, STEOM-CC
   Dmitry Ganyushin       : Spin-Orbit,Spin-Spin,Magnetic field MRCI
   Miquel Garcia          : C-PCM Hessian, Gaussian charge scheme
   Yang Guo               : DLPNO-NEVPT2, CIM, IAO-localization
   Andreas Hansen         : Spin unrestricted coupled pair/coupled cluster methods
   Benjamin Helmich-Paris : CASSCF linear response (MC-RPA)
   Lee Huntington         : MR-EOM, pCC
   Robert Izsak           : Overlap fitted RIJCOSX, COSX-SCS-MP3, EOM
   Christian Kollmar      : KDIIS, OOCD, Brueckner-CCSD(T), CCSD density
   Simone Kossmann        : Meta GGA functionals, TD-DFT gradient, OOMP2, MP2 Hessian
   Martin Krupicka        : AUTO-CI
   Lucas Lang             : DCDCAS
   Dagmar Lenk            : GEPOL surface, SMD
   Dimitrios Liakos       : Extrapolation schemes; Compound Job, initial MDCI parallelization
   Dimitrios Manganas     : Further ROCIS development; embedding schemes
   Dimitrios Pantazis     : SARC Basis sets
   Taras Petrenko         : DFT Hessian,TD-DFT gradient, ASA, ECA, R-Raman, ABS, FL, XAS/XES, NRVS
   Peter Pinski           : DLPNO-MP2, DLPNO-MP2 Gradient
   Christoph Reimann      : Effective Core Potentials
   Marius Retegan         : Local ZFS, SOC
   Christoph Riplinger    : Optimizer, TS searches, QM/MM, DLPNO-CCSD(T), (RO)-DLPNO pert. Triples
   Tobias Risthaus        : Range-separated hybrids, TD-DFT gradient, RPA, STAB
   Michael Roemelt        : Original ROCIS implementation
   Masaaki Saitow         : Open-shell DLPNO-CCSD energy and density
   Barbara Sandhoefer     : DKH picture change effects
   Avijit Sen             : IP-ROCIS
   Kantharuban Sivalingam : CASSCF convergence, NEVPT2, FIC-MRCI
   Bernardo de Souza      : ESD, SOC TD-DFT
   Georgi Stoychev        : AutoAux, RI-MP2 NMR
   Willem Van den Heuvel  : Paramagnetic NMR
   Boris Wezisla          : Elementary symmetry handling
   Frank Wennmohs         : Technical directorship


 We gratefully acknowledge several colleagues who have allowed us to
 interface, adapt or use parts of their codes:
   Stefan Grimme, W. Hujo, H. Kruse,             : VdW corrections, initial TS optimization,
                  C. Bannwarth                     DFT functionals, gCP, sTDA/sTD-DF
   Ed Valeev, F. Pavosevic, A. Kumar             : LibInt (2-el integral package), F12 methods
   Garnet Chan, S. Sharma, J. Yang, R. Olivares  : DMRG
   Ulf Ekstrom                                   : XCFun DFT Library
   Mihaly Kallay                                 : mrcc  (arbitrary order and MRCC methods)
   Andreas Klamt, Michael Diedenhofen            : otool_cosmo (COSMO solvation model)
   Jiri Pittner, Ondrej Demel                    : Mk-CCSD
   Frank Weinhold                                : gennbo (NPA and NBO analysis)
   Christopher J. Cramer and Donald G. Truhlar   : smd solvation model
   Lars Goerigk                                  : TD-DFT with DH, B97 family of functionals
   V. Asgeirsson, H. Jonsson                     : NEB implementation
   FAccTs GmbH                                   : IRC, NEB, NEB-TS, Multilevel, MM, QM/MM, CI optimization
   S Lehtola, MJT Oliveira, MAL Marques          : LibXC Library


 Your calculation uses the libint2 library for the computation of 2-el integrals
 For citations please refer to: http://libint.valeyev.net

 Your ORCA version has been built with support for libXC version: 4.2.3
 For citations please refer to: https://tddft.org/programs/libxc/

 This ORCA versions uses:
   CBLAS   interface :  Fast vector & matrix operations
   LAPACKE interface :  Fast linear algebra routines
   SCALAPACK package :  Parallel linear algebra routines


----- Orbital basis set information -----
Your calculation utilizes the basis: def2-SVP
   F. Weigend and R. Ahlrichs, Phys. Chem. Chem. Phys. 7, 3297 (2005).

----- AuxJ basis set information -----
Your calculation utilizes the auxiliary basis: def2/J
   F. Weigend, Phys. Chem. Chem. Phys. 8, 1057 (2006).

================================================================================
                                        WARNINGS
                       Please study these warnings very carefully!
================================================================================


INFO   : the flag for use of LIBINT has been found!

================================================================================
                                       INPUT FILE
================================================================================
NAME = 52_Te_atom52.inp
|  1> # input to generate an atomic fitting density for Te
|  2> # this file is use internally by ORCA
|  3> #
|  4> # atomic ground state (S=3): 1s2 2s2 2p6 3s2 3p6 4s2 3d10 4p6 5s2 4d10 5p4 
|  5> #
|  6> ! RHF AllowRHF def2-SVP def2/J  NoMulliken NoLoewdin NoMayer NoPrintMOs 
|  7> 
|  8> %output print[p_atomdensfit] 2 end
|  9> 
| 10> %scf
| 11>   guess hcore
| 12>   maxiter 1000
| 13>   maxdisk 500000
| 14>   SCFMode Conventional
| 15>   lshift 1.000000
| 16>   hftyp rohf
| 17>   rohf_case sahf
| 18>   rohf_numop   2
| 19>   rohf_norb[1] 3
| 20>   rohf_nel[1]  4
| 21> end
| 22> 
| 23> %basis
| 24>   NewECP 52
| 25>     N_core 28
| 26>     lmax f
| 27>     s 4
| 28>       1      16.8144730000    281.0458430000  2
| 29>       2       8.7935260000     61.6206560000  2
| 30>       3      15.2061680000     15.7454500000  2
| 31>       4      15.2017020000     20.7424480000  2
| 32>     p 6
| 33>       1      14.8778010000     67.4494640000  2
| 34>       2      14.2697310000    134.9043040000  2
| 35>       3       8.7244350000     14.6895470000  2
| 36>       4       8.2915150000     29.4150630000  2
| 37>       5      15.2061680000     15.7454500000  2
| 38>       6      15.2017020000     20.7424480000  2
| 39>     d 6
| 40>       1      15.2050080000     35.4320570000  2
| 41>       2      15.2258480000     53.1356870000  2
| 42>       3       6.0717690000      9.0698020000  2
| 43>       4       5.8047600000     13.1223040000  2
| 44>       5      15.2061680000     15.7454500000  2
| 45>       6      15.2017020000     20.7424480000  2
| 46>     f 2
| 47>       1      15.2061680000    -15.7454500000  2
| 48>       2      15.2017020000    -20.7424480000  2
| 49>   end
| 50>   NewGTO 52
| 51>     s 9 
| 52>      1   15746.3000000000      0.0001435055
| 53>      2    2369.2500000000      0.0010576887
| 54>      3     535.8600000000      0.0044167804
| 55>      4     141.8850000000      0.0096627038
| 56>      5      27.8197000000     -0.1552702952
| 57>      6      17.3879000000      0.9740303047
| 58>      7      10.8656000000     -1.0565964608
| 59>      8       6.5688500000     -1.3797123853
| 60>      9       2.4013900000      1.8274415778
| 61>     s 1 
| 62>      1       1.2865441585      1.0000000000
| 63>     s 3 
| 64>      1      29.3832530230      0.0651233222
| 65>      2      15.9464080030     -0.2951275416
| 66>      3       3.6679902632      1.1575836936
| 67>     s 1 
| 68>      1       0.6353359469      1.0000000000
| 69>     s 1 
| 70>      1       0.2980778621      1.0000000000
| 71>     s 1 
| 72>      1       0.1406124869      1.0000000000
| 73>     s 1 
| 74>      1       0.0656606559      1.0000000000
| 75>     p 7 
| 76>      1     750.2220000000      0.0000598114
| 77>      2     163.9610000000      0.0004715901
| 78>      3      16.9227000000      0.0959133768
| 79>      4      10.5755000000     -0.3085027477
| 80>      5       5.7046200000     -0.0263768400
| 81>      6       2.9802200000      0.5699891117
| 82>      7       1.5197000000      0.5918133818
| 83>     p 3 
| 84>      1      13.9254572580     -0.0237704969
| 85>      2       4.2323766654      0.2499275232
| 86>      3       1.4547630727      0.8154746457
| 87>     p 1 
| 88>      1       0.7552878369      1.0000000000
| 89>     p 1 
| 90>      1       0.3182945117      1.0000000000
| 91>     p 1 
| 92>      1       0.1372183092      1.0000000000
| 93>     p 1 
| 94>      1       0.0570991715      1.0000000000
| 95>   end
| 96>   NewAuxGTO 52
| 97>     S 1
| 98>      1 1310.72 1.0
| 99>     S 1
|100>      1  655.36 1.0
|101>     S 1
|102>      1  327.68 1.0
|103>     S 1
|104>      1  163.84 1.0
|105>     S 1
|106>      1   81.82 1.0
|107>     S 1
|108>      1   40.96 1.0
|109>     S 1
|110>      1   20.48 1.0
|111>     S 1
|112>      1   10.24 1.0
|113>     S 1
|114>      1    5.12 1.0
|115>     S 1
|116>      1    2.56 1.0
|117>     S 1
|118>      1    1.28 1.0
|119>     S 1
|120>      1    0.64 1.0
|121>     S 1
|122>      1    0.32 1.0
|123>     S 1
|124>      1    0.16 1.0
|125>     S 1
|126>      1    0.08 1.0
|127>     S 1
|128>      1    0.04 1.0
|129>     S 1
|130>      1    0.02 1.0
|131>     S 1
|132>      1    0.01 1.0
|133>   end
|134> end
|135> 
|136> * xyz 0 3
|137> 52  0.0 0.0 0.0
|138> *
|139> 
|140> 
|141>                          ****END OF INPUT****
================================================================================

                       ****************************
                       * Single Point Calculation *
                       ****************************

---------------------------------
CARTESIAN COORDINATES (ANGSTROEM)
---------------------------------
  Te     0.000000    0.000000    0.000000

----------------------------
CARTESIAN COORDINATES (A.U.)
----------------------------
  NO LB      ZA    FRAG     MASS         X           Y           Z
   0 Te   24.0000*   0   127.600    0.000000    0.000000    0.000000
* core charge reduced due to ECP

--------------------------------
INTERNAL COORDINATES (ANGSTROEM)
--------------------------------
 Te     0   0   0     0.000000000000     0.00000000     0.00000000

---------------------------
INTERNAL COORDINATES (A.U.)
---------------------------
 Te     0   0   0     0.000000000000     0.00000000     0.00000000

---------------------
BASIS SET INFORMATION
---------------------
There are 1 groups of distinct atoms

 Group   1 Type Te  : 17s14p contracted to 7s6p pattern {9131111/731111}

Atom   0Te   basis set group =>   1
---------------------------------
AUXILIARY/J BASIS SET INFORMATION
---------------------------------
There are 1 groups of distinct atoms

 Group   1 Type Te  : 18s contracted to 18s pattern {111111111111111111}

Atom   0Te   basis set group =>   1
-------------------------
ECP PARAMETER INFORMATION
-------------------------

 Group 1, Type Te ECP (replacing 28 core electrons, lmax=3)

Atom   0Te   ECP group =>   1

------------------------------------------------------------------------------
                           ORCA GTO INTEGRAL CALCULATION
------------------------------------------------------------------------------

                         BASIS SET STATISTICS AND STARTUP INFO

 # of primitive gaussian shells          ...   31
 # of primitive gaussian functions       ...   59
 # of contracted shells                  ...   13
 # of contracted basis functions         ...   25
 Highest angular momentum                ...    1
 Maximum contraction depth               ...    9
 Integral package used                   ... LIBINT
 Integral threshhold            Thresh   ...  1.000e-10
 Primitive cut-off              TCut     ...  1.000e-11
 Storage cut-off                TCutStore... -1.000e+00
 Buffer length                           ... 1048576 integrals/buffer
 Generate file with integrals 4 distinct ...false


------------------------------ INTEGRAL EVALUATION ----------------------------


 * One electron integrals 

   ECP integrals                         ... done
 Pre-screening matrix                    ... done
 Shell pair data                         ... done (   0.000 sec)
 Statistics run                          ... done
 Maximum amount of storage needed        ...     0 MB
 Maximum amount of storage dedicated     ... 500000 MB
 Beginning two electron integral evaluation:
 Starting repulsion integrals
  <ss|ss>  ...          406 b.         0 skpd (  0.0%)     0.000 s. (  0.001 ms/b)
  <ss|sp>  ...         1176 b.         0 skpd (  0.0%)     0.001 s. (  0.001 ms/b)
  <ss|pp>  ...          588 b.         0 skpd (  0.0%)     0.002 s. (  0.004 ms/b)
  <sp|sp>  ...          903 b.         0 skpd (  0.0%)     0.002 s. (  0.003 ms/b)
  <sp|pp>  ...          882 b.         0 skpd (  0.0%)     0.004 s. (  0.005 ms/b)
  <pp|pp>  ...          231 b.         0 skpd (  0.0%)     0.003 s. (  0.013 ms/b)


                                      INTEGRAL STATISTICS

Integral type statistics:
 Number of integrals retained            ...      52975 
 One   Center Integrals retained         ...      52975 (100.0%)
 Two   Center Integrals retained         ...          0 (  0.0%)
 Three Center Integrals retained         ...          0 (  0.0%)
 Four  Center Integrals retained         ...          0 (  0.0%)

Storage statistics:
 Number of char integrals                ...          0 (  0.0%)
 Number of short int integrals           ...          0 (  0.0%)
 Number of double/float integrals        ...      52975 (100.0%)
 Amount of memory used                   ...          0 MB
 Amount of memory estimated              ...          0 MB ( 95.8%)

Prescreening statistics:
 Total number of shell quadruples        ...       4186 
 Number of skipped shell quadruples      ...          0 (  0.0%)
 # of negligible batches done            ...          0 (  0.0%)

Timings:
 Total evaluation time               ...     0.191 sec (   0.003 min)
 One electron matrix time            ...     0.025 sec (   0.000 min) = 12.9%
 Schwartz matrix evaluation time     ...     0.076 sec (   0.001 min) = 39.7%
 Statistics run                      ...     0.001 sec (   0.000 min) =  0.3%
 Repulsion integral time             ...     0.014 sec (   0.000 min) =  7.1%

-------------------------------------------------------------------------------
                                 ORCA SCF
-------------------------------------------------------------------------------

------------
SCF SETTINGS
------------
Hamiltonian:
 Ab initio Hamiltonian  Method          .... Hartree-Fock(GTOs)


General Settings:
 Integral files         IntName         .... 52_Te_atom52
 Hartree-Fock type      HFTyp           .... ROHF
 Total Charge           Charge          ....    0
 Multiplicity           Mult            ....    3
 Number of Electrons    NEL             ....   24
 Basis Dimension        Dim             ....   25
 Nuclear Repulsion      ENuc            ....      0.0000000000 Eh

Convergence Acceleration:
 DIIS                   CNVDIIS         .... on
   Start iteration      DIISMaxIt       ....    12
   Startup error        DIISStart       ....  0.200000
   # of expansion vecs  DIISMaxEq       ....     5
   Bias factor          DIISBfac        ....   1.050
   Max. coefficient     DIISMaxC        ....  10.000
 Newton-Raphson         CNVNR           .... off
 SOSCF                  CNVSOSCF        .... off
 Level Shifting         CNVShift        .... on
   Level shift para.    LevelShift      ....    1.0000
   Turn off err/grad.   ShiftErr        ....    0.0010
 Zerner damping         CNVZerner       .... off
 Static damping         CNVDamp         .... on
   Fraction old density DampFac         ....    0.7000
   Max. Damping (<1)    DampMax         ....    0.9800
   Min. Damping (>=0)   DampMin         ....    0.0000
   Turn off err/grad.   DampErr         ....    0.1000
 Fernandez-Rico         CNVRico         .... off

SCF Procedure:
 Maximum # iterations   MaxIter         ....  1000
 SCF integral mode      SCFMode         .... Conventional
 Integral Threshold     Thresh          ....  1.000e-10 Eh
 Primitive CutOff       TCut            ....  1.000e-11 Eh
 Integral Buffer length BufferLength    .... 1048576
 Integral index format  IndFormat       ....     0
 Integral value format  ValFormat       ....     0
 Integral Storage       Thresh          ....  1.000e-10 Eh

Convergence Tolerance:
 Convergence Check Mode ConvCheckMode   .... Total+1el-Energy
 Convergence forced     ConvForced      .... 0
 Energy Change          TolE            ....  1.000e-06 Eh
 1-El. energy change                    ....  1.000e-03 Eh
 DIIS Error             TolErr          ....  1.000e-06


Diagonalization of the overlap matrix:
Smallest eigenvalue                        ... 1.467e-03
Time for diagonalization                   ...    0.000 sec
Threshold for overlap eigenvalues          ... 1.000e-08
Number of eigenvalues below threshold      ... 0
Time for construction of square roots      ...    0.002 sec
Total time needed                          ...    0.002 sec

--------------------
INITIAL GUESS: HCORE
--------------------
AVERAGE-CONFIGURATION (SAHF) CASE FOUND

-------------------
FINAL ROHF SETTINGS
-------------------
Number of operators             ... 2
  operator   0:  10 orbitals  20 electrons n(mue)= 2.000
  operator   1:   3 orbitals   4 electrons n(mue)= 1.333
Vector coupling coefficients a and b (Zerner convention):
   1.000    1.000           1.000    1.000 
   1.000    0.938           1.000    1.125 

                      -----------------
                      INTIAL GUESS DONE 
                      -----------------

 InCore treatment chosen:
   Memory dedicated               ...    1024 MB
   Memory needed                  ...      0 MB
   Number of tiny    integrals    ...       0
   Number of small   integrals    ...       0
   Number of regular integrals    ...   52975

--------------
SCF ITERATIONS
--------------
ITER       Energy         Delta-E        Max-DP      RMS-DP      [F,P]     Damp
  0   -222.1064280584   0.00000000000012.18343850  0.66602017  3.0601330 0.7000
  1   -227.3609436474  -5.254515589056 4.39745368  0.36925678  0.8993652 0.7000
  2   -229.7987102465  -2.437766599016 6.59482323  0.37903408  0.6009622 0.7000
  3   -231.2420059507  -1.443295704272 5.97662599  0.31971614  0.3942396 0.7000
  4   -232.1390073028  -0.897001352076 4.57543941  0.23995609  0.2245543 0.7000
  5   -232.7409049771  -0.601897674310 3.47895823  0.17150131  0.2120450 0.7000
                            ****Activating DIIS****
  6   -233.1653885847  -0.424483607602 2.93913879  0.12880569  0.1900165 0.7000
  7   -233.5249606555  -0.359572070767 6.58602870  0.31371730  0.0945189 0.0000
  8   -234.2255657944  -0.700605138944 0.61094237  0.02477544  0.0747058 0.0000
  9   -234.2377986926  -0.012232898186 0.73009228  0.03142552  0.0601689 0.0000
 10   -234.2497938716  -0.011995178981 0.54056754  0.02415419  0.0424479 0.0000
 11   -234.2565463858  -0.006752514259 0.29791588  0.01424274  0.0248696 0.0000
 12   -234.2594145026  -0.002868116769 0.18721286  0.01014670  0.0114048 0.0000
 13   -234.2604786820  -0.001064179360 0.05524600  0.00308865  0.0063482 0.0000
 14   -234.2607214322  -0.000242750244 0.05090548  0.00256529  0.0051379 0.0000
 15   -234.2608970483  -0.000175616124 0.04883261  0.00245986  0.0039617 0.0000
 16   -234.2610391122  -0.000142063866 0.03301726  0.00192685  0.0026662 0.0000
 17   -234.2611224210  -0.000083308765 0.02962830  0.00177582  0.0015763 0.0000
 18   -234.2611638391  -0.000041418118 0.01488309  0.00093584  0.0006177 0.0000
 19   -234.2611712931  -0.000007453957 0.00303774  0.00020083  0.0001361 0.0000
                 **** Energy Check signals convergence ****

               *****************************************************
               *                     SUCCESS                       *
               *           SCF CONVERGED AFTER  20 CYCLES          *
               *****************************************************


----------------
TOTAL SCF ENERGY
----------------

Total Energy       :         -234.26117173 Eh           -6374.57056 eV

Components:
Nuclear Repulsion  :            0.00000000 Eh               0.00000 eV
Electronic Energy  :         -234.26117173 Eh           -6374.57056 eV
One Electron Energy:         -368.77382491 Eh          -10034.84594 eV
Two Electron Energy:          134.51265317 Eh            3660.27538 eV

Virial components:
Potential Energy   :         -302.57853954 Eh           -8233.58065 eV
Kinetic Energy     :           68.31736781 Eh            1859.01009 eV
Virial Ratio       :            4.42901343


---------------
SCF CONVERGENCE
---------------

  Last Energy change         ...   -4.4162e-07  Tolerance :   1.0000e-06
  Last MAX-Density change    ...    1.4814e-03  Tolerance :   1.0000e-05
  Last RMS-Density change    ...    8.8788e-05  Tolerance :   1.0000e-06
  Last DIIS Error            ...    1.2641e-04  Tolerance :   1.0000e-06

             **** THE GBW FILE WAS UPDATED (52_Te_atom52.gbw) ****
             **** DENSITY FILE WAS UPDATED (52_Te_atom52.scfp) ****
             **** ENERGY FILE WAS UPDATED (52_Te_atom52.en.tmp) ****
             **** THE GBW FILE WAS UPDATED (52_Te_atom52.gbw) ****
             **** DENSITY FILE WAS UPDATED (52_Te_atom52.scfp) ****
----------------
ORBITAL ENERGIES
----------------

  NO   OCC          E(Eh)            E(eV) 
   0   2.0000     -11.548634      -314.2543 
   1   2.0000      -9.202925      -250.4243 
   2   2.0000      -9.202925      -250.4243 
   3   2.0000      -9.191258      -250.1069 
   4   2.0000      -3.002597       -81.7048 
   5   2.0000      -2.139582       -58.2210 
   6   2.0000      -2.139582       -58.2210 
   7   2.0000      -2.119268       -57.6682 
   8   2.0000      -0.583657       -15.8821 
   9   2.0000      -0.320709        -8.7269 
  10   1.3333      -0.354968        -9.6592 
  11   1.3333      -0.354968        -9.6592 
  12   1.3333       0.075995         2.0679 
  13   0.0000       0.129667         3.5284 
  14   0.0000       0.169258         4.6057 
  15   0.0000       0.169258         4.6057 
  16   0.0000       1.183276        32.1986 
  17   0.0000       1.264749        34.4156 
  18   0.0000       1.264749        34.4156 
  19   0.0000       1.287715        35.0405 
  20   0.0000      10.461173       284.6630 
  21   0.0000      36.056587       981.1496 
  22   0.0000      36.056587       981.1496 
  23   0.0000      36.062398       981.3078 
  24   0.0000      68.595364      1866.5747 
CleanUpVectors: The p-vectors have cracked symmetry
CleanUpVectors: The p-vectors have cracked symmetry
CleanUpVectors: The p-vectors have cracked symmetry
CleanUpVectors: The p-vectors have cracked symmetry
CleanUpVectors: The p-vectors have cracked symmetry
CleanUpVectors: The p-vectors have cracked symmetry
CleanUpVectors: The p-vectors have cracked symmetry
CleanUpVectors: The p-vectors have cracked symmetry
CleanUpVectors: The p-vectors have cracked symmetry
CleanUpVectors: The p-vectors have cracked symmetry
CleanUpVectors: The p-vectors have cracked symmetry
CleanUpVectors: The p-vectors have cracked symmetry
CleanUpVectors: The p-vectors have cracked symmetry
CleanUpVectors: The p-vectors have cracked symmetry
CleanUpVectors: The p-vectors have cracked symmetry
CleanUpVectors: The p-vectors have cracked symmetry
CleanUpVectors: The p-vectors have cracked symmetry
--------------------------
ATOM BASIS FOR ELEMENT Te
--------------------------
 NewGTO Te
 S 17
    1      15746.299999999999         0.000061296411
    2       2369.250000000000         0.000451777256
    3        535.860000000000         0.001886567314
    4        141.885000000000         0.004127291716
    5         27.819700000000        -0.066321582077
    6         17.387900000000         0.416043717285
    7         10.865600000000        -0.451310721135
    8          6.568850000000        -0.589325267186
    9          2.401390000000         0.780566665617
   10          1.286544158500         0.718014634900
   11         29.383253023000         0.006492702437
   12         15.946408003000        -0.029423795407
   13          3.667990263200         0.115409444956
   14          0.635335946900        -0.203900547129
   15          0.298077862100         0.136860269394
   16          0.140612486900        -0.066068638440
   17          0.065660655900         0.017773848465
 P 31
    1        750.222000000000         0.000004556607
    2        163.961000000000         0.000035927107
    3         16.922700000000         0.007306960226
    4         10.575500000000        -0.023502637300
    5          5.704620000000        -0.002009464448
    6          2.980220000000         0.043423429637
    7          1.519700000000         0.045086066058
    8        750.222000000000        -0.000057490758
    9        163.961000000000        -0.000453292723
   10         16.922700000000        -0.092192002729
   11         10.575500000000         0.296533049997
   12          5.704620000000         0.025353436469
   13          2.980220000000        -0.547873920143
   14          1.519700000000        -0.568851423342
   15        750.222000000000        -0.000005367335
   16        163.961000000000        -0.000042319394
   17         16.922700000000        -0.008607042430
   18         10.575500000000         0.027684316075
   19          5.704620000000         0.002366996019
   20          2.980220000000        -0.051149491682
   21          1.519700000000        -0.053107950711
   22         13.925457258000        -0.000205793716
   23          4.232376665400         0.002163754253
   24          1.454763072700         0.007059993674
   25         13.925457258000         0.002596501726
   26          4.232376665400        -0.027300112742
   27          1.454763072700        -0.089076022845
   28         13.925457258000         0.000242409318
   29          4.232376665400        -0.002548737654
   30          1.454763072700        -0.008316134647
   31          0.755287836900        -0.011314782305
 S 17
    1      15746.299999999999         0.000044018236
    2       2369.250000000000         0.000324430709
    3        535.860000000000         0.001354783497
    4        141.885000000000         0.002963894615
    5         27.819700000000        -0.047626916988
    6         17.387900000000         0.298769706120
    7         10.865600000000        -0.324095680141
    8          6.568850000000        -0.423206815945
    9          2.401390000000         0.560541269112
   10          1.286544158500         1.421546389208
   11         29.383253023000         0.016297840465
   12         15.946408003000        -0.073858971371
   13          3.667990263200         0.289698278993
   14          0.635335946900        -1.973624606747
   15          0.298077862100        -0.041545059956
   16          0.140612486900        -0.177044877673
   17          0.065660655900         0.049345864062
 P 31
    1        750.222000000000        -0.000036351928
    2        163.961000000000        -0.000286621102
    3         16.922700000000        -0.058293839858
    4         10.575500000000         0.187500538196
    5          5.704620000000         0.016031207932
    6          2.980220000000        -0.346425651008
    7          1.519700000000        -0.359689916627
    8        750.222000000000        -0.000004109968
    9        163.961000000000        -0.000032405533
   10         16.922700000000        -0.006590732217
   11         10.575500000000         0.021198909540
   12          5.704620000000         0.001812496807
   13          2.980220000000        -0.039167066445
   14          1.519700000000        -0.040666731297
   15        750.222000000000        -0.000000233899
   16        163.961000000000        -0.000001844202
   17         16.922700000000        -0.000375079163
   18         10.575500000000         0.001206431848
   19          5.704620000000         0.000103149356
   20          2.980220000000        -0.002229001273
   21          1.519700000000        -0.002314347335
   22         13.925457258000         0.010893790747
   23          4.232376665400        -0.114539386829
   24          1.454763072700        -0.373724208913
   25         13.925457258000         0.001231657716
   26          4.232376665400        -0.012949883363
   27          1.454763072700        -0.042253455770
   28         13.925457258000         0.000070093751
   29          4.232376665400        -0.000736979027
   30          1.454763072700        -0.002404647967
   31          0.755287836900         1.182579804985
 S 17
    1      15746.299999999999         0.000013920851
    2       2369.250000000000         0.000102601830
    3        535.860000000000         0.000428452862
    4        141.885000000000         0.000937337319
    5         27.819700000000        -0.015062103249
    6         17.387900000000         0.094486488853
    7         10.865600000000        -0.102495876395
    8          6.568850000000        -0.133839961945
    9          2.401390000000         0.177272244444
   10          1.286544158500         0.414201410512
   11         29.383253023000         0.008768624776
   12         15.946408003000        -0.039737878628
   13          3.667990263200         0.155864546115
   14          0.635335946900        -0.377935725022
   15          0.298077862100        -2.719850371356
   16          0.140612486900         5.607708605055
   17          0.065660655900        -3.381576248518
 S 17
    1      15746.299999999999        -0.000038051959
    2       2369.250000000000        -0.000280457032
    3        535.860000000000        -0.001171154727
    4        141.885000000000        -0.002562165244
    5         27.819700000000         0.041171514940
    6         17.387900000000        -0.258274148253
    7         10.865600000000         0.280167413317
    8          6.568850000000         0.365844922306
    9          2.401390000000        -0.484564920322
   10          1.286544158500        -3.389228034168
   11         29.383253023000        -0.009013665794
   12         15.946408003000         0.040848361797
   13          3.667990263200        -0.160220212829
   14          0.635335946900         9.990222397871
   15          0.298077862100       -12.357537584405
   16          0.140612486900         8.264842228997
   17          0.065660655900        -2.490950590000
 S 17
    1      15746.299999999999         0.000056742540
    2       2369.250000000000         0.000418213540
    3        535.860000000000         0.001746409285
    4        141.885000000000         0.003820664398
    5         27.819700000000        -0.061394377939
    6         17.387900000000         0.385134739220
    7         10.865600000000        -0.417781664932
    8          6.568850000000        -0.545542748668
    9          2.401390000000         0.722576322431
   10          1.286544158500        -9.794054087794
   11         29.383253023000         0.263118852831
   12         15.946408003000        -1.192408764806
   13          3.667990263200         4.677004845980
   14          0.635335946900        10.978653768253
   15          0.298077862100        -7.548393850440
   16          0.140612486900         3.686113206734
   17          0.065660655900        -0.980663597700
 P 31
    1        750.222000000000        -0.000000149872
    2        163.961000000000        -0.000001181685
    3         16.922700000000        -0.000240334472
    4         10.575500000000         0.000773029244
    5          5.704620000000         0.000066093637
    6          2.980220000000        -0.001428247415
    7          1.519700000000        -0.001482933472
    8        750.222000000000         0.000003413817
    9        163.961000000000         0.000026916650
   10         16.922700000000         0.005474387198
   11         10.575500000000        -0.017608216382
   12          5.704620000000        -0.001505494229
   13          2.980220000000         0.032532908342
   14          1.519700000000         0.033778558415
   15        750.222000000000        -0.000036693415
   16        163.961000000000        -0.000289313597
   17         16.922700000000        -0.058841447348
   18         10.575500000000         0.189261902678
   19          5.704620000000         0.016181803768
   20          2.980220000000        -0.349679944799
   21          1.519700000000        -0.363068813827
   22         13.925457258000         0.000045233058
   23          4.232376665400        -0.000475588970
   24          1.454763072700        -0.001551772857
   25         13.925457258000        -0.001030327737
   26          4.232376665400         0.010833061695
   27          1.454763072700         0.035346595822
   28         13.925457258000         0.011074477033
   29          4.232376665400        -0.116439156795
   30          1.454763072700        -0.379922862905
   31          0.755287836900         0.004940535647
 P 31
    1        750.222000000000        -0.000013925738
    2        163.961000000000        -0.000109799136
    3         16.922700000000        -0.022331270167
    4         10.575500000000         0.071827918441
    5          5.704620000000         0.006141253283
    6          2.980220000000        -0.132709130576
    7          1.519700000000        -0.137790420466
    8        750.222000000000         0.000008494972
    9        163.961000000000         0.000066979616
   10         16.922700000000         0.013622510569
   11         10.575500000000        -0.043816431881
   12          5.704620000000        -0.003746284342
   13          2.980220000000         0.080955159304
   14          1.519700000000         0.084054845292
   15        750.222000000000         0.000000847219
   16        163.961000000000         0.000006680000
   17         16.922700000000         0.001358597980
   18         10.575500000000        -0.004369893166
   19          5.704620000000        -0.000373623813
   20          2.980220000000         0.008073806612
   21          1.519700000000         0.008382943984
   22         13.925457258000         0.005312569913
   23          4.232376665400        -0.055857369992
   24          1.454763072700        -0.182253912738
   25         13.925457258000        -0.003240771315
   26          4.232376665400         0.034074085682
   27          1.454763072700         0.111178443227
   28         13.925457258000        -0.000323208071
   29          4.232376665400         0.003398271100
   30          1.454763072700         0.011088030185
   31          0.755287836900         0.690188793230
 P 31
    1        750.222000000000        -0.000011032143
    2        163.961000000000        -0.000086984241
    3         16.922700000000        -0.017691109903
    4         10.575500000000         0.056902970127
    5          5.704620000000         0.004865177214
    6          2.980220000000        -0.105133823403
    7          1.519700000000        -0.109159284436
    8        750.222000000000         0.000000105237
    9        163.961000000000         0.000000829753
   10         16.922700000000         0.000168757577
   11         10.575500000000        -0.000542804122
   12          5.704620000000        -0.000046409497
   13          2.980220000000         0.001002883902
   14          1.519700000000         0.001041283248
   15        750.222000000000         0.000000054851
   16        163.961000000000         0.000000432479
   17         16.922700000000         0.000087958881
   18         10.575500000000        -0.000282917331
   19          5.704620000000        -0.000024189299
   20          2.980220000000         0.000522717543
   21          1.519700000000         0.000542731835
   22         13.925457258000         0.004119889705
   23          4.232376665400        -0.043317303554
   24          1.454763072700        -0.141337625870
   25         13.925457258000        -0.000039300112
   26          4.232376665400         0.000413208851
   27          1.454763072700         0.001348236230
   28         13.925457258000        -0.000020483785
   29          4.232376665400         0.000215370408
   30          1.454763072700         0.000702720153
   31          0.755287836900         0.445651607145
 P 31
    1        750.222000000000        -0.000000153939
    2        163.961000000000        -0.000001213751
    3         16.922700000000        -0.000246856160
    4         10.575500000000         0.000794006071
    5          5.704620000000         0.000067887146
    6          2.980220000000        -0.001467004163
    7          1.519700000000        -0.001523174175
    8        750.222000000000         0.000003506454
    9        163.961000000000         0.000027647057
   10         16.922700000000         0.005622939504
   11         10.575500000000        -0.018086030801
   12          5.704620000000        -0.001546347137
   13          2.980220000000         0.033415717387
   14          1.519700000000         0.034695169270
   15        750.222000000000        -0.000037689123
   16        163.961000000000        -0.000297164376
   17         16.922700000000        -0.060438161709
   18         10.575500000000         0.194397690658
   19          5.704620000000         0.016620911227
   20          2.980220000000        -0.359168817266
   21          1.519700000000        -0.372921005016
   22         13.925457258000         0.000077087594
   23          4.232376665400        -0.000810513614
   24          1.454763072700        -0.002644579891
   25         13.925457258000        -0.001755916791
   26          4.232376665400         0.018462042943
   27          1.454763072700         0.060238775365
   28         13.925457258000         0.018873470521
   29          4.232376665400        -0.198439256927
   30          1.454763072700        -0.647476439024
   31          0.755287836900         0.014819240179
 P 31
    1        750.222000000000        -0.000001391818
    2        163.961000000000        -0.000010973958
    3         16.922700000000        -0.002231915668
    4         10.575500000000         0.007178895573
    5          5.704620000000         0.000613792199
    6          2.980220000000        -0.013263714315
    7          1.519700000000        -0.013771567671
    8        750.222000000000         0.000031703120
    9        163.961000000000         0.000249967023
   10         16.922700000000         0.050839025873
   11         10.575500000000        -0.163522333333
   12          5.704620000000        -0.013981082681
   13          2.980220000000         0.302123563614
   14          1.519700000000         0.313691549950
   15        750.222000000000        -0.000340760967
   16        163.961000000000        -0.002686770391
   17         16.922700000000        -0.546443237326
   18         10.575500000000         1.757619696036
   19          5.704620000000         0.150275658317
   20          2.980220000000        -3.247374931728
   21          1.519700000000        -3.371713425518
   22         13.925457258000        -0.000611543307
   23          4.232376665400         0.006429882582
   24          1.454763072700         0.020979707048
   25         13.925457258000         0.013929856957
   26          4.232376665400        -0.146461164125
   27          1.454763072700        -0.477880004550
   28         13.925457258000        -0.149725058661
   29          4.232376665400         1.574237729634
   30          1.454763072700         5.136492925565
   31          0.755287836900        -0.002806092789
 end
  // -----------------------------------------------
  // The basis set
  // -----------------------------------------------
  BAS[ATNO] = new BFNGauss[NSH];
  // Basis function   1 L = s
  InitBFNGauss(BAS[ATNO][  0]);
  BAS[ATNO][  0].l  = 0;
  BAS[ATNO][  0].ng = 17;
  BAS[ATNO][  0].a[  0] =     15746.299999999999;     BAS[ATNO][  0].d[  0] =         0.000061296411;
  BAS[ATNO][  0].a[  1] =      2369.250000000000;     BAS[ATNO][  0].d[  1] =         0.000451777256;
  BAS[ATNO][  0].a[  2] =       535.860000000000;     BAS[ATNO][  0].d[  2] =         0.001886567314;
  BAS[ATNO][  0].a[  3] =       141.885000000000;     BAS[ATNO][  0].d[  3] =         0.004127291716;
  BAS[ATNO][  0].a[  4] =        27.819700000000;     BAS[ATNO][  0].d[  4] =        -0.066321582077;
  BAS[ATNO][  0].a[  5] =        17.387900000000;     BAS[ATNO][  0].d[  5] =         0.416043717285;
  BAS[ATNO][  0].a[  6] =        10.865600000000;     BAS[ATNO][  0].d[  6] =        -0.451310721135;
  BAS[ATNO][  0].a[  7] =         6.568850000000;     BAS[ATNO][  0].d[  7] =        -0.589325267186;
  BAS[ATNO][  0].a[  8] =         2.401390000000;     BAS[ATNO][  0].d[  8] =         0.780566665617;
  BAS[ATNO][  0].a[  9] =         1.286544158500;     BAS[ATNO][  0].d[  9] =         0.718014634900;
  BAS[ATNO][  0].a[ 10] =        29.383253023000;     BAS[ATNO][  0].d[ 10] =         0.006492702437;
  BAS[ATNO][  0].a[ 11] =        15.946408003000;     BAS[ATNO][  0].d[ 11] =        -0.029423795407;
  BAS[ATNO][  0].a[ 12] =         3.667990263200;     BAS[ATNO][  0].d[ 12] =         0.115409444956;
  BAS[ATNO][  0].a[ 13] =         0.635335946900;     BAS[ATNO][  0].d[ 13] =        -0.203900547129;
  BAS[ATNO][  0].a[ 14] =         0.298077862100;     BAS[ATNO][  0].d[ 14] =         0.136860269394;
  BAS[ATNO][  0].a[ 15] =         0.140612486900;     BAS[ATNO][  0].d[ 15] =        -0.066068638440;
  BAS[ATNO][  0].a[ 16] =         0.065660655900;     BAS[ATNO][  0].d[ 16] =         0.017773848465;

  // Basis function   2 L = p
  InitBFNGauss(BAS[ATNO][  1]);
  BAS[ATNO][  1].l  = 1;
  BAS[ATNO][  1].ng = 31;
  BAS[ATNO][  1].a[  0] =       750.222000000000;     BAS[ATNO][  1].d[  0] =        -0.000004556607;
  BAS[ATNO][  1].a[  1] =       163.961000000000;     BAS[ATNO][  1].d[  1] =        -0.000035927107;
  BAS[ATNO][  1].a[  2] =        16.922700000000;     BAS[ATNO][  1].d[  2] =        -0.007306960226;
  BAS[ATNO][  1].a[  3] =        10.575500000000;     BAS[ATNO][  1].d[  3] =         0.023502637300;
  BAS[ATNO][  1].a[  4] =         5.704620000000;     BAS[ATNO][  1].d[  4] =         0.002009464448;
  BAS[ATNO][  1].a[  5] =         2.980220000000;     BAS[ATNO][  1].d[  5] =        -0.043423429637;
  BAS[ATNO][  1].a[  6] =         1.519700000000;     BAS[ATNO][  1].d[  6] =        -0.045086066058;
  BAS[ATNO][  1].a[  7] =       750.222000000000;     BAS[ATNO][  1].d[  7] =         0.000057490758;
  BAS[ATNO][  1].a[  8] =       163.961000000000;     BAS[ATNO][  1].d[  8] =         0.000453292723;
  BAS[ATNO][  1].a[  9] =        16.922700000000;     BAS[ATNO][  1].d[  9] =         0.092192002729;
  BAS[ATNO][  1].a[ 10] =        10.575500000000;     BAS[ATNO][  1].d[ 10] =        -0.296533049997;
  BAS[ATNO][  1].a[ 11] =         5.704620000000;     BAS[ATNO][  1].d[ 11] =        -0.025353436469;
  BAS[ATNO][  1].a[ 12] =         2.980220000000;     BAS[ATNO][  1].d[ 12] =         0.547873920143;
  BAS[ATNO][  1].a[ 13] =         1.519700000000;     BAS[ATNO][  1].d[ 13] =         0.568851423342;
  BAS[ATNO][  1].a[ 14] =       750.222000000000;     BAS[ATNO][  1].d[ 14] =         0.000005367335;
  BAS[ATNO][  1].a[ 15] =       163.961000000000;     BAS[ATNO][  1].d[ 15] =         0.000042319394;
  BAS[ATNO][  1].a[ 16] =        16.922700000000;     BAS[ATNO][  1].d[ 16] =         0.008607042430;
  BAS[ATNO][  1].a[ 17] =        10.575500000000;     BAS[ATNO][  1].d[ 17] =        -0.027684316075;
  BAS[ATNO][  1].a[ 18] =         5.704620000000;     BAS[ATNO][  1].d[ 18] =        -0.002366996019;
  BAS[ATNO][  1].a[ 19] =         2.980220000000;     BAS[ATNO][  1].d[ 19] =         0.051149491682;
  BAS[ATNO][  1].a[ 20] =         1.519700000000;     BAS[ATNO][  1].d[ 20] =         0.053107950711;
  BAS[ATNO][  1].a[ 21] =        13.925457258000;     BAS[ATNO][  1].d[ 21] =         0.000205793716;
  BAS[ATNO][  1].a[ 22] =         4.232376665400;     BAS[ATNO][  1].d[ 22] =        -0.002163754253;
  BAS[ATNO][  1].a[ 23] =         1.454763072700;     BAS[ATNO][  1].d[ 23] =        -0.007059993674;
  BAS[ATNO][  1].a[ 24] =        13.925457258000;     BAS[ATNO][  1].d[ 24] =        -0.002596501726;
  BAS[ATNO][  1].a[ 25] =         4.232376665400;     BAS[ATNO][  1].d[ 25] =         0.027300112742;
  BAS[ATNO][  1].a[ 26] =         1.454763072700;     BAS[ATNO][  1].d[ 26] =         0.089076022845;
  BAS[ATNO][  1].a[ 27] =        13.925457258000;     BAS[ATNO][  1].d[ 27] =        -0.000242409318;
  BAS[ATNO][  1].a[ 28] =         4.232376665400;     BAS[ATNO][  1].d[ 28] =         0.002548737654;
  BAS[ATNO][  1].a[ 29] =         1.454763072700;     BAS[ATNO][  1].d[ 29] =         0.008316134647;
  BAS[ATNO][  1].a[ 30] =         0.755287836900;     BAS[ATNO][  1].d[ 30] =         0.011314782305;

  // Basis function   3 L = s
  InitBFNGauss(BAS[ATNO][  2]);
  BAS[ATNO][  2].l  = 0;
  BAS[ATNO][  2].ng = 17;
  BAS[ATNO][  2].a[  0] =     15746.299999999999;     BAS[ATNO][  2].d[  0] =        -0.000044018236;
  BAS[ATNO][  2].a[  1] =      2369.250000000000;     BAS[ATNO][  2].d[  1] =        -0.000324430709;
  BAS[ATNO][  2].a[  2] =       535.860000000000;     BAS[ATNO][  2].d[  2] =        -0.001354783497;
  BAS[ATNO][  2].a[  3] =       141.885000000000;     BAS[ATNO][  2].d[  3] =        -0.002963894615;
  BAS[ATNO][  2].a[  4] =        27.819700000000;     BAS[ATNO][  2].d[  4] =         0.047626916988;
  BAS[ATNO][  2].a[  5] =        17.387900000000;     BAS[ATNO][  2].d[  5] =        -0.298769706120;
  BAS[ATNO][  2].a[  6] =        10.865600000000;     BAS[ATNO][  2].d[  6] =         0.324095680141;
  BAS[ATNO][  2].a[  7] =         6.568850000000;     BAS[ATNO][  2].d[  7] =         0.423206815945;
  BAS[ATNO][  2].a[  8] =         2.401390000000;     BAS[ATNO][  2].d[  8] =        -0.560541269112;
  BAS[ATNO][  2].a[  9] =         1.286544158500;     BAS[ATNO][  2].d[  9] =        -1.421546389208;
  BAS[ATNO][  2].a[ 10] =        29.383253023000;     BAS[ATNO][  2].d[ 10] =        -0.016297840465;
  BAS[ATNO][  2].a[ 11] =        15.946408003000;     BAS[ATNO][  2].d[ 11] =         0.073858971371;
  BAS[ATNO][  2].a[ 12] =         3.667990263200;     BAS[ATNO][  2].d[ 12] =        -0.289698278993;
  BAS[ATNO][  2].a[ 13] =         0.635335946900;     BAS[ATNO][  2].d[ 13] =         1.973624606747;
  BAS[ATNO][  2].a[ 14] =         0.298077862100;     BAS[ATNO][  2].d[ 14] =         0.041545059956;
  BAS[ATNO][  2].a[ 15] =         0.140612486900;     BAS[ATNO][  2].d[ 15] =         0.177044877673;
  BAS[ATNO][  2].a[ 16] =         0.065660655900;     BAS[ATNO][  2].d[ 16] =        -0.049345864062;

  // Basis function   4 L = p
  InitBFNGauss(BAS[ATNO][  3]);
  BAS[ATNO][  3].l  = 1;
  BAS[ATNO][  3].ng = 31;
  BAS[ATNO][  3].a[  0] =       750.222000000000;     BAS[ATNO][  3].d[  0] =        -0.000036351928;
  BAS[ATNO][  3].a[  1] =       163.961000000000;     BAS[ATNO][  3].d[  1] =        -0.000286621102;
  BAS[ATNO][  3].a[  2] =        16.922700000000;     BAS[ATNO][  3].d[  2] =        -0.058293839858;
  BAS[ATNO][  3].a[  3] =        10.575500000000;     BAS[ATNO][  3].d[  3] =         0.187500538196;
  BAS[ATNO][  3].a[  4] =         5.704620000000;     BAS[ATNO][  3].d[  4] =         0.016031207932;
  BAS[ATNO][  3].a[  5] =         2.980220000000;     BAS[ATNO][  3].d[  5] =        -0.346425651008;
  BAS[ATNO][  3].a[  6] =         1.519700000000;     BAS[ATNO][  3].d[  6] =        -0.359689916627;
  BAS[ATNO][  3].a[  7] =       750.222000000000;     BAS[ATNO][  3].d[  7] =        -0.000004109968;
  BAS[ATNO][  3].a[  8] =       163.961000000000;     BAS[ATNO][  3].d[  8] =        -0.000032405533;
  BAS[ATNO][  3].a[  9] =        16.922700000000;     BAS[ATNO][  3].d[  9] =        -0.006590732217;
  BAS[ATNO][  3].a[ 10] =        10.575500000000;     BAS[ATNO][  3].d[ 10] =         0.021198909540;
  BAS[ATNO][  3].a[ 11] =         5.704620000000;     BAS[ATNO][  3].d[ 11] =         0.001812496807;
  BAS[ATNO][  3].a[ 12] =         2.980220000000;     BAS[ATNO][  3].d[ 12] =        -0.039167066445;
  BAS[ATNO][  3].a[ 13] =         1.519700000000;     BAS[ATNO][  3].d[ 13] =        -0.040666731297;
  BAS[ATNO][  3].a[ 14] =       750.222000000000;     BAS[ATNO][  3].d[ 14] =        -0.000000233899;
  BAS[ATNO][  3].a[ 15] =       163.961000000000;     BAS[ATNO][  3].d[ 15] =        -0.000001844202;
  BAS[ATNO][  3].a[ 16] =        16.922700000000;     BAS[ATNO][  3].d[ 16] =        -0.000375079163;
  BAS[ATNO][  3].a[ 17] =        10.575500000000;     BAS[ATNO][  3].d[ 17] =         0.001206431848;
  BAS[ATNO][  3].a[ 18] =         5.704620000000;     BAS[ATNO][  3].d[ 18] =         0.000103149356;
  BAS[ATNO][  3].a[ 19] =         2.980220000000;     BAS[ATNO][  3].d[ 19] =        -0.002229001273;
  BAS[ATNO][  3].a[ 20] =         1.519700000000;     BAS[ATNO][  3].d[ 20] =        -0.002314347335;
  BAS[ATNO][  3].a[ 21] =        13.925457258000;     BAS[ATNO][  3].d[ 21] =         0.010893790747;
  BAS[ATNO][  3].a[ 22] =         4.232376665400;     BAS[ATNO][  3].d[ 22] =        -0.114539386829;
  BAS[ATNO][  3].a[ 23] =         1.454763072700;     BAS[ATNO][  3].d[ 23] =        -0.373724208913;
  BAS[ATNO][  3].a[ 24] =        13.925457258000;     BAS[ATNO][  3].d[ 24] =         0.001231657716;
  BAS[ATNO][  3].a[ 25] =         4.232376665400;     BAS[ATNO][  3].d[ 25] =        -0.012949883363;
  BAS[ATNO][  3].a[ 26] =         1.454763072700;     BAS[ATNO][  3].d[ 26] =        -0.042253455770;
  BAS[ATNO][  3].a[ 27] =        13.925457258000;     BAS[ATNO][  3].d[ 27] =         0.000070093751;
  BAS[ATNO][  3].a[ 28] =         4.232376665400;     BAS[ATNO][  3].d[ 28] =        -0.000736979027;
  BAS[ATNO][  3].a[ 29] =         1.454763072700;     BAS[ATNO][  3].d[ 29] =        -0.002404647967;
  BAS[ATNO][  3].a[ 30] =         0.755287836900;     BAS[ATNO][  3].d[ 30] =         1.182579804985;

  // Basis function   5 L = s
  InitBFNGauss(BAS[ATNO][  4]);
  BAS[ATNO][  4].l  = 0;
  BAS[ATNO][  4].ng = 17;
  BAS[ATNO][  4].a[  0] =     15746.299999999999;     BAS[ATNO][  4].d[  0] =         0.000013920851;
  BAS[ATNO][  4].a[  1] =      2369.250000000000;     BAS[ATNO][  4].d[  1] =         0.000102601830;
  BAS[ATNO][  4].a[  2] =       535.860000000000;     BAS[ATNO][  4].d[  2] =         0.000428452862;
  BAS[ATNO][  4].a[  3] =       141.885000000000;     BAS[ATNO][  4].d[  3] =         0.000937337319;
  BAS[ATNO][  4].a[  4] =        27.819700000000;     BAS[ATNO][  4].d[  4] =        -0.015062103249;
  BAS[ATNO][  4].a[  5] =        17.387900000000;     BAS[ATNO][  4].d[  5] =         0.094486488853;
  BAS[ATNO][  4].a[  6] =        10.865600000000;     BAS[ATNO][  4].d[  6] =        -0.102495876395;
  BAS[ATNO][  4].a[  7] =         6.568850000000;     BAS[ATNO][  4].d[  7] =        -0.133839961945;
  BAS[ATNO][  4].a[  8] =         2.401390000000;     BAS[ATNO][  4].d[  8] =         0.177272244444;
  BAS[ATNO][  4].a[  9] =         1.286544158500;     BAS[ATNO][  4].d[  9] =         0.414201410512;
  BAS[ATNO][  4].a[ 10] =        29.383253023000;     BAS[ATNO][  4].d[ 10] =         0.008768624776;
  BAS[ATNO][  4].a[ 11] =        15.946408003000;     BAS[ATNO][  4].d[ 11] =        -0.039737878628;
  BAS[ATNO][  4].a[ 12] =         3.667990263200;     BAS[ATNO][  4].d[ 12] =         0.155864546115;
  BAS[ATNO][  4].a[ 13] =         0.635335946900;     BAS[ATNO][  4].d[ 13] =        -0.377935725022;
  BAS[ATNO][  4].a[ 14] =         0.298077862100;     BAS[ATNO][  4].d[ 14] =        -2.719850371356;
  BAS[ATNO][  4].a[ 15] =         0.140612486900;     BAS[ATNO][  4].d[ 15] =         5.607708605055;
  BAS[ATNO][  4].a[ 16] =         0.065660655900;     BAS[ATNO][  4].d[ 16] =        -3.381576248518;

  // Basis function   6 L = s
  InitBFNGauss(BAS[ATNO][  5]);
  BAS[ATNO][  5].l  = 0;
  BAS[ATNO][  5].ng = 17;
  BAS[ATNO][  5].a[  0] =     15746.299999999999;     BAS[ATNO][  5].d[  0] =         0.000038051959;
  BAS[ATNO][  5].a[  1] =      2369.250000000000;     BAS[ATNO][  5].d[  1] =         0.000280457032;
  BAS[ATNO][  5].a[  2] =       535.860000000000;     BAS[ATNO][  5].d[  2] =         0.001171154727;
  BAS[ATNO][  5].a[  3] =       141.885000000000;     BAS[ATNO][  5].d[  3] =         0.002562165244;
  BAS[ATNO][  5].a[  4] =        27.819700000000;     BAS[ATNO][  5].d[  4] =        -0.041171514940;
  BAS[ATNO][  5].a[  5] =        17.387900000000;     BAS[ATNO][  5].d[  5] =         0.258274148253;
  BAS[ATNO][  5].a[  6] =        10.865600000000;     BAS[ATNO][  5].d[  6] =        -0.280167413317;
  BAS[ATNO][  5].a[  7] =         6.568850000000;     BAS[ATNO][  5].d[  7] =        -0.365844922306;
  BAS[ATNO][  5].a[  8] =         2.401390000000;     BAS[ATNO][  5].d[  8] =         0.484564920322;
  BAS[ATNO][  5].a[  9] =         1.286544158500;     BAS[ATNO][  5].d[  9] =         3.389228034168;
  BAS[ATNO][  5].a[ 10] =        29.383253023000;     BAS[ATNO][  5].d[ 10] =         0.009013665794;
  BAS[ATNO][  5].a[ 11] =        15.946408003000;     BAS[ATNO][  5].d[ 11] =        -0.040848361797;
  BAS[ATNO][  5].a[ 12] =         3.667990263200;     BAS[ATNO][  5].d[ 12] =         0.160220212829;
  BAS[ATNO][  5].a[ 13] =         0.635335946900;     BAS[ATNO][  5].d[ 13] =        -9.990222397871;
  BAS[ATNO][  5].a[ 14] =         0.298077862100;     BAS[ATNO][  5].d[ 14] =        12.357537584405;
  BAS[ATNO][  5].a[ 15] =         0.140612486900;     BAS[ATNO][  5].d[ 15] =        -8.264842228997;
  BAS[ATNO][  5].a[ 16] =         0.065660655900;     BAS[ATNO][  5].d[ 16] =         2.490950590000;

  // Basis function   7 L = s
  InitBFNGauss(BAS[ATNO][  6]);
  BAS[ATNO][  6].l  = 0;
  BAS[ATNO][  6].ng = 17;
  BAS[ATNO][  6].a[  0] =     15746.299999999999;     BAS[ATNO][  6].d[  0] =         0.000056742540;
  BAS[ATNO][  6].a[  1] =      2369.250000000000;     BAS[ATNO][  6].d[  1] =         0.000418213540;
  BAS[ATNO][  6].a[  2] =       535.860000000000;     BAS[ATNO][  6].d[  2] =         0.001746409285;
  BAS[ATNO][  6].a[  3] =       141.885000000000;     BAS[ATNO][  6].d[  3] =         0.003820664398;
  BAS[ATNO][  6].a[  4] =        27.819700000000;     BAS[ATNO][  6].d[  4] =        -0.061394377939;
  BAS[ATNO][  6].a[  5] =        17.387900000000;     BAS[ATNO][  6].d[  5] =         0.385134739220;
  BAS[ATNO][  6].a[  6] =        10.865600000000;     BAS[ATNO][  6].d[  6] =        -0.417781664932;
  BAS[ATNO][  6].a[  7] =         6.568850000000;     BAS[ATNO][  6].d[  7] =        -0.545542748668;
  BAS[ATNO][  6].a[  8] =         2.401390000000;     BAS[ATNO][  6].d[  8] =         0.722576322431;
  BAS[ATNO][  6].a[  9] =         1.286544158500;     BAS[ATNO][  6].d[  9] =        -9.794054087794;
  BAS[ATNO][  6].a[ 10] =        29.383253023000;     BAS[ATNO][  6].d[ 10] =         0.263118852831;
  BAS[ATNO][  6].a[ 11] =        15.946408003000;     BAS[ATNO][  6].d[ 11] =        -1.192408764806;
  BAS[ATNO][  6].a[ 12] =         3.667990263200;     BAS[ATNO][  6].d[ 12] =         4.677004845980;
  BAS[ATNO][  6].a[ 13] =         0.635335946900;     BAS[ATNO][  6].d[ 13] =        10.978653768253;
  BAS[ATNO][  6].a[ 14] =         0.298077862100;     BAS[ATNO][  6].d[ 14] =        -7.548393850440;
  BAS[ATNO][  6].a[ 15] =         0.140612486900;     BAS[ATNO][  6].d[ 15] =         3.686113206734;
  BAS[ATNO][  6].a[ 16] =         0.065660655900;     BAS[ATNO][  6].d[ 16] =        -0.980663597700;

  // Basis function   8 L = p
  InitBFNGauss(BAS[ATNO][  7]);
  BAS[ATNO][  7].l  = 1;
  BAS[ATNO][  7].ng = 31;
  BAS[ATNO][  7].a[  0] =       750.222000000000;     BAS[ATNO][  7].d[  0] =         0.000000149872;
  BAS[ATNO][  7].a[  1] =       163.961000000000;     BAS[ATNO][  7].d[  1] =         0.000001181685;
  BAS[ATNO][  7].a[  2] =        16.922700000000;     BAS[ATNO][  7].d[  2] =         0.000240334472;
  BAS[ATNO][  7].a[  3] =        10.575500000000;     BAS[ATNO][  7].d[  3] =        -0.000773029244;
  BAS[ATNO][  7].a[  4] =         5.704620000000;     BAS[ATNO][  7].d[  4] =        -0.000066093637;
  BAS[ATNO][  7].a[  5] =         2.980220000000;     BAS[ATNO][  7].d[  5] =         0.001428247415;
  BAS[ATNO][  7].a[  6] =         1.519700000000;     BAS[ATNO][  7].d[  6] =         0.001482933472;
  BAS[ATNO][  7].a[  7] =       750.222000000000;     BAS[ATNO][  7].d[  7] =        -0.000003413817;
  BAS[ATNO][  7].a[  8] =       163.961000000000;     BAS[ATNO][  7].d[  8] =        -0.000026916650;
  BAS[ATNO][  7].a[  9] =        16.922700000000;     BAS[ATNO][  7].d[  9] =        -0.005474387198;
  BAS[ATNO][  7].a[ 10] =        10.575500000000;     BAS[ATNO][  7].d[ 10] =         0.017608216382;
  BAS[ATNO][  7].a[ 11] =         5.704620000000;     BAS[ATNO][  7].d[ 11] =         0.001505494229;
  BAS[ATNO][  7].a[ 12] =         2.980220000000;     BAS[ATNO][  7].d[ 12] =        -0.032532908342;
  BAS[ATNO][  7].a[ 13] =         1.519700000000;     BAS[ATNO][  7].d[ 13] =        -0.033778558415;
  BAS[ATNO][  7].a[ 14] =       750.222000000000;     BAS[ATNO][  7].d[ 14] =         0.000036693415;
  BAS[ATNO][  7].a[ 15] =       163.961000000000;     BAS[ATNO][  7].d[ 15] =         0.000289313597;
  BAS[ATNO][  7].a[ 16] =        16.922700000000;     BAS[ATNO][  7].d[ 16] =         0.058841447348;
  BAS[ATNO][  7].a[ 17] =        10.575500000000;     BAS[ATNO][  7].d[ 17] =        -0.189261902678;
  BAS[ATNO][  7].a[ 18] =         5.704620000000;     BAS[ATNO][  7].d[ 18] =        -0.016181803768;
  BAS[ATNO][  7].a[ 19] =         2.980220000000;     BAS[ATNO][  7].d[ 19] =         0.349679944799;
  BAS[ATNO][  7].a[ 20] =         1.519700000000;     BAS[ATNO][  7].d[ 20] =         0.363068813827;
  BAS[ATNO][  7].a[ 21] =        13.925457258000;     BAS[ATNO][  7].d[ 21] =        -0.000045233058;
  BAS[ATNO][  7].a[ 22] =         4.232376665400;     BAS[ATNO][  7].d[ 22] =         0.000475588970;
  BAS[ATNO][  7].a[ 23] =         1.454763072700;     BAS[ATNO][  7].d[ 23] =         0.001551772857;
  BAS[ATNO][  7].a[ 24] =        13.925457258000;     BAS[ATNO][  7].d[ 24] =         0.001030327737;
  BAS[ATNO][  7].a[ 25] =         4.232376665400;     BAS[ATNO][  7].d[ 25] =        -0.010833061695;
  BAS[ATNO][  7].a[ 26] =         1.454763072700;     BAS[ATNO][  7].d[ 26] =        -0.035346595822;
  BAS[ATNO][  7].a[ 27] =        13.925457258000;     BAS[ATNO][  7].d[ 27] =        -0.011074477033;
  BAS[ATNO][  7].a[ 28] =         4.232376665400;     BAS[ATNO][  7].d[ 28] =         0.116439156795;
  BAS[ATNO][  7].a[ 29] =         1.454763072700;     BAS[ATNO][  7].d[ 29] =         0.379922862905;
  BAS[ATNO][  7].a[ 30] =         0.755287836900;     BAS[ATNO][  7].d[ 30] =        -0.004940535647;

  // Basis function   9 L = p
  InitBFNGauss(BAS[ATNO][  8]);
  BAS[ATNO][  8].l  = 1;
  BAS[ATNO][  8].ng = 31;
  BAS[ATNO][  8].a[  0] =       750.222000000000;     BAS[ATNO][  8].d[  0] =        -0.000013925738;
  BAS[ATNO][  8].a[  1] =       163.961000000000;     BAS[ATNO][  8].d[  1] =        -0.000109799136;
  BAS[ATNO][  8].a[  2] =        16.922700000000;     BAS[ATNO][  8].d[  2] =        -0.022331270167;
  BAS[ATNO][  8].a[  3] =        10.575500000000;     BAS[ATNO][  8].d[  3] =         0.071827918441;
  BAS[ATNO][  8].a[  4] =         5.704620000000;     BAS[ATNO][  8].d[  4] =         0.006141253283;
  BAS[ATNO][  8].a[  5] =         2.980220000000;     BAS[ATNO][  8].d[  5] =        -0.132709130576;
  BAS[ATNO][  8].a[  6] =         1.519700000000;     BAS[ATNO][  8].d[  6] =        -0.137790420466;
  BAS[ATNO][  8].a[  7] =       750.222000000000;     BAS[ATNO][  8].d[  7] =         0.000008494972;
  BAS[ATNO][  8].a[  8] =       163.961000000000;     BAS[ATNO][  8].d[  8] =         0.000066979616;
  BAS[ATNO][  8].a[  9] =        16.922700000000;     BAS[ATNO][  8].d[  9] =         0.013622510569;
  BAS[ATNO][  8].a[ 10] =        10.575500000000;     BAS[ATNO][  8].d[ 10] =        -0.043816431881;
  BAS[ATNO][  8].a[ 11] =         5.704620000000;     BAS[ATNO][  8].d[ 11] =        -0.003746284342;
  BAS[ATNO][  8].a[ 12] =         2.980220000000;     BAS[ATNO][  8].d[ 12] =         0.080955159304;
  BAS[ATNO][  8].a[ 13] =         1.519700000000;     BAS[ATNO][  8].d[ 13] =         0.084054845292;
  BAS[ATNO][  8].a[ 14] =       750.222000000000;     BAS[ATNO][  8].d[ 14] =         0.000000847219;
  BAS[ATNO][  8].a[ 15] =       163.961000000000;     BAS[ATNO][  8].d[ 15] =         0.000006680000;
  BAS[ATNO][  8].a[ 16] =        16.922700000000;     BAS[ATNO][  8].d[ 16] =         0.001358597980;
  BAS[ATNO][  8].a[ 17] =        10.575500000000;     BAS[ATNO][  8].d[ 17] =        -0.004369893166;
  BAS[ATNO][  8].a[ 18] =         5.704620000000;     BAS[ATNO][  8].d[ 18] =        -0.000373623813;
  BAS[ATNO][  8].a[ 19] =         2.980220000000;     BAS[ATNO][  8].d[ 19] =         0.008073806612;
  BAS[ATNO][  8].a[ 20] =         1.519700000000;     BAS[ATNO][  8].d[ 20] =         0.008382943984;
  BAS[ATNO][  8].a[ 21] =        13.925457258000;     BAS[ATNO][  8].d[ 21] =         0.005312569913;
  BAS[ATNO][  8].a[ 22] =         4.232376665400;     BAS[ATNO][  8].d[ 22] =        -0.055857369992;
  BAS[ATNO][  8].a[ 23] =         1.454763072700;     BAS[ATNO][  8].d[ 23] =        -0.182253912738;
  BAS[ATNO][  8].a[ 24] =        13.925457258000;     BAS[ATNO][  8].d[ 24] =        -0.003240771315;
  BAS[ATNO][  8].a[ 25] =         4.232376665400;     BAS[ATNO][  8].d[ 25] =         0.034074085682;
  BAS[ATNO][  8].a[ 26] =         1.454763072700;     BAS[ATNO][  8].d[ 26] =         0.111178443227;
  BAS[ATNO][  8].a[ 27] =        13.925457258000;     BAS[ATNO][  8].d[ 27] =        -0.000323208071;
  BAS[ATNO][  8].a[ 28] =         4.232376665400;     BAS[ATNO][  8].d[ 28] =         0.003398271100;
  BAS[ATNO][  8].a[ 29] =         1.454763072700;     BAS[ATNO][  8].d[ 29] =         0.011088030185;
  BAS[ATNO][  8].a[ 30] =         0.755287836900;     BAS[ATNO][  8].d[ 30] =         0.690188793230;

  // Basis function  10 L = p
  InitBFNGauss(BAS[ATNO][  9]);
  BAS[ATNO][  9].l  = 1;
  BAS[ATNO][  9].ng = 31;
  BAS[ATNO][  9].a[  0] =       750.222000000000;     BAS[ATNO][  9].d[  0] =        -0.000011032143;
  BAS[ATNO][  9].a[  1] =       163.961000000000;     BAS[ATNO][  9].d[  1] =        -0.000086984241;
  BAS[ATNO][  9].a[  2] =        16.922700000000;     BAS[ATNO][  9].d[  2] =        -0.017691109903;
  BAS[ATNO][  9].a[  3] =        10.575500000000;     BAS[ATNO][  9].d[  3] =         0.056902970127;
  BAS[ATNO][  9].a[  4] =         5.704620000000;     BAS[ATNO][  9].d[  4] =         0.004865177214;
  BAS[ATNO][  9].a[  5] =         2.980220000000;     BAS[ATNO][  9].d[  5] =        -0.105133823403;
  BAS[ATNO][  9].a[  6] =         1.519700000000;     BAS[ATNO][  9].d[  6] =        -0.109159284436;
  BAS[ATNO][  9].a[  7] =       750.222000000000;     BAS[ATNO][  9].d[  7] =         0.000000105237;
  BAS[ATNO][  9].a[  8] =       163.961000000000;     BAS[ATNO][  9].d[  8] =         0.000000829753;
  BAS[ATNO][  9].a[  9] =        16.922700000000;     BAS[ATNO][  9].d[  9] =         0.000168757577;
  BAS[ATNO][  9].a[ 10] =        10.575500000000;     BAS[ATNO][  9].d[ 10] =        -0.000542804122;
  BAS[ATNO][  9].a[ 11] =         5.704620000000;     BAS[ATNO][  9].d[ 11] =        -0.000046409497;
  BAS[ATNO][  9].a[ 12] =         2.980220000000;     BAS[ATNO][  9].d[ 12] =         0.001002883902;
  BAS[ATNO][  9].a[ 13] =         1.519700000000;     BAS[ATNO][  9].d[ 13] =         0.001041283248;
  BAS[ATNO][  9].a[ 14] =       750.222000000000;     BAS[ATNO][  9].d[ 14] =         0.000000054851;
  BAS[ATNO][  9].a[ 15] =       163.961000000000;     BAS[ATNO][  9].d[ 15] =         0.000000432479;
  BAS[ATNO][  9].a[ 16] =        16.922700000000;     BAS[ATNO][  9].d[ 16] =         0.000087958881;
  BAS[ATNO][  9].a[ 17] =        10.575500000000;     BAS[ATNO][  9].d[ 17] =        -0.000282917331;
  BAS[ATNO][  9].a[ 18] =         5.704620000000;     BAS[ATNO][  9].d[ 18] =        -0.000024189299;
  BAS[ATNO][  9].a[ 19] =         2.980220000000;     BAS[ATNO][  9].d[ 19] =         0.000522717543;
  BAS[ATNO][  9].a[ 20] =         1.519700000000;     BAS[ATNO][  9].d[ 20] =         0.000542731835;
  BAS[ATNO][  9].a[ 21] =        13.925457258000;     BAS[ATNO][  9].d[ 21] =         0.004119889705;
  BAS[ATNO][  9].a[ 22] =         4.232376665400;     BAS[ATNO][  9].d[ 22] =        -0.043317303554;
  BAS[ATNO][  9].a[ 23] =         1.454763072700;     BAS[ATNO][  9].d[ 23] =        -0.141337625870;
  BAS[ATNO][  9].a[ 24] =        13.925457258000;     BAS[ATNO][  9].d[ 24] =        -0.000039300112;
  BAS[ATNO][  9].a[ 25] =         4.232376665400;     BAS[ATNO][  9].d[ 25] =         0.000413208851;
  BAS[ATNO][  9].a[ 26] =         1.454763072700;     BAS[ATNO][  9].d[ 26] =         0.001348236230;
  BAS[ATNO][  9].a[ 27] =        13.925457258000;     BAS[ATNO][  9].d[ 27] =        -0.000020483785;
  BAS[ATNO][  9].a[ 28] =         4.232376665400;     BAS[ATNO][  9].d[ 28] =         0.000215370408;
  BAS[ATNO][  9].a[ 29] =         1.454763072700;     BAS[ATNO][  9].d[ 29] =         0.000702720153;
  BAS[ATNO][  9].a[ 30] =         0.755287836900;     BAS[ATNO][  9].d[ 30] =         0.445651607145;

  // Basis function  11 L = p
  InitBFNGauss(BAS[ATNO][ 10]);
  BAS[ATNO][ 10].l  = 1;
  BAS[ATNO][ 10].ng = 31;
  BAS[ATNO][ 10].a[  0] =       750.222000000000;     BAS[ATNO][ 10].d[  0] =         0.000000153939;
  BAS[ATNO][ 10].a[  1] =       163.961000000000;     BAS[ATNO][ 10].d[  1] =         0.000001213751;
  BAS[ATNO][ 10].a[  2] =        16.922700000000;     BAS[ATNO][ 10].d[  2] =         0.000246856160;
  BAS[ATNO][ 10].a[  3] =        10.575500000000;     BAS[ATNO][ 10].d[  3] =        -0.000794006071;
  BAS[ATNO][ 10].a[  4] =         5.704620000000;     BAS[ATNO][ 10].d[  4] =        -0.000067887146;
  BAS[ATNO][ 10].a[  5] =         2.980220000000;     BAS[ATNO][ 10].d[  5] =         0.001467004163;
  BAS[ATNO][ 10].a[  6] =         1.519700000000;     BAS[ATNO][ 10].d[  6] =         0.001523174175;
  BAS[ATNO][ 10].a[  7] =       750.222000000000;     BAS[ATNO][ 10].d[  7] =        -0.000003506454;
  BAS[ATNO][ 10].a[  8] =       163.961000000000;     BAS[ATNO][ 10].d[  8] =        -0.000027647057;
  BAS[ATNO][ 10].a[  9] =        16.922700000000;     BAS[ATNO][ 10].d[  9] =        -0.005622939504;
  BAS[ATNO][ 10].a[ 10] =        10.575500000000;     BAS[ATNO][ 10].d[ 10] =         0.018086030801;
  BAS[ATNO][ 10].a[ 11] =         5.704620000000;     BAS[ATNO][ 10].d[ 11] =         0.001546347137;
  BAS[ATNO][ 10].a[ 12] =         2.980220000000;     BAS[ATNO][ 10].d[ 12] =        -0.033415717387;
  BAS[ATNO][ 10].a[ 13] =         1.519700000000;     BAS[ATNO][ 10].d[ 13] =        -0.034695169270;
  BAS[ATNO][ 10].a[ 14] =       750.222000000000;     BAS[ATNO][ 10].d[ 14] =         0.000037689123;
  BAS[ATNO][ 10].a[ 15] =       163.961000000000;     BAS[ATNO][ 10].d[ 15] =         0.000297164376;
  BAS[ATNO][ 10].a[ 16] =        16.922700000000;     BAS[ATNO][ 10].d[ 16] =         0.060438161709;
  BAS[ATNO][ 10].a[ 17] =        10.575500000000;     BAS[ATNO][ 10].d[ 17] =        -0.194397690658;
  BAS[ATNO][ 10].a[ 18] =         5.704620000000;     BAS[ATNO][ 10].d[ 18] =        -0.016620911227;
  BAS[ATNO][ 10].a[ 19] =         2.980220000000;     BAS[ATNO][ 10].d[ 19] =         0.359168817266;
  BAS[ATNO][ 10].a[ 20] =         1.519700000000;     BAS[ATNO][ 10].d[ 20] =         0.372921005016;
  BAS[ATNO][ 10].a[ 21] =        13.925457258000;     BAS[ATNO][ 10].d[ 21] =        -0.000077087594;
  BAS[ATNO][ 10].a[ 22] =         4.232376665400;     BAS[ATNO][ 10].d[ 22] =         0.000810513614;
  BAS[ATNO][ 10].a[ 23] =         1.454763072700;     BAS[ATNO][ 10].d[ 23] =         0.002644579891;
  BAS[ATNO][ 10].a[ 24] =        13.925457258000;     BAS[ATNO][ 10].d[ 24] =         0.001755916791;
  BAS[ATNO][ 10].a[ 25] =         4.232376665400;     BAS[ATNO][ 10].d[ 25] =        -0.018462042943;
  BAS[ATNO][ 10].a[ 26] =         1.454763072700;     BAS[ATNO][ 10].d[ 26] =        -0.060238775365;
  BAS[ATNO][ 10].a[ 27] =        13.925457258000;     BAS[ATNO][ 10].d[ 27] =        -0.018873470521;
  BAS[ATNO][ 10].a[ 28] =         4.232376665400;     BAS[ATNO][ 10].d[ 28] =         0.198439256927;
  BAS[ATNO][ 10].a[ 29] =         1.454763072700;     BAS[ATNO][ 10].d[ 29] =         0.647476439024;
  BAS[ATNO][ 10].a[ 30] =         0.755287836900;     BAS[ATNO][ 10].d[ 30] =        -0.014819240179;

  // Basis function  12 L = p
  InitBFNGauss(BAS[ATNO][ 11]);
  BAS[ATNO][ 11].l  = 1;
  BAS[ATNO][ 11].ng = 31;
  BAS[ATNO][ 11].a[  0] =       750.222000000000;     BAS[ATNO][ 11].d[  0] =        -0.000001391818;
  BAS[ATNO][ 11].a[  1] =       163.961000000000;     BAS[ATNO][ 11].d[  1] =        -0.000010973958;
  BAS[ATNO][ 11].a[  2] =        16.922700000000;     BAS[ATNO][ 11].d[  2] =        -0.002231915668;
  BAS[ATNO][ 11].a[  3] =        10.575500000000;     BAS[ATNO][ 11].d[  3] =         0.007178895573;
  BAS[ATNO][ 11].a[  4] =         5.704620000000;     BAS[ATNO][ 11].d[  4] =         0.000613792199;
  BAS[ATNO][ 11].a[  5] =         2.980220000000;     BAS[ATNO][ 11].d[  5] =        -0.013263714315;
  BAS[ATNO][ 11].a[  6] =         1.519700000000;     BAS[ATNO][ 11].d[  6] =        -0.013771567671;
  BAS[ATNO][ 11].a[  7] =       750.222000000000;     BAS[ATNO][ 11].d[  7] =         0.000031703120;
  BAS[ATNO][ 11].a[  8] =       163.961000000000;     BAS[ATNO][ 11].d[  8] =         0.000249967023;
  BAS[ATNO][ 11].a[  9] =        16.922700000000;     BAS[ATNO][ 11].d[  9] =         0.050839025873;
  BAS[ATNO][ 11].a[ 10] =        10.575500000000;     BAS[ATNO][ 11].d[ 10] =        -0.163522333333;
  BAS[ATNO][ 11].a[ 11] =         5.704620000000;     BAS[ATNO][ 11].d[ 11] =        -0.013981082681;
  BAS[ATNO][ 11].a[ 12] =         2.980220000000;     BAS[ATNO][ 11].d[ 12] =         0.302123563614;
  BAS[ATNO][ 11].a[ 13] =         1.519700000000;     BAS[ATNO][ 11].d[ 13] =         0.313691549950;
  BAS[ATNO][ 11].a[ 14] =       750.222000000000;     BAS[ATNO][ 11].d[ 14] =        -0.000340760967;
  BAS[ATNO][ 11].a[ 15] =       163.961000000000;     BAS[ATNO][ 11].d[ 15] =        -0.002686770391;
  BAS[ATNO][ 11].a[ 16] =        16.922700000000;     BAS[ATNO][ 11].d[ 16] =        -0.546443237326;
  BAS[ATNO][ 11].a[ 17] =        10.575500000000;     BAS[ATNO][ 11].d[ 17] =         1.757619696036;
  BAS[ATNO][ 11].a[ 18] =         5.704620000000;     BAS[ATNO][ 11].d[ 18] =         0.150275658317;
  BAS[ATNO][ 11].a[ 19] =         2.980220000000;     BAS[ATNO][ 11].d[ 19] =        -3.247374931728;
  BAS[ATNO][ 11].a[ 20] =         1.519700000000;     BAS[ATNO][ 11].d[ 20] =        -3.371713425518;
  BAS[ATNO][ 11].a[ 21] =        13.925457258000;     BAS[ATNO][ 11].d[ 21] =        -0.000611543307;
  BAS[ATNO][ 11].a[ 22] =         4.232376665400;     BAS[ATNO][ 11].d[ 22] =         0.006429882582;
  BAS[ATNO][ 11].a[ 23] =         1.454763072700;     BAS[ATNO][ 11].d[ 23] =         0.020979707048;
  BAS[ATNO][ 11].a[ 24] =        13.925457258000;     BAS[ATNO][ 11].d[ 24] =         0.013929856957;
  BAS[ATNO][ 11].a[ 25] =         4.232376665400;     BAS[ATNO][ 11].d[ 25] =        -0.146461164125;
  BAS[ATNO][ 11].a[ 26] =         1.454763072700;     BAS[ATNO][ 11].d[ 26] =        -0.477880004550;
  BAS[ATNO][ 11].a[ 27] =        13.925457258000;     BAS[ATNO][ 11].d[ 27] =        -0.149725058661;
  BAS[ATNO][ 11].a[ 28] =         4.232376665400;     BAS[ATNO][ 11].d[ 28] =         1.574237729634;
  BAS[ATNO][ 11].a[ 29] =         1.454763072700;     BAS[ATNO][ 11].d[ 29] =         5.136492925565;
  BAS[ATNO][ 11].a[ 30] =         0.755287836900;     BAS[ATNO][ 11].d[ 30] =        -0.002806092789;

-------------------------------------------
RADIAL EXPECTATION VALUES <R**-3> TO <R**3>
-------------------------------------------
   0 :     0.000000     2.433419     1.472817     0.738601     0.590806     0.511582
   1 :     3.706206     2.150852     1.398062     0.780844     0.663348     0.618171
   2 :     3.706206     2.150852     1.398062     0.780844     0.663348     0.618171
   3 :     3.710203     2.152396     1.398586     0.780512     0.662777     0.617605
   4 :     0.000000     0.849973     0.794418     1.477596     2.409669     4.236487
   5 :     0.962575     0.695714     0.728561     1.612114     2.875389     5.553900
   6 :     0.962575     0.695714     0.728561     1.612114     2.875389     5.553900
   7 :     0.000000     0.222940     0.378566     3.173370    11.165796    42.630800
   8 :     0.000000     0.111676     0.254303     4.844585    25.866083   146.409999
   9 :     0.000000     0.435333     0.484279     3.037290    12.037881    57.809124
  10 :     0.000000     3.276797     1.472240     1.175410     2.602940     9.547345
  11 :     0.974731     0.702246     0.732170     1.603606     2.843557     5.457323
  12 :     0.174506     0.166195     0.328763     3.680109    15.138579    68.137423
  13 :     0.178331     0.169241     0.332049     3.635791    14.729690    65.082619
  14 :     0.178331     0.169241     0.332049     3.635791    14.729690    65.082619
  15 :     0.100309     0.100917     0.242111     5.245854    30.936932   195.410163
  16 :     0.086316     0.091408     0.233430     5.338603    31.744879   201.292228
  17 :     0.086316     0.091408     0.233430     5.338603    31.744879   201.292228
  18 :     0.717473     0.471113     0.522215     2.904092    11.399622    56.171374
  19 :     0.717473     0.471113     0.522215     2.904092    11.399622    56.171374
  20 :     0.693269     0.457133     0.512824     2.961308    11.830978    59.095515
  21 :    45.022981    10.452409     2.954049     0.425582     0.251751     0.229177
  22 :    45.022981    10.452409     2.954049     0.425582     0.251751     0.229177
  23 :    45.020864    10.451850     2.953914     0.425636     0.251857     0.229439
  24 :     0.000000    29.032965     4.403774     0.408726     0.518251     1.722045
Making the total density                ... o.k.
o.k.
Initializing the integrals              ... done
Making exponents                        ... done
Making rho(0)                           ... done (         0.712300915)
Integral calculation                    ... Two index integrals                     ... done
Solving the equation system             ... done
atomic density will be written to file 52_Te_atom52.adf

-------
TIMINGS
-------

Total SCF time: 0 days 0 hours 0 min 0 sec 

Total time                  ....       0.624 sec
Sum of individual times     ....       0.225 sec  ( 36.0%)

Fock matrix formation       ....       0.159 sec  ( 25.5%)
Diagonalization             ....       0.028 sec  (  4.5%)
Density matrix formation    ....       0.000 sec  (  0.1%)
Population analysis         ....       0.000 sec  (  0.0%)
Initial guess               ....       0.000 sec  (  0.0%)
Orbital Transformation      ....       0.000 sec  (  0.0%)
Orbital Orthonormalization  ....       0.000 sec  (  0.0%)
DIIS solution               ....       0.037 sec  (  5.9%)

-------------------------   --------------------
FINAL SINGLE POINT ENERGY      -234.261171734672
-------------------------   --------------------


                            ***************************************
                            *     ORCA property calculations      *
                            ***************************************

                                    ---------------------
                                    Active property flags
                                    ---------------------
   (+) Dipole Moment


------------------------------------------------------------------------------
                       ORCA ELECTRIC PROPERTIES CALCULATION
------------------------------------------------------------------------------

Dipole Moment Calculation                       ... on
Quadrupole Moment Calculation                   ... off
Polarizability Calculation                      ... off
GBWName                                         ... 52_Te_atom52.gbw
Electron density file                           ... 52_Te_atom52.scfp
The origin for moment calculation is the CENTER OF MASS  = ( 0.000000,  0.000000  0.000000)

-------------
DIPOLE MOMENT
-------------
                                X             Y             Z
Electronic contribution:      0.00000      -0.00000       0.00000
Nuclear contribution   :      0.00000       0.00000       0.00000
                        -----------------------------------------
Total Dipole Moment    :      0.00000      -0.00000       0.00000
                        -----------------------------------------
Magnitude (a.u.)       :      0.00000
Magnitude (Debye)      :      0.00000



--------------------
Rotational spectrum 
--------------------
 
Rotational constants in cm-1:     0.000000     0.000000     0.000000 
Rotational constants in MHz :     0.000000     0.000000     0.000000 

 Dipole components along the rotational axes: 
x,y,z [a.u.] :     0.000000    -0.000000     0.000000 
x,y,z [Debye]:     0.000000    -0.000000     0.000000 

 

Timings for individual modules:

Sum of individual times         ...        0.895 sec (=   0.015 min)
GTO integral calculation        ...        0.254 sec (=   0.004 min)  28.4 %
SCF iterations                  ...        0.641 sec (=   0.011 min)  71.6 %
                             ****ORCA TERMINATED NORMALLY****
TOTAL RUN TIME: 0 days 0 hours 0 minutes 1 seconds 97 msec
