
                                 *****************
                                 * O   R   C   A *
                                 *****************

           --- An Ab Initio, DFT and Semiempirical electronic structure package ---

                  #######################################################
                  #                        -***-                        #
                  #          Department of theory and spectroscopy      #
                  #               Directorship: Frank Neese             #
                  #        Max Planck Institute fuer Kohlenforschung    #
                  #                Kaiser Wilhelm Platz 1               #
                  #                 D-45470 Muelheim/Ruhr               #
                  #                      Germany                        #
                  #                                                     #
                  #                  All rights reserved                #
                  #                        -***-                        #
                  #######################################################


                         Program Version 4.2.0 -  RELEASE  -


 With contributions from (in alphabetic order):
   Daniel Aravena         : Magnetic Suceptibility
   Michael Atanasov       : Ab Initio Ligand Field Theory (pilot matlab implementation)
   Alexander A. Auer      : GIAO ZORA, VPT2
   Ute Becker             : Parallelization
   Giovanni Bistoni       : ED, misc. LED, open-shell LED, HFLED
   Martin Brehm           : Molecular dynamics
   Dmytro Bykov           : SCF Hessian
   Vijay G. Chilkuri      : MRCI spin determinant printing, contributions to CSF-ICE
   Dipayan Datta          : RHF DLPNO-CCSD density
   Achintya Kumar Dutta   : EOM-CC, STEOM-CC
   Dmitry Ganyushin       : Spin-Orbit,Spin-Spin,Magnetic field MRCI
   Miquel Garcia          : C-PCM Hessian, Gaussian charge scheme
   Yang Guo               : DLPNO-NEVPT2, CIM, IAO-localization
   Andreas Hansen         : Spin unrestricted coupled pair/coupled cluster methods
   Benjamin Helmich-Paris : CASSCF linear response (MC-RPA)
   Lee Huntington         : MR-EOM, pCC
   Robert Izsak           : Overlap fitted RIJCOSX, COSX-SCS-MP3, EOM
   Christian Kollmar      : KDIIS, OOCD, Brueckner-CCSD(T), CCSD density
   Simone Kossmann        : Meta GGA functionals, TD-DFT gradient, OOMP2, MP2 Hessian
   Martin Krupicka        : AUTO-CI
   Lucas Lang             : DCDCAS
   Dagmar Lenk            : GEPOL surface, SMD
   Dimitrios Liakos       : Extrapolation schemes; Compound Job, initial MDCI parallelization
   Dimitrios Manganas     : Further ROCIS development; embedding schemes
   Dimitrios Pantazis     : SARC Basis sets
   Taras Petrenko         : DFT Hessian,TD-DFT gradient, ASA, ECA, R-Raman, ABS, FL, XAS/XES, NRVS
   Peter Pinski           : DLPNO-MP2, DLPNO-MP2 Gradient
   Christoph Reimann      : Effective Core Potentials
   Marius Retegan         : Local ZFS, SOC
   Christoph Riplinger    : Optimizer, TS searches, QM/MM, DLPNO-CCSD(T), (RO)-DLPNO pert. Triples
   Tobias Risthaus        : Range-separated hybrids, TD-DFT gradient, RPA, STAB
   Michael Roemelt        : Original ROCIS implementation
   Masaaki Saitow         : Open-shell DLPNO-CCSD energy and density
   Barbara Sandhoefer     : DKH picture change effects
   Avijit Sen             : IP-ROCIS
   Kantharuban Sivalingam : CASSCF convergence, NEVPT2, FIC-MRCI
   Bernardo de Souza      : ESD, SOC TD-DFT
   Georgi Stoychev        : AutoAux, RI-MP2 NMR
   Willem Van den Heuvel  : Paramagnetic NMR
   Boris Wezisla          : Elementary symmetry handling
   Frank Wennmohs         : Technical directorship


 We gratefully acknowledge several colleagues who have allowed us to
 interface, adapt or use parts of their codes:
   Stefan Grimme, W. Hujo, H. Kruse,             : VdW corrections, initial TS optimization,
                  C. Bannwarth                     DFT functionals, gCP, sTDA/sTD-DF
   Ed Valeev, F. Pavosevic, A. Kumar             : LibInt (2-el integral package), F12 methods
   Garnet Chan, S. Sharma, J. Yang, R. Olivares  : DMRG
   Ulf Ekstrom                                   : XCFun DFT Library
   Mihaly Kallay                                 : mrcc  (arbitrary order and MRCC methods)
   Andreas Klamt, Michael Diedenhofen            : otool_cosmo (COSMO solvation model)
   Jiri Pittner, Ondrej Demel                    : Mk-CCSD
   Frank Weinhold                                : gennbo (NPA and NBO analysis)
   Christopher J. Cramer and Donald G. Truhlar   : smd solvation model
   Lars Goerigk                                  : TD-DFT with DH, B97 family of functionals
   V. Asgeirsson, H. Jonsson                     : NEB implementation
   FAccTs GmbH                                   : IRC, NEB, NEB-TS, Multilevel, MM, QM/MM, CI optimization
   S Lehtola, MJT Oliveira, MAL Marques          : LibXC Library


 Your calculation uses the libint2 library for the computation of 2-el integrals
 For citations please refer to: http://libint.valeyev.net

 Your ORCA version has been built with support for libXC version: 4.2.3
 For citations please refer to: https://tddft.org/programs/libxc/

 This ORCA versions uses:
   CBLAS   interface :  Fast vector & matrix operations
   LAPACKE interface :  Fast linear algebra routines
   SCALAPACK package :  Parallel linear algebra routines


----- Orbital basis set information -----
Your calculation utilizes the basis: def2-SVP
   F. Weigend and R. Ahlrichs, Phys. Chem. Chem. Phys. 7, 3297 (2005).

----- AuxJ basis set information -----
Your calculation utilizes the auxiliary basis: def2/J
   F. Weigend, Phys. Chem. Chem. Phys. 8, 1057 (2006).

================================================================================
                                        WARNINGS
                       Please study these warnings very carefully!
================================================================================


INFO   : the flag for use of LIBINT has been found!

================================================================================
                                       INPUT FILE
================================================================================
NAME = 54_Xe_atom54.inp
|  1> # input to generate an atomic fitting density for Xe
|  2> # this file is use internally by ORCA
|  3> #
|  4> # atomic ground state (S=1): 1s2 2s2 2p6 3s2 3p6 4s2 3d10 4p6 5s2 4d10 5p6 
|  5> #
|  6> ! RHF AllowRHF def2-SVP def2/J  NoMulliken NoLoewdin NoMayer NoPrintMOs 
|  7> 
|  8> %output print[p_atomdensfit] 2 end
|  9> 
| 10> %scf
| 11>   guess hcore
| 12>   maxiter 1000
| 13>   maxdisk 500000
| 14>   SCFMode Conventional
| 15>   lshift 1.000000
| 16>   hftyp rohf
| 17>   rohf_case sahf
| 18>   rohf_numop   2
| 19>   rohf_norb[1] 3
| 20>   rohf_nel[1]  6
| 21> end
| 22> 
| 23> %basis
| 24>   NewECP 54
| 25>     N_core 28
| 26>     lmax f
| 27>     s 7
| 28>       1      40.0051840000     49.9979620000  2
| 29>       2      17.8122140000    281.0133030000  2
| 30>       3       9.3041500000     61.5382550000  2
| 31>       4      20.8815570000     23.0892950000  2
| 32>       5      20.7834430000     30.0744750000  2
| 33>       6       5.2533890000      0.2882270000  2
| 34>       7       5.3611880000      0.3869240000  2
| 35>     p 8
| 36>       1      15.7017720000     67.4391420000  2
| 37>       2      15.2586080000    134.8747110000  2
| 38>       3       9.2921840000     14.6633000000  2
| 39>       4       8.5590030000     29.3547300000  2
| 40>       5      20.8815570000     23.0892950000  2
| 41>       6      20.7834430000     30.0744750000  2
| 42>       7       5.2533890000      0.2882270000  2
| 43>       8       5.3611880000      0.3869240000  2
| 44>     d 10
| 45>       1      15.1856000000     35.4369080000  2
| 46>       2      14.2845000000     53.1957720000  2
| 47>       3       7.1218890000      9.0462320000  2
| 48>       4       6.9919630000     13.2236810000  2
| 49>       5       0.6239460000      0.0848530000  2
| 50>       6       0.6472840000      0.0441550000  2
| 51>       7      20.8815570000     23.0892950000  2
| 52>       8      20.7834430000     30.0744750000  2
| 53>       9       5.2533890000      0.2882270000  2
| 54>      10       5.3611880000      0.3869240000  2
| 55>     f 4
| 56>       1      20.8815570000    -23.0892950000  2
| 57>       2      20.7834430000    -30.0744750000  2
| 58>       3       5.2533890000     -0.2882270000  2
| 59>       4       5.3611880000     -0.3869240000  2
| 60>   end
| 61>   NewGTO 54
| 62>     s 9 
| 63>      1   18774.3000000000      0.0002098474
| 64>      2    2824.8100000000      0.0015460814
| 65>      3     640.0880000000      0.0064713228
| 66>      4     172.6160000000      0.0138653569
| 67>      5      29.5169000000     -0.1455075542
| 68>      6      18.4448000000      1.1542624130
| 69>      7      11.5238000000     -1.5825763401
| 70>      8       6.6189000000     -1.4770292813
| 71>      9       2.9955200000      1.8407040442
| 72>     s 1 
| 73>      1       1.6532586536      1.0000000000
| 74>     s 3 
| 75>      1      27.0521718350      0.2698370333
| 76>      2      20.9406224150     -0.5800955323
| 77>      3       6.0024591071      1.2407647072
| 78>     s 1 
| 79>      1       0.8755388927      1.0000000000
| 80>     s 1 
| 81>      1       0.4103361665      1.0000000000
| 82>     s 1 
| 83>      1       0.1949358578      1.0000000000
| 84>     s 1 
| 85>      1       0.0901710930      1.0000000000
| 86>     p 7 
| 87>      1     613.3310000000      0.0001532348
| 88>      2     141.7100000000      0.0009471688
| 89>      3      20.3106000000      0.0610984931
| 90>      4      11.0331000000     -0.2809171554
| 91>      5       6.8951300000      0.0108219307
| 92>      6       3.2416600000      0.5849538901
| 93>      7       1.6653500000      0.5572328251
| 94>     p 3 
| 95>      1      18.3889084130     -0.0270339421
| 96>      2       6.1139045431      0.2786237330
| 97>      3       1.8729815691      0.8043463625
| 98>     p 1 
| 99>      1       0.8200466599      1.0000000000
|100>     p 1 
|101>      1       0.3955264825      1.0000000000
|102>     p 1 
|103>      1       0.1744550981      1.0000000000
|104>     p 1 
|105>      1       0.0733899927      1.0000000000
|106>   end
|107>   NewAuxGTO 54
|108>     S 1
|109>      1 1310.72 1.0
|110>     S 1
|111>      1  655.36 1.0
|112>     S 1
|113>      1  327.68 1.0
|114>     S 1
|115>      1  163.84 1.0
|116>     S 1
|117>      1   81.82 1.0
|118>     S 1
|119>      1   40.96 1.0
|120>     S 1
|121>      1   20.48 1.0
|122>     S 1
|123>      1   10.24 1.0
|124>     S 1
|125>      1    5.12 1.0
|126>     S 1
|127>      1    2.56 1.0
|128>     S 1
|129>      1    1.28 1.0
|130>     S 1
|131>      1    0.64 1.0
|132>     S 1
|133>      1    0.32 1.0
|134>     S 1
|135>      1    0.16 1.0
|136>     S 1
|137>      1    0.08 1.0
|138>     S 1
|139>      1    0.04 1.0
|140>     S 1
|141>      1    0.02 1.0
|142>     S 1
|143>      1    0.01 1.0
|144>   end
|145> end
|146> 
|147> * xyz 0 1
|148> 54  0.0 0.0 0.0
|149> *
|150> 
|151> 
|152>                          ****END OF INPUT****
================================================================================

                       ****************************
                       * Single Point Calculation *
                       ****************************

---------------------------------
CARTESIAN COORDINATES (ANGSTROEM)
---------------------------------
  Xe     0.000000    0.000000    0.000000

----------------------------
CARTESIAN COORDINATES (A.U.)
----------------------------
  NO LB      ZA    FRAG     MASS         X           Y           Z
   0 Xe   26.0000*   0   131.300    0.000000    0.000000    0.000000
* core charge reduced due to ECP

--------------------------------
INTERNAL COORDINATES (ANGSTROEM)
--------------------------------
 Xe     0   0   0     0.000000000000     0.00000000     0.00000000

---------------------------
INTERNAL COORDINATES (A.U.)
---------------------------
 Xe     0   0   0     0.000000000000     0.00000000     0.00000000

---------------------
BASIS SET INFORMATION
---------------------
There are 1 groups of distinct atoms

 Group   1 Type Xe  : 17s14p contracted to 7s6p pattern {9131111/731111}

Atom   0Xe   basis set group =>   1
---------------------------------
AUXILIARY/J BASIS SET INFORMATION
---------------------------------
There are 1 groups of distinct atoms

 Group   1 Type Xe  : 18s contracted to 18s pattern {111111111111111111}

Atom   0Xe   basis set group =>   1
-------------------------
ECP PARAMETER INFORMATION
-------------------------

 Group 1, Type Xe ECP (replacing 28 core electrons, lmax=3)

Atom   0Xe   ECP group =>   1

------------------------------------------------------------------------------
                           ORCA GTO INTEGRAL CALCULATION
------------------------------------------------------------------------------

                         BASIS SET STATISTICS AND STARTUP INFO

 # of primitive gaussian shells          ...   31
 # of primitive gaussian functions       ...   59
 # of contracted shells                  ...   13
 # of contracted basis functions         ...   25
 Highest angular momentum                ...    1
 Maximum contraction depth               ...    9
 Integral package used                   ... LIBINT
 Integral threshhold            Thresh   ...  1.000e-10
 Primitive cut-off              TCut     ...  1.000e-11
 Storage cut-off                TCutStore... -1.000e+00
 Buffer length                           ... 1048576 integrals/buffer
 Generate file with integrals 4 distinct ...false


------------------------------ INTEGRAL EVALUATION ----------------------------


 * One electron integrals 

   ECP integrals                         ... done
 Pre-screening matrix                    ... done
 Shell pair data                         ... done (   0.000 sec)
 Statistics run                          ... done
 Maximum amount of storage needed        ...     0 MB
 Maximum amount of storage dedicated     ... 500000 MB
 Beginning two electron integral evaluation:
 Starting repulsion integrals
  <ss|ss>  ...          406 b.         0 skpd (  0.0%)     0.000 s. (  0.001 ms/b)
  <ss|sp>  ...         1176 b.         0 skpd (  0.0%)     0.001 s. (  0.001 ms/b)
  <ss|pp>  ...          588 b.         0 skpd (  0.0%)     0.002 s. (  0.004 ms/b)
  <sp|sp>  ...          903 b.         0 skpd (  0.0%)     0.002 s. (  0.003 ms/b)
  <sp|pp>  ...          882 b.         0 skpd (  0.0%)     0.004 s. (  0.005 ms/b)
  <pp|pp>  ...          231 b.         0 skpd (  0.0%)     0.003 s. (  0.013 ms/b)


                                      INTEGRAL STATISTICS

Integral type statistics:
 Number of integrals retained            ...      52975 
 One   Center Integrals retained         ...      52975 (100.0%)
 Two   Center Integrals retained         ...          0 (  0.0%)
 Three Center Integrals retained         ...          0 (  0.0%)
 Four  Center Integrals retained         ...          0 (  0.0%)

Storage statistics:
 Number of char integrals                ...          0 (  0.0%)
 Number of short int integrals           ...          0 (  0.0%)
 Number of double/float integrals        ...      52975 (100.0%)
 Amount of memory used                   ...          0 MB
 Amount of memory estimated              ...          0 MB ( 95.8%)

Prescreening statistics:
 Total number of shell quadruples        ...       4186 
 Number of skipped shell quadruples      ...          0 (  0.0%)
 # of negligible batches done            ...          0 (  0.0%)

Timings:
 Total evaluation time               ...     0.178 sec (   0.003 min)
 One electron matrix time            ...     0.015 sec (   0.000 min) =  8.2%
 Schwartz matrix evaluation time     ...     0.076 sec (   0.001 min) = 42.6%
 Statistics run                      ...     0.001 sec (   0.000 min) =  0.3%
 Repulsion integral time             ...     0.013 sec (   0.000 min) =  7.6%

-------------------------------------------------------------------------------
                                 ORCA SCF
-------------------------------------------------------------------------------

------------
SCF SETTINGS
------------
Hamiltonian:
 Ab initio Hamiltonian  Method          .... Hartree-Fock(GTOs)


General Settings:
 Integral files         IntName         .... 54_Xe_atom54
 Hartree-Fock type      HFTyp           .... ROHF
 Total Charge           Charge          ....    0
 Multiplicity           Mult            ....    1
 Number of Electrons    NEL             ....   26
 Basis Dimension        Dim             ....   25
 Nuclear Repulsion      ENuc            ....      0.0000000000 Eh

Convergence Acceleration:
 DIIS                   CNVDIIS         .... on
   Start iteration      DIISMaxIt       ....    12
   Startup error        DIISStart       ....  0.200000
   # of expansion vecs  DIISMaxEq       ....     5
   Bias factor          DIISBfac        ....   1.050
   Max. coefficient     DIISMaxC        ....  10.000
 Newton-Raphson         CNVNR           .... off
 SOSCF                  CNVSOSCF        .... off
 Level Shifting         CNVShift        .... on
   Level shift para.    LevelShift      ....    1.0000
   Turn off err/grad.   ShiftErr        ....    0.0010
 Zerner damping         CNVZerner       .... off
 Static damping         CNVDamp         .... on
   Fraction old density DampFac         ....    0.7000
   Max. Damping (<1)    DampMax         ....    0.9800
   Min. Damping (>=0)   DampMin         ....    0.0000
   Turn off err/grad.   DampErr         ....    0.1000
 Fernandez-Rico         CNVRico         .... off

SCF Procedure:
 Maximum # iterations   MaxIter         ....  1000
 SCF integral mode      SCFMode         .... Conventional
 Integral Threshold     Thresh          ....  1.000e-10 Eh
 Primitive CutOff       TCut            ....  1.000e-11 Eh
 Integral Buffer length BufferLength    .... 1048576
 Integral index format  IndFormat       ....     0
 Integral value format  ValFormat       ....     0
 Integral Storage       Thresh          ....  1.000e-10 Eh

Convergence Tolerance:
 Convergence Check Mode ConvCheckMode   .... Total+1el-Energy
 Convergence forced     ConvForced      .... 0
 Energy Change          TolE            ....  1.000e-06 Eh
 1-El. energy change                    ....  1.000e-03 Eh
 DIIS Error             TolErr          ....  1.000e-06


Diagonalization of the overlap matrix:
Smallest eigenvalue                        ... 1.205e-03
Time for diagonalization                   ...    0.000 sec
Threshold for overlap eigenvalues          ... 1.000e-08
Number of eigenvalues below threshold      ... 0
Time for construction of square roots      ...    0.002 sec
Total time needed                          ...    0.002 sec

--------------------
INITIAL GUESS: HCORE
--------------------
AVERAGE-CONFIGURATION (SAHF) CASE FOUND

-------------------
FINAL ROHF SETTINGS
-------------------
Number of operators             ... 2
  operator   0:  10 orbitals  20 electrons n(mue)= 2.000
  operator   1:   3 orbitals   6 electrons n(mue)= 2.000
Vector coupling coefficients a and b (Zerner convention):
   1.000    1.000           1.000    1.000 
   1.000    1.000           1.000    1.000 

                      -----------------
                      INTIAL GUESS DONE 
                      -----------------

 InCore treatment chosen:
   Memory dedicated               ...    1024 MB
   Memory needed                  ...      0 MB
   Number of tiny    integrals    ...       0
   Number of small   integrals    ...       0
   Number of regular integrals    ...   52975

--------------
SCF ITERATIONS
--------------
ITER       Energy         Delta-E        Max-DP      RMS-DP      [F,P]     Damp
  0   -270.0958757287   0.00000000000015.39560259  0.89721346  3.2113155 0.7000
  1   -275.6533993993  -5.55752367063616.44182384  0.95699686  0.7798972 0.7000
  2   -278.6888567054  -3.03545730608911.49277935  0.71729217  0.8376971 0.7000
  3   -280.5377013786  -1.848844673148 7.98242645  0.50498282  0.2968806 0.7000
                            ****Activating DIIS****
  4   -281.4371267880  -0.899425409482 5.44015773  0.36519988  0.1245560 0.7000
  5   -282.0233871478  -0.58626035972412.62981040  0.83080611  0.0545588 0.0000
  6   -283.2471016361  -1.223714488349 2.48426816  0.13005516  0.0794185 0.0000
  7   -283.2653486719  -0.018247035794 1.82034671  0.09539428  0.0485252 0.0000
  8   -283.2745951336  -0.009246461682 0.38629088  0.02058993  0.0173501 0.0000
  9   -283.2759366350  -0.001341501393 0.19049423  0.01003331  0.0045133 0.0000
 10   -283.2760891892  -0.000152554270 0.11238594  0.00599326  0.0026318 0.0000
 11   -283.2761357953  -0.000046606023 0.04805382  0.00255829  0.0016542 0.0000
 12   -283.2761469523  -0.000011157065 0.01812453  0.00096621  0.0012992 0.0000
 13   -283.2761520022  -0.000005049895 0.02609061  0.00138299  0.0008947 0.0000
 14   -283.2761546582  -0.000002655926 0.01419237  0.00075170  0.0003718 0.0000
                 **** Energy Check signals convergence ****

               *****************************************************
               *                     SUCCESS                       *
               *           SCF CONVERGED AFTER  15 CYCLES          *
               *****************************************************


----------------
TOTAL SCF ENERGY
----------------

Total Energy       :         -283.27615522 Eh           -7708.33607 eV

Components:
Nuclear Repulsion  :            0.00000000 Eh               0.00000 eV
Electronic Energy  :         -283.27615522 Eh           -7708.33607 eV
One Electron Energy:         -446.71641775 Eh          -12155.77171 eV
Two Electron Energy:          163.44026253 Eh            4447.43565 eV

Virial components:
Potential Energy   :         -366.26618960 Eh           -9966.60971 eV
Kinetic Energy     :           82.99003438 Eh            2258.27364 eV
Virial Ratio       :            4.41337556


---------------
SCF CONVERGENCE
---------------

  Last Energy change         ...   -5.5978e-07  Tolerance :   1.0000e-06
  Last MAX-Density change    ...    2.8178e-03  Tolerance :   1.0000e-05
  Last RMS-Density change    ...    1.5675e-04  Tolerance :   1.0000e-06
  Last DIIS Error            ...    1.2603e-04  Tolerance :   1.0000e-06

             **** THE GBW FILE WAS UPDATED (54_Xe_atom54.gbw) ****
             **** DENSITY FILE WAS UPDATED (54_Xe_atom54.scfp) ****
             **** ENERGY FILE WAS UPDATED (54_Xe_atom54.en.tmp) ****
             **** THE GBW FILE WAS UPDATED (54_Xe_atom54.gbw) ****
             **** DENSITY FILE WAS UPDATED (54_Xe_atom54.scfp) ****
----------------
ORBITAL ENERGIES
----------------

  NO   OCC          E(Eh)            E(eV) 
   0   2.0000     -13.530014      -368.1704 
   1   2.0000     -10.926670      -297.3298 
   2   2.0000     -10.926665      -297.3297 
   3   2.0000     -10.923601      -297.2463 
   4   2.0000      -3.660399       -99.6045 
   5   2.0000      -2.666942       -72.5712 
   6   2.0000      -2.666940       -72.5711 
   7   2.0000      -2.215066       -60.2750 
   8   2.0000      -0.417914       -11.3720 
   9   2.0000      -0.417903       -11.3717 
  10   2.0000      -0.872851       -23.7515 
  11   2.0000      -0.771824       -21.0024 
  12   2.0000       0.079787         2.1711 
  13   0.0000       0.267706         7.2846 
  14   0.0000       0.267706         7.2847 
  15   0.0000       0.267713         7.2848 
  16   0.0000       1.539962        41.9045 
  17   0.0000       1.539963        41.9045 
  18   0.0000       1.539964        41.9046 
  19   0.0000       1.832973        49.8777 
  20   0.0000      16.540285       450.0840 
  21   0.0000      33.297840       906.0803 
  22   0.0000      33.297841       906.0803 
  23   0.0000      33.297842       906.0803 
  24   0.0000      84.118228      2288.9733 
CleanUpVectors: The p-vectors have cracked symmetry
CleanUpVectors: The p-vectors have cracked symmetry
CleanUpVectors: The p-vectors have cracked symmetry
CleanUpVectors: The p-vectors have cracked symmetry
CleanUpVectors: The p-vectors have cracked symmetry
CleanUpVectors: The p-vectors have cracked symmetry
CleanUpVectors: The p-vectors have cracked symmetry
CleanUpVectors: The p-vectors have cracked symmetry
CleanUpVectors: The p-vectors have cracked symmetry
CleanUpVectors: The p-vectors have cracked symmetry
CleanUpVectors: The p-vectors have cracked symmetry
CleanUpVectors: The p-vectors have cracked symmetry
--------------------------
ATOM BASIS FOR ELEMENT Xe
--------------------------
 NewGTO Xe
 S 17
    1      18774.299999999999         0.000080394810
    2       2824.810000000000         0.000592320520
    3        640.088000000000         0.002479233813
    4        172.616000000000         0.005311968312
    5         29.516900000000        -0.055745519040
    6         18.444800000000         0.442210424569
    7         11.523800000000        -0.606302126264
    8          6.618900000000        -0.565865905559
    9          2.995520000000         0.705193643771
   10          1.653258653600         0.896222158611
   11         27.052171835000         0.021921674433
   12         20.940622415000        -0.047127205794
   13          6.002459107100         0.100800248308
   14          0.875538892700        -0.199022703579
   15          0.410336166500         0.171433118010
   16          0.194935857800        -0.106817200881
   17          0.090171093000         0.024243160279
 P 31
    1        613.331000000000        -0.000120620858
    2        141.710000000000        -0.000745576808
    3         20.310600000000        -0.048094510171
    4         11.033100000000         0.221127761131
    5          6.895130000000        -0.008518629998
    6          3.241660000000        -0.460454413682
    7          1.665350000000        -0.438633400185
    8        613.331000000000        -0.000095653226
    9        141.710000000000        -0.000591247886
   10         20.310600000000        -0.038139299831
   11         11.033100000000         0.175355938812
   12          6.895130000000        -0.006755336159
   13          3.241660000000        -0.365143732195
   14          1.665350000000        -0.347839508211
   15        613.331000000000         0.000003546101
   16        141.710000000000         0.000021919019
   17         20.310600000000         0.001413918035
   18         11.033100000000        -0.006500877719
   19          6.895130000000         0.000250436995
   20          3.241660000000         0.013536779928
   21          1.665350000000         0.012895269610
   22         18.388908413000         0.001754702459
   23          6.113904543100        -0.018084737605
   24          1.872981569100        -0.052208018150
   25         18.388908413000         0.001391491938
   26          6.113904543100        -0.014341329758
   27          1.872981569100        -0.041401341873
   28         18.388908413000        -0.000051586043
   29          6.113904543100         0.000531668512
   30          1.872981569100         0.001534849990
   31          0.820046659900         0.140477537112
 S 17
    1      18774.299999999999         0.000066045606
    2       2824.810000000000         0.000486600661
    3        640.088000000000         0.002036729731
    4        172.616000000000         0.004363865858
    5         29.516900000000        -0.045795824261
    6         18.444800000000         0.363282847462
    7         11.523800000000        -0.498086771849
    8          6.618900000000        -0.464867777944
    9          2.995520000000         0.579327715241
   10          1.653258653600         1.656608969140
   11         27.052171835000         0.054927834177
   12         20.940622415000        -0.118083833102
   13          6.002459107100         0.252569179463
   14          0.875538892700        -1.729519995411
   15          0.410336166500        -0.177048848888
   16          0.194935857800        -0.426916801304
   17          0.090171093000         0.117987950064
 P 31
    1        613.331000000000        -0.000086034443
    2        141.710000000000        -0.000531792647
    3         20.310600000000        -0.034304053679
    4         11.033100000000         0.157722337968
    5          6.895130000000        -0.006076026966
    6          3.241660000000        -0.328425279043
    7          1.665350000000        -0.312861148840
    8        613.331000000000        -0.000068225945
    9        141.710000000000        -0.000421715475
   10         20.310600000000        -0.027203366558
   11         11.033100000000         0.125074972604
   12          6.895130000000        -0.004818334017
   13          3.241660000000        -0.260443658825
   14          1.665350000000        -0.248101189243
   15        613.331000000000         0.000002529304
   16        141.710000000000         0.000015634032
   17         20.310600000000         0.001008495839
   18         11.033100000000        -0.004636837473
   19          6.895130000000         0.000178627516
   20          3.241660000000         0.009655288279
   21          1.665350000000         0.009197722514
   22         18.388908413000         0.007226198290
   23          6.113904543100        -0.074476387330
   24          1.872981569100        -0.215002543379
   25         18.388908413000         0.005730428326
   26          6.113904543100        -0.059060322241
   27          1.872981569100        -0.170498596264
   28         18.388908413000        -0.000212441100
   29          6.113904543100         0.002189511696
   30          1.872981569100         0.006320803146
   31          0.820046659900         1.016317396196
 S 17
    1      18774.299999999999         0.000030446765
    2       2824.810000000000         0.000224320995
    3        640.088000000000         0.000938924413
    4        172.616000000000         0.002011725035
    5         29.516900000000        -0.021111695265
    6         18.444800000000         0.167471967025
    7         11.523800000000        -0.229616047147
    8          6.618900000000        -0.214302221320
    9          2.995520000000         0.267067803231
   10          1.653258653600         0.754544299410
   11         27.052171835000         0.038043902480
   12         20.940622415000        -0.081786764367
   13          6.002459107100         0.174933480940
   14          0.875538892700        -0.560165306323
   15          0.410336166500        -3.066709434721
   16          0.194935857800         5.842696613755
   17          0.090171093000        -3.387912994482
 S 17
    1      18774.299999999999        -0.000070335480
    2       2824.810000000000        -0.000518206933
    3        640.088000000000        -0.002169021851
    4        172.616000000000        -0.004647312925
    5         29.516900000000         0.048770409750
    6         18.444800000000        -0.386879232154
    7         11.523800000000         0.530439103264
    8          6.618900000000         0.495062429290
    9          2.995520000000        -0.616956906178
   10          1.653258653600        -4.826635085176
   11         27.052171835000        -0.038931026891
   12         20.940622415000         0.083693904024
   13          6.002459107100        -0.179012656603
   14          0.875538892700        11.934626022153
   15          0.410336166500       -13.192772472950
   16          0.194935857800         8.428293785426
   17          0.090171093000        -2.464868808070
 S 17
    1      18774.299999999999        -0.000237792486
    2       2824.810000000000        -0.001751970906
    3        640.088000000000        -0.007333099843
    4        172.616000000000        -0.015711787165
    5         29.516900000000         0.164884592509
    6         18.444800000000        -1.307973930717
    7         11.523800000000         1.793325826872
    8          6.618900000000         1.673723213272
    9          2.995520000000        -2.085828037769
   10          1.653258653600        10.763260293351
   11         27.052171835000        -1.265064695155
   12         20.940622415000         2.719635510201
   13          6.002459107100        -5.817020765746
   14          0.875538892700       -11.600753557897
   15          0.410336166500         7.323232322063
   16          0.194935857800        -3.478669446454
   17          0.090171093000         0.898306341911
 S 17
    1      18774.299999999999         0.000477228209
    2       2824.810000000000         0.003516048599
    3        640.088000000000         0.014716874200
    4        172.616000000000         0.031532148765
    5         29.516900000000        -0.330908600375
    6         18.444800000000         2.624986459645
    7         11.523800000000        -3.599044218481
    8          6.618900000000        -3.359012491652
    9          2.995520000000         4.186069941999
   10          1.653258653600        -7.987753435864
   11         27.052171835000         1.013563226203
   12         20.940622415000        -2.178957765854
   13          6.002459107100         4.660566654653
   14          0.875538892700         6.641582133307
   15          0.410336166500        -3.736585827899
   16          0.194935857800         1.713977965180
   17          0.090171093000        -0.439605875230
 P 31
    1        613.331000000000         0.000075445632
    2        141.710000000000         0.000466341517
    3         20.310600000000         0.030082033889
    4         11.033100000000        -0.138310438770
    5          6.895130000000         0.005328211377
    6          3.241660000000         0.288003874611
    7          1.665350000000         0.274355321685
    8        613.331000000000        -0.000094658509
    9        141.710000000000        -0.000585099381
   10         20.310600000000        -0.037742681638
   11         11.033100000000         0.173532377394
   12          6.895130000000        -0.006685086070
   13          3.241660000000        -0.361346529621
   14          1.665350000000        -0.344222255717
   15        613.331000000000         0.000012950869
   16        141.710000000000         0.000080051392
   17         20.310600000000         0.005163830770
   18         11.033100000000        -0.023742134661
   19          6.895130000000         0.000914631702
   20          3.241660000000         0.049438255238
   21          1.665350000000         0.047095367858
   22         18.388908413000        -0.006629854841
   23          6.113904543100         0.068330208679
   24          1.872981569100         0.197259415801
   25         18.388908413000         0.008318204198
   26          6.113904543100        -0.085731081944
   27          1.872981569100        -0.247493216649
   28         18.388908413000        -0.001138069605
   29          6.113904543100         0.011729447396
   30          1.872981569100         0.033861215790
   31          0.820046659900        -0.989064274390
 P 31
    1        613.331000000000         0.000003413023
    2        141.710000000000         0.000021096441
    3         20.310600000000         0.001360856437
    4         11.033100000000        -0.006256912403
    5          6.895130000000         0.000241038581
    6          3.241660000000         0.013028770866
    7          1.665350000000         0.012411335185
    8        613.331000000000        -0.000004282179
    9        141.710000000000        -0.000026468831
   10         20.310600000000        -0.001707410192
   11         11.033100000000         0.007850288771
   12          6.895130000000        -0.000302421121
   13          3.241660000000        -0.016346659031
   14          1.665350000000        -0.015571988061
   15        613.331000000000         0.000000585874
   16        141.710000000000         0.000003621379
   17         20.310600000000         0.000233602301
   18         11.033100000000        -0.001074050940
   19          6.895130000000         0.000041376273
   20          3.241660000000         0.002236496646
   21          1.665350000000         0.002130508687
   22         18.388908413000         0.000437828050
   23          6.113904543100        -0.004512449029
   24          1.872981569100        -0.013026786783
   25         18.388908413000        -0.000549324716
   26          6.113904543100         0.005661582848
   27          1.872981569100         0.016344169683
   28         18.388908413000         0.000075156818
   29          6.113904543100        -0.000774599325
   30          1.872981569100        -0.002236156061
   31          0.820046659900         0.176265033132
 P 31
    1        613.331000000000        -0.000028762109
    2        141.710000000000        -0.000177783193
    3         20.310600000000        -0.011468161921
    4         11.033100000000         0.052728034050
    5          6.895130000000        -0.002031271923
    6          3.241660000000        -0.109795603587
    7          1.665350000000        -0.104592371135
    8        613.331000000000        -0.000022808563
    9        141.710000000000        -0.000140983376
   10         20.310600000000        -0.009094336531
   11         11.033100000000         0.041813717799
   12          6.895130000000        -0.001610813536
   13          3.241660000000        -0.087068719073
   14          1.665350000000        -0.082942517569
   15        613.331000000000         0.000000845570
   16        141.710000000000         0.000005226602
   17         20.310600000000         0.000337149517
   18         11.033100000000        -0.001550137792
   19          6.895130000000         0.000059716836
   20          3.241660000000         0.003227852461
   21          1.665350000000         0.003074883980
   22         18.388908413000         0.003102678644
   23          6.113904543100        -0.031977574818
   24          1.872981569100        -0.092314627005
   25         18.388908413000         0.002460446925
   26          6.113904543100        -0.025358451409
   27          1.872981569100        -0.073206176409
   28         18.388908413000        -0.000091214844
   29          6.113904543100         0.000940100425
   30          1.872981569100         0.002713933766
   31          0.820046659900         0.451276140304
 P 14
    1        613.331000000000        -0.000116717055
    2        141.710000000000        -0.000721446780
    3         20.310600000000        -0.046537967779
    4         11.033100000000         0.213971128638
    5          6.895130000000        -0.008242930990
    6          3.241660000000        -0.445552155360
    7          1.665350000000        -0.424437362436
    8         18.388908413000         0.014594211817
    9          6.113904543100        -0.150414385062
   10          1.872981569100        -0.434224544298
   11          0.820046659900         4.174633490688
   12          0.395526482500        -5.549299530743
   13          0.174455098100         3.611031198663
   14          0.073389992700        -1.152052380643
 P 14
    1        613.331000000000        -0.000729749236
    2        141.710000000000        -0.004510696712
    3         20.310600000000        -0.290969014123
    4         11.033100000000         1.337810207907
    5          6.895130000000        -0.051537220428
    6          3.241660000000        -2.785722659822
    7          1.665350000000        -2.653706786038
    8         18.388908413000        -0.120538317347
    9          6.113904543100         1.242321072692
   10          1.872981569100         3.586401004385
   11          0.820046659900         0.889357422924
   12          0.395526482500        -0.763783952053
   13          0.174455098100         0.384055336680
   14          0.073389992700        -0.114879759667
 end
  // -----------------------------------------------
  // The basis set
  // -----------------------------------------------
  BAS[ATNO] = new BFNGauss[NSH];
  // Basis function   1 L = s
  InitBFNGauss(BAS[ATNO][  0]);
  BAS[ATNO][  0].l  = 0;
  BAS[ATNO][  0].ng = 17;
  BAS[ATNO][  0].a[  0] =     18774.299999999999;     BAS[ATNO][  0].d[  0] =         0.000080394810;
  BAS[ATNO][  0].a[  1] =      2824.810000000000;     BAS[ATNO][  0].d[  1] =         0.000592320520;
  BAS[ATNO][  0].a[  2] =       640.088000000000;     BAS[ATNO][  0].d[  2] =         0.002479233813;
  BAS[ATNO][  0].a[  3] =       172.616000000000;     BAS[ATNO][  0].d[  3] =         0.005311968312;
  BAS[ATNO][  0].a[  4] =        29.516900000000;     BAS[ATNO][  0].d[  4] =        -0.055745519040;
  BAS[ATNO][  0].a[  5] =        18.444800000000;     BAS[ATNO][  0].d[  5] =         0.442210424569;
  BAS[ATNO][  0].a[  6] =        11.523800000000;     BAS[ATNO][  0].d[  6] =        -0.606302126264;
  BAS[ATNO][  0].a[  7] =         6.618900000000;     BAS[ATNO][  0].d[  7] =        -0.565865905559;
  BAS[ATNO][  0].a[  8] =         2.995520000000;     BAS[ATNO][  0].d[  8] =         0.705193643771;
  BAS[ATNO][  0].a[  9] =         1.653258653600;     BAS[ATNO][  0].d[  9] =         0.896222158611;
  BAS[ATNO][  0].a[ 10] =        27.052171835000;     BAS[ATNO][  0].d[ 10] =         0.021921674433;
  BAS[ATNO][  0].a[ 11] =        20.940622415000;     BAS[ATNO][  0].d[ 11] =        -0.047127205794;
  BAS[ATNO][  0].a[ 12] =         6.002459107100;     BAS[ATNO][  0].d[ 12] =         0.100800248308;
  BAS[ATNO][  0].a[ 13] =         0.875538892700;     BAS[ATNO][  0].d[ 13] =        -0.199022703579;
  BAS[ATNO][  0].a[ 14] =         0.410336166500;     BAS[ATNO][  0].d[ 14] =         0.171433118010;
  BAS[ATNO][  0].a[ 15] =         0.194935857800;     BAS[ATNO][  0].d[ 15] =        -0.106817200881;
  BAS[ATNO][  0].a[ 16] =         0.090171093000;     BAS[ATNO][  0].d[ 16] =         0.024243160279;

  // Basis function   2 L = p
  InitBFNGauss(BAS[ATNO][  1]);
  BAS[ATNO][  1].l  = 1;
  BAS[ATNO][  1].ng = 31;
  BAS[ATNO][  1].a[  0] =       613.331000000000;     BAS[ATNO][  1].d[  0] =         0.000120620858;
  BAS[ATNO][  1].a[  1] =       141.710000000000;     BAS[ATNO][  1].d[  1] =         0.000745576808;
  BAS[ATNO][  1].a[  2] =        20.310600000000;     BAS[ATNO][  1].d[  2] =         0.048094510171;
  BAS[ATNO][  1].a[  3] =        11.033100000000;     BAS[ATNO][  1].d[  3] =        -0.221127761131;
  BAS[ATNO][  1].a[  4] =         6.895130000000;     BAS[ATNO][  1].d[  4] =         0.008518629998;
  BAS[ATNO][  1].a[  5] =         3.241660000000;     BAS[ATNO][  1].d[  5] =         0.460454413682;
  BAS[ATNO][  1].a[  6] =         1.665350000000;     BAS[ATNO][  1].d[  6] =         0.438633400185;
  BAS[ATNO][  1].a[  7] =       613.331000000000;     BAS[ATNO][  1].d[  7] =         0.000095653226;
  BAS[ATNO][  1].a[  8] =       141.710000000000;     BAS[ATNO][  1].d[  8] =         0.000591247886;
  BAS[ATNO][  1].a[  9] =        20.310600000000;     BAS[ATNO][  1].d[  9] =         0.038139299831;
  BAS[ATNO][  1].a[ 10] =        11.033100000000;     BAS[ATNO][  1].d[ 10] =        -0.175355938812;
  BAS[ATNO][  1].a[ 11] =         6.895130000000;     BAS[ATNO][  1].d[ 11] =         0.006755336159;
  BAS[ATNO][  1].a[ 12] =         3.241660000000;     BAS[ATNO][  1].d[ 12] =         0.365143732195;
  BAS[ATNO][  1].a[ 13] =         1.665350000000;     BAS[ATNO][  1].d[ 13] =         0.347839508211;
  BAS[ATNO][  1].a[ 14] =       613.331000000000;     BAS[ATNO][  1].d[ 14] =        -0.000003546101;
  BAS[ATNO][  1].a[ 15] =       141.710000000000;     BAS[ATNO][  1].d[ 15] =        -0.000021919019;
  BAS[ATNO][  1].a[ 16] =        20.310600000000;     BAS[ATNO][  1].d[ 16] =        -0.001413918035;
  BAS[ATNO][  1].a[ 17] =        11.033100000000;     BAS[ATNO][  1].d[ 17] =         0.006500877719;
  BAS[ATNO][  1].a[ 18] =         6.895130000000;     BAS[ATNO][  1].d[ 18] =        -0.000250436995;
  BAS[ATNO][  1].a[ 19] =         3.241660000000;     BAS[ATNO][  1].d[ 19] =        -0.013536779928;
  BAS[ATNO][  1].a[ 20] =         1.665350000000;     BAS[ATNO][  1].d[ 20] =        -0.012895269610;
  BAS[ATNO][  1].a[ 21] =        18.388908413000;     BAS[ATNO][  1].d[ 21] =        -0.001754702459;
  BAS[ATNO][  1].a[ 22] =         6.113904543100;     BAS[ATNO][  1].d[ 22] =         0.018084737605;
  BAS[ATNO][  1].a[ 23] =         1.872981569100;     BAS[ATNO][  1].d[ 23] =         0.052208018150;
  BAS[ATNO][  1].a[ 24] =        18.388908413000;     BAS[ATNO][  1].d[ 24] =        -0.001391491938;
  BAS[ATNO][  1].a[ 25] =         6.113904543100;     BAS[ATNO][  1].d[ 25] =         0.014341329758;
  BAS[ATNO][  1].a[ 26] =         1.872981569100;     BAS[ATNO][  1].d[ 26] =         0.041401341873;
  BAS[ATNO][  1].a[ 27] =        18.388908413000;     BAS[ATNO][  1].d[ 27] =         0.000051586043;
  BAS[ATNO][  1].a[ 28] =         6.113904543100;     BAS[ATNO][  1].d[ 28] =        -0.000531668512;
  BAS[ATNO][  1].a[ 29] =         1.872981569100;     BAS[ATNO][  1].d[ 29] =        -0.001534849990;
  BAS[ATNO][  1].a[ 30] =         0.820046659900;     BAS[ATNO][  1].d[ 30] =        -0.140477537112;

  // Basis function   3 L = s
  InitBFNGauss(BAS[ATNO][  2]);
  BAS[ATNO][  2].l  = 0;
  BAS[ATNO][  2].ng = 17;
  BAS[ATNO][  2].a[  0] =     18774.299999999999;     BAS[ATNO][  2].d[  0] =        -0.000066045606;
  BAS[ATNO][  2].a[  1] =      2824.810000000000;     BAS[ATNO][  2].d[  1] =        -0.000486600661;
  BAS[ATNO][  2].a[  2] =       640.088000000000;     BAS[ATNO][  2].d[  2] =        -0.002036729731;
  BAS[ATNO][  2].a[  3] =       172.616000000000;     BAS[ATNO][  2].d[  3] =        -0.004363865858;
  BAS[ATNO][  2].a[  4] =        29.516900000000;     BAS[ATNO][  2].d[  4] =         0.045795824261;
  BAS[ATNO][  2].a[  5] =        18.444800000000;     BAS[ATNO][  2].d[  5] =        -0.363282847462;
  BAS[ATNO][  2].a[  6] =        11.523800000000;     BAS[ATNO][  2].d[  6] =         0.498086771849;
  BAS[ATNO][  2].a[  7] =         6.618900000000;     BAS[ATNO][  2].d[  7] =         0.464867777944;
  BAS[ATNO][  2].a[  8] =         2.995520000000;     BAS[ATNO][  2].d[  8] =        -0.579327715241;
  BAS[ATNO][  2].a[  9] =         1.653258653600;     BAS[ATNO][  2].d[  9] =        -1.656608969140;
  BAS[ATNO][  2].a[ 10] =        27.052171835000;     BAS[ATNO][  2].d[ 10] =        -0.054927834177;
  BAS[ATNO][  2].a[ 11] =        20.940622415000;     BAS[ATNO][  2].d[ 11] =         0.118083833102;
  BAS[ATNO][  2].a[ 12] =         6.002459107100;     BAS[ATNO][  2].d[ 12] =        -0.252569179463;
  BAS[ATNO][  2].a[ 13] =         0.875538892700;     BAS[ATNO][  2].d[ 13] =         1.729519995411;
  BAS[ATNO][  2].a[ 14] =         0.410336166500;     BAS[ATNO][  2].d[ 14] =         0.177048848888;
  BAS[ATNO][  2].a[ 15] =         0.194935857800;     BAS[ATNO][  2].d[ 15] =         0.426916801304;
  BAS[ATNO][  2].a[ 16] =         0.090171093000;     BAS[ATNO][  2].d[ 16] =        -0.117987950064;

  // Basis function   4 L = p
  InitBFNGauss(BAS[ATNO][  3]);
  BAS[ATNO][  3].l  = 1;
  BAS[ATNO][  3].ng = 31;
  BAS[ATNO][  3].a[  0] =       613.331000000000;     BAS[ATNO][  3].d[  0] =        -0.000086034443;
  BAS[ATNO][  3].a[  1] =       141.710000000000;     BAS[ATNO][  3].d[  1] =        -0.000531792647;
  BAS[ATNO][  3].a[  2] =        20.310600000000;     BAS[ATNO][  3].d[  2] =        -0.034304053679;
  BAS[ATNO][  3].a[  3] =        11.033100000000;     BAS[ATNO][  3].d[  3] =         0.157722337968;
  BAS[ATNO][  3].a[  4] =         6.895130000000;     BAS[ATNO][  3].d[  4] =        -0.006076026966;
  BAS[ATNO][  3].a[  5] =         3.241660000000;     BAS[ATNO][  3].d[  5] =        -0.328425279043;
  BAS[ATNO][  3].a[  6] =         1.665350000000;     BAS[ATNO][  3].d[  6] =        -0.312861148840;
  BAS[ATNO][  3].a[  7] =       613.331000000000;     BAS[ATNO][  3].d[  7] =        -0.000068225945;
  BAS[ATNO][  3].a[  8] =       141.710000000000;     BAS[ATNO][  3].d[  8] =        -0.000421715475;
  BAS[ATNO][  3].a[  9] =        20.310600000000;     BAS[ATNO][  3].d[  9] =        -0.027203366558;
  BAS[ATNO][  3].a[ 10] =        11.033100000000;     BAS[ATNO][  3].d[ 10] =         0.125074972604;
  BAS[ATNO][  3].a[ 11] =         6.895130000000;     BAS[ATNO][  3].d[ 11] =        -0.004818334017;
  BAS[ATNO][  3].a[ 12] =         3.241660000000;     BAS[ATNO][  3].d[ 12] =        -0.260443658825;
  BAS[ATNO][  3].a[ 13] =         1.665350000000;     BAS[ATNO][  3].d[ 13] =        -0.248101189243;
  BAS[ATNO][  3].a[ 14] =       613.331000000000;     BAS[ATNO][  3].d[ 14] =         0.000002529304;
  BAS[ATNO][  3].a[ 15] =       141.710000000000;     BAS[ATNO][  3].d[ 15] =         0.000015634032;
  BAS[ATNO][  3].a[ 16] =        20.310600000000;     BAS[ATNO][  3].d[ 16] =         0.001008495839;
  BAS[ATNO][  3].a[ 17] =        11.033100000000;     BAS[ATNO][  3].d[ 17] =        -0.004636837473;
  BAS[ATNO][  3].a[ 18] =         6.895130000000;     BAS[ATNO][  3].d[ 18] =         0.000178627516;
  BAS[ATNO][  3].a[ 19] =         3.241660000000;     BAS[ATNO][  3].d[ 19] =         0.009655288279;
  BAS[ATNO][  3].a[ 20] =         1.665350000000;     BAS[ATNO][  3].d[ 20] =         0.009197722514;
  BAS[ATNO][  3].a[ 21] =        18.388908413000;     BAS[ATNO][  3].d[ 21] =         0.007226198290;
  BAS[ATNO][  3].a[ 22] =         6.113904543100;     BAS[ATNO][  3].d[ 22] =        -0.074476387330;
  BAS[ATNO][  3].a[ 23] =         1.872981569100;     BAS[ATNO][  3].d[ 23] =        -0.215002543379;
  BAS[ATNO][  3].a[ 24] =        18.388908413000;     BAS[ATNO][  3].d[ 24] =         0.005730428326;
  BAS[ATNO][  3].a[ 25] =         6.113904543100;     BAS[ATNO][  3].d[ 25] =        -0.059060322241;
  BAS[ATNO][  3].a[ 26] =         1.872981569100;     BAS[ATNO][  3].d[ 26] =        -0.170498596264;
  BAS[ATNO][  3].a[ 27] =        18.388908413000;     BAS[ATNO][  3].d[ 27] =        -0.000212441100;
  BAS[ATNO][  3].a[ 28] =         6.113904543100;     BAS[ATNO][  3].d[ 28] =         0.002189511696;
  BAS[ATNO][  3].a[ 29] =         1.872981569100;     BAS[ATNO][  3].d[ 29] =         0.006320803146;
  BAS[ATNO][  3].a[ 30] =         0.820046659900;     BAS[ATNO][  3].d[ 30] =         1.016317396196;

  // Basis function   5 L = s
  InitBFNGauss(BAS[ATNO][  4]);
  BAS[ATNO][  4].l  = 0;
  BAS[ATNO][  4].ng = 17;
  BAS[ATNO][  4].a[  0] =     18774.299999999999;     BAS[ATNO][  4].d[  0] =         0.000030446765;
  BAS[ATNO][  4].a[  1] =      2824.810000000000;     BAS[ATNO][  4].d[  1] =         0.000224320995;
  BAS[ATNO][  4].a[  2] =       640.088000000000;     BAS[ATNO][  4].d[  2] =         0.000938924413;
  BAS[ATNO][  4].a[  3] =       172.616000000000;     BAS[ATNO][  4].d[  3] =         0.002011725035;
  BAS[ATNO][  4].a[  4] =        29.516900000000;     BAS[ATNO][  4].d[  4] =        -0.021111695265;
  BAS[ATNO][  4].a[  5] =        18.444800000000;     BAS[ATNO][  4].d[  5] =         0.167471967025;
  BAS[ATNO][  4].a[  6] =        11.523800000000;     BAS[ATNO][  4].d[  6] =        -0.229616047147;
  BAS[ATNO][  4].a[  7] =         6.618900000000;     BAS[ATNO][  4].d[  7] =        -0.214302221320;
  BAS[ATNO][  4].a[  8] =         2.995520000000;     BAS[ATNO][  4].d[  8] =         0.267067803231;
  BAS[ATNO][  4].a[  9] =         1.653258653600;     BAS[ATNO][  4].d[  9] =         0.754544299410;
  BAS[ATNO][  4].a[ 10] =        27.052171835000;     BAS[ATNO][  4].d[ 10] =         0.038043902480;
  BAS[ATNO][  4].a[ 11] =        20.940622415000;     BAS[ATNO][  4].d[ 11] =        -0.081786764367;
  BAS[ATNO][  4].a[ 12] =         6.002459107100;     BAS[ATNO][  4].d[ 12] =         0.174933480940;
  BAS[ATNO][  4].a[ 13] =         0.875538892700;     BAS[ATNO][  4].d[ 13] =        -0.560165306323;
  BAS[ATNO][  4].a[ 14] =         0.410336166500;     BAS[ATNO][  4].d[ 14] =        -3.066709434721;
  BAS[ATNO][  4].a[ 15] =         0.194935857800;     BAS[ATNO][  4].d[ 15] =         5.842696613755;
  BAS[ATNO][  4].a[ 16] =         0.090171093000;     BAS[ATNO][  4].d[ 16] =        -3.387912994482;

  // Basis function   6 L = s
  InitBFNGauss(BAS[ATNO][  5]);
  BAS[ATNO][  5].l  = 0;
  BAS[ATNO][  5].ng = 17;
  BAS[ATNO][  5].a[  0] =     18774.299999999999;     BAS[ATNO][  5].d[  0] =         0.000070335480;
  BAS[ATNO][  5].a[  1] =      2824.810000000000;     BAS[ATNO][  5].d[  1] =         0.000518206933;
  BAS[ATNO][  5].a[  2] =       640.088000000000;     BAS[ATNO][  5].d[  2] =         0.002169021851;
  BAS[ATNO][  5].a[  3] =       172.616000000000;     BAS[ATNO][  5].d[  3] =         0.004647312925;
  BAS[ATNO][  5].a[  4] =        29.516900000000;     BAS[ATNO][  5].d[  4] =        -0.048770409750;
  BAS[ATNO][  5].a[  5] =        18.444800000000;     BAS[ATNO][  5].d[  5] =         0.386879232154;
  BAS[ATNO][  5].a[  6] =        11.523800000000;     BAS[ATNO][  5].d[  6] =        -0.530439103264;
  BAS[ATNO][  5].a[  7] =         6.618900000000;     BAS[ATNO][  5].d[  7] =        -0.495062429290;
  BAS[ATNO][  5].a[  8] =         2.995520000000;     BAS[ATNO][  5].d[  8] =         0.616956906178;
  BAS[ATNO][  5].a[  9] =         1.653258653600;     BAS[ATNO][  5].d[  9] =         4.826635085176;
  BAS[ATNO][  5].a[ 10] =        27.052171835000;     BAS[ATNO][  5].d[ 10] =         0.038931026891;
  BAS[ATNO][  5].a[ 11] =        20.940622415000;     BAS[ATNO][  5].d[ 11] =        -0.083693904024;
  BAS[ATNO][  5].a[ 12] =         6.002459107100;     BAS[ATNO][  5].d[ 12] =         0.179012656603;
  BAS[ATNO][  5].a[ 13] =         0.875538892700;     BAS[ATNO][  5].d[ 13] =       -11.934626022153;
  BAS[ATNO][  5].a[ 14] =         0.410336166500;     BAS[ATNO][  5].d[ 14] =        13.192772472950;
  BAS[ATNO][  5].a[ 15] =         0.194935857800;     BAS[ATNO][  5].d[ 15] =        -8.428293785426;
  BAS[ATNO][  5].a[ 16] =         0.090171093000;     BAS[ATNO][  5].d[ 16] =         2.464868808070;

  // Basis function   7 L = s
  InitBFNGauss(BAS[ATNO][  6]);
  BAS[ATNO][  6].l  = 0;
  BAS[ATNO][  6].ng = 17;
  BAS[ATNO][  6].a[  0] =     18774.299999999999;     BAS[ATNO][  6].d[  0] =         0.000237792486;
  BAS[ATNO][  6].a[  1] =      2824.810000000000;     BAS[ATNO][  6].d[  1] =         0.001751970906;
  BAS[ATNO][  6].a[  2] =       640.088000000000;     BAS[ATNO][  6].d[  2] =         0.007333099843;
  BAS[ATNO][  6].a[  3] =       172.616000000000;     BAS[ATNO][  6].d[  3] =         0.015711787165;
  BAS[ATNO][  6].a[  4] =        29.516900000000;     BAS[ATNO][  6].d[  4] =        -0.164884592509;
  BAS[ATNO][  6].a[  5] =        18.444800000000;     BAS[ATNO][  6].d[  5] =         1.307973930717;
  BAS[ATNO][  6].a[  6] =        11.523800000000;     BAS[ATNO][  6].d[  6] =        -1.793325826872;
  BAS[ATNO][  6].a[  7] =         6.618900000000;     BAS[ATNO][  6].d[  7] =        -1.673723213272;
  BAS[ATNO][  6].a[  8] =         2.995520000000;     BAS[ATNO][  6].d[  8] =         2.085828037769;
  BAS[ATNO][  6].a[  9] =         1.653258653600;     BAS[ATNO][  6].d[  9] =       -10.763260293351;
  BAS[ATNO][  6].a[ 10] =        27.052171835000;     BAS[ATNO][  6].d[ 10] =         1.265064695155;
  BAS[ATNO][  6].a[ 11] =        20.940622415000;     BAS[ATNO][  6].d[ 11] =        -2.719635510201;
  BAS[ATNO][  6].a[ 12] =         6.002459107100;     BAS[ATNO][  6].d[ 12] =         5.817020765746;
  BAS[ATNO][  6].a[ 13] =         0.875538892700;     BAS[ATNO][  6].d[ 13] =        11.600753557897;
  BAS[ATNO][  6].a[ 14] =         0.410336166500;     BAS[ATNO][  6].d[ 14] =        -7.323232322063;
  BAS[ATNO][  6].a[ 15] =         0.194935857800;     BAS[ATNO][  6].d[ 15] =         3.478669446454;
  BAS[ATNO][  6].a[ 16] =         0.090171093000;     BAS[ATNO][  6].d[ 16] =        -0.898306341911;

  // Basis function   8 L = s
  InitBFNGauss(BAS[ATNO][  7]);
  BAS[ATNO][  7].l  = 0;
  BAS[ATNO][  7].ng = 17;
  BAS[ATNO][  7].a[  0] =     18774.299999999999;     BAS[ATNO][  7].d[  0] =        -0.000477228209;
  BAS[ATNO][  7].a[  1] =      2824.810000000000;     BAS[ATNO][  7].d[  1] =        -0.003516048599;
  BAS[ATNO][  7].a[  2] =       640.088000000000;     BAS[ATNO][  7].d[  2] =        -0.014716874200;
  BAS[ATNO][  7].a[  3] =       172.616000000000;     BAS[ATNO][  7].d[  3] =        -0.031532148765;
  BAS[ATNO][  7].a[  4] =        29.516900000000;     BAS[ATNO][  7].d[  4] =         0.330908600375;
  BAS[ATNO][  7].a[  5] =        18.444800000000;     BAS[ATNO][  7].d[  5] =        -2.624986459645;
  BAS[ATNO][  7].a[  6] =        11.523800000000;     BAS[ATNO][  7].d[  6] =         3.599044218481;
  BAS[ATNO][  7].a[  7] =         6.618900000000;     BAS[ATNO][  7].d[  7] =         3.359012491652;
  BAS[ATNO][  7].a[  8] =         2.995520000000;     BAS[ATNO][  7].d[  8] =        -4.186069941999;
  BAS[ATNO][  7].a[  9] =         1.653258653600;     BAS[ATNO][  7].d[  9] =         7.987753435864;
  BAS[ATNO][  7].a[ 10] =        27.052171835000;     BAS[ATNO][  7].d[ 10] =        -1.013563226203;
  BAS[ATNO][  7].a[ 11] =        20.940622415000;     BAS[ATNO][  7].d[ 11] =         2.178957765854;
  BAS[ATNO][  7].a[ 12] =         6.002459107100;     BAS[ATNO][  7].d[ 12] =        -4.660566654653;
  BAS[ATNO][  7].a[ 13] =         0.875538892700;     BAS[ATNO][  7].d[ 13] =        -6.641582133307;
  BAS[ATNO][  7].a[ 14] =         0.410336166500;     BAS[ATNO][  7].d[ 14] =         3.736585827899;
  BAS[ATNO][  7].a[ 15] =         0.194935857800;     BAS[ATNO][  7].d[ 15] =        -1.713977965180;
  BAS[ATNO][  7].a[ 16] =         0.090171093000;     BAS[ATNO][  7].d[ 16] =         0.439605875230;

  // Basis function   9 L = p
  InitBFNGauss(BAS[ATNO][  8]);
  BAS[ATNO][  8].l  = 1;
  BAS[ATNO][  8].ng = 31;
  BAS[ATNO][  8].a[  0] =       613.331000000000;     BAS[ATNO][  8].d[  0] =        -0.000075445632;
  BAS[ATNO][  8].a[  1] =       141.710000000000;     BAS[ATNO][  8].d[  1] =        -0.000466341517;
  BAS[ATNO][  8].a[  2] =        20.310600000000;     BAS[ATNO][  8].d[  2] =        -0.030082033889;
  BAS[ATNO][  8].a[  3] =        11.033100000000;     BAS[ATNO][  8].d[  3] =         0.138310438770;
  BAS[ATNO][  8].a[  4] =         6.895130000000;     BAS[ATNO][  8].d[  4] =        -0.005328211377;
  BAS[ATNO][  8].a[  5] =         3.241660000000;     BAS[ATNO][  8].d[  5] =        -0.288003874611;
  BAS[ATNO][  8].a[  6] =         1.665350000000;     BAS[ATNO][  8].d[  6] =        -0.274355321685;
  BAS[ATNO][  8].a[  7] =       613.331000000000;     BAS[ATNO][  8].d[  7] =         0.000094658509;
  BAS[ATNO][  8].a[  8] =       141.710000000000;     BAS[ATNO][  8].d[  8] =         0.000585099381;
  BAS[ATNO][  8].a[  9] =        20.310600000000;     BAS[ATNO][  8].d[  9] =         0.037742681638;
  BAS[ATNO][  8].a[ 10] =        11.033100000000;     BAS[ATNO][  8].d[ 10] =        -0.173532377394;
  BAS[ATNO][  8].a[ 11] =         6.895130000000;     BAS[ATNO][  8].d[ 11] =         0.006685086070;
  BAS[ATNO][  8].a[ 12] =         3.241660000000;     BAS[ATNO][  8].d[ 12] =         0.361346529621;
  BAS[ATNO][  8].a[ 13] =         1.665350000000;     BAS[ATNO][  8].d[ 13] =         0.344222255717;
  BAS[ATNO][  8].a[ 14] =       613.331000000000;     BAS[ATNO][  8].d[ 14] =        -0.000012950869;
  BAS[ATNO][  8].a[ 15] =       141.710000000000;     BAS[ATNO][  8].d[ 15] =        -0.000080051392;
  BAS[ATNO][  8].a[ 16] =        20.310600000000;     BAS[ATNO][  8].d[ 16] =        -0.005163830770;
  BAS[ATNO][  8].a[ 17] =        11.033100000000;     BAS[ATNO][  8].d[ 17] =         0.023742134661;
  BAS[ATNO][  8].a[ 18] =         6.895130000000;     BAS[ATNO][  8].d[ 18] =        -0.000914631702;
  BAS[ATNO][  8].a[ 19] =         3.241660000000;     BAS[ATNO][  8].d[ 19] =        -0.049438255238;
  BAS[ATNO][  8].a[ 20] =         1.665350000000;     BAS[ATNO][  8].d[ 20] =        -0.047095367858;
  BAS[ATNO][  8].a[ 21] =        18.388908413000;     BAS[ATNO][  8].d[ 21] =         0.006629854841;
  BAS[ATNO][  8].a[ 22] =         6.113904543100;     BAS[ATNO][  8].d[ 22] =        -0.068330208679;
  BAS[ATNO][  8].a[ 23] =         1.872981569100;     BAS[ATNO][  8].d[ 23] =        -0.197259415801;
  BAS[ATNO][  8].a[ 24] =        18.388908413000;     BAS[ATNO][  8].d[ 24] =        -0.008318204198;
  BAS[ATNO][  8].a[ 25] =         6.113904543100;     BAS[ATNO][  8].d[ 25] =         0.085731081944;
  BAS[ATNO][  8].a[ 26] =         1.872981569100;     BAS[ATNO][  8].d[ 26] =         0.247493216649;
  BAS[ATNO][  8].a[ 27] =        18.388908413000;     BAS[ATNO][  8].d[ 27] =         0.001138069605;
  BAS[ATNO][  8].a[ 28] =         6.113904543100;     BAS[ATNO][  8].d[ 28] =        -0.011729447396;
  BAS[ATNO][  8].a[ 29] =         1.872981569100;     BAS[ATNO][  8].d[ 29] =        -0.033861215790;
  BAS[ATNO][  8].a[ 30] =         0.820046659900;     BAS[ATNO][  8].d[ 30] =         0.989064274390;

  // Basis function  10 L = p
  InitBFNGauss(BAS[ATNO][  9]);
  BAS[ATNO][  9].l  = 1;
  BAS[ATNO][  9].ng = 31;
  BAS[ATNO][  9].a[  0] =       613.331000000000;     BAS[ATNO][  9].d[  0] =         0.000003413023;
  BAS[ATNO][  9].a[  1] =       141.710000000000;     BAS[ATNO][  9].d[  1] =         0.000021096441;
  BAS[ATNO][  9].a[  2] =        20.310600000000;     BAS[ATNO][  9].d[  2] =         0.001360856437;
  BAS[ATNO][  9].a[  3] =        11.033100000000;     BAS[ATNO][  9].d[  3] =        -0.006256912403;
  BAS[ATNO][  9].a[  4] =         6.895130000000;     BAS[ATNO][  9].d[  4] =         0.000241038581;
  BAS[ATNO][  9].a[  5] =         3.241660000000;     BAS[ATNO][  9].d[  5] =         0.013028770866;
  BAS[ATNO][  9].a[  6] =         1.665350000000;     BAS[ATNO][  9].d[  6] =         0.012411335185;
  BAS[ATNO][  9].a[  7] =       613.331000000000;     BAS[ATNO][  9].d[  7] =        -0.000004282179;
  BAS[ATNO][  9].a[  8] =       141.710000000000;     BAS[ATNO][  9].d[  8] =        -0.000026468831;
  BAS[ATNO][  9].a[  9] =        20.310600000000;     BAS[ATNO][  9].d[  9] =        -0.001707410192;
  BAS[ATNO][  9].a[ 10] =        11.033100000000;     BAS[ATNO][  9].d[ 10] =         0.007850288771;
  BAS[ATNO][  9].a[ 11] =         6.895130000000;     BAS[ATNO][  9].d[ 11] =        -0.000302421121;
  BAS[ATNO][  9].a[ 12] =         3.241660000000;     BAS[ATNO][  9].d[ 12] =        -0.016346659031;
  BAS[ATNO][  9].a[ 13] =         1.665350000000;     BAS[ATNO][  9].d[ 13] =        -0.015571988061;
  BAS[ATNO][  9].a[ 14] =       613.331000000000;     BAS[ATNO][  9].d[ 14] =         0.000000585874;
  BAS[ATNO][  9].a[ 15] =       141.710000000000;     BAS[ATNO][  9].d[ 15] =         0.000003621379;
  BAS[ATNO][  9].a[ 16] =        20.310600000000;     BAS[ATNO][  9].d[ 16] =         0.000233602301;
  BAS[ATNO][  9].a[ 17] =        11.033100000000;     BAS[ATNO][  9].d[ 17] =        -0.001074050940;
  BAS[ATNO][  9].a[ 18] =         6.895130000000;     BAS[ATNO][  9].d[ 18] =         0.000041376273;
  BAS[ATNO][  9].a[ 19] =         3.241660000000;     BAS[ATNO][  9].d[ 19] =         0.002236496646;
  BAS[ATNO][  9].a[ 20] =         1.665350000000;     BAS[ATNO][  9].d[ 20] =         0.002130508687;
  BAS[ATNO][  9].a[ 21] =        18.388908413000;     BAS[ATNO][  9].d[ 21] =         0.000437828050;
  BAS[ATNO][  9].a[ 22] =         6.113904543100;     BAS[ATNO][  9].d[ 22] =        -0.004512449029;
  BAS[ATNO][  9].a[ 23] =         1.872981569100;     BAS[ATNO][  9].d[ 23] =        -0.013026786783;
  BAS[ATNO][  9].a[ 24] =        18.388908413000;     BAS[ATNO][  9].d[ 24] =        -0.000549324716;
  BAS[ATNO][  9].a[ 25] =         6.113904543100;     BAS[ATNO][  9].d[ 25] =         0.005661582848;
  BAS[ATNO][  9].a[ 26] =         1.872981569100;     BAS[ATNO][  9].d[ 26] =         0.016344169683;
  BAS[ATNO][  9].a[ 27] =        18.388908413000;     BAS[ATNO][  9].d[ 27] =         0.000075156818;
  BAS[ATNO][  9].a[ 28] =         6.113904543100;     BAS[ATNO][  9].d[ 28] =        -0.000774599325;
  BAS[ATNO][  9].a[ 29] =         1.872981569100;     BAS[ATNO][  9].d[ 29] =        -0.002236156061;
  BAS[ATNO][  9].a[ 30] =         0.820046659900;     BAS[ATNO][  9].d[ 30] =         0.176265033132;

  // Basis function  11 L = p
  InitBFNGauss(BAS[ATNO][ 10]);
  BAS[ATNO][ 10].l  = 1;
  BAS[ATNO][ 10].ng = 31;
  BAS[ATNO][ 10].a[  0] =       613.331000000000;     BAS[ATNO][ 10].d[  0] =        -0.000028762109;
  BAS[ATNO][ 10].a[  1] =       141.710000000000;     BAS[ATNO][ 10].d[  1] =        -0.000177783193;
  BAS[ATNO][ 10].a[  2] =        20.310600000000;     BAS[ATNO][ 10].d[  2] =        -0.011468161921;
  BAS[ATNO][ 10].a[  3] =        11.033100000000;     BAS[ATNO][ 10].d[  3] =         0.052728034050;
  BAS[ATNO][ 10].a[  4] =         6.895130000000;     BAS[ATNO][ 10].d[  4] =        -0.002031271923;
  BAS[ATNO][ 10].a[  5] =         3.241660000000;     BAS[ATNO][ 10].d[  5] =        -0.109795603587;
  BAS[ATNO][ 10].a[  6] =         1.665350000000;     BAS[ATNO][ 10].d[  6] =        -0.104592371135;
  BAS[ATNO][ 10].a[  7] =       613.331000000000;     BAS[ATNO][ 10].d[  7] =        -0.000022808563;
  BAS[ATNO][ 10].a[  8] =       141.710000000000;     BAS[ATNO][ 10].d[  8] =        -0.000140983376;
  BAS[ATNO][ 10].a[  9] =        20.310600000000;     BAS[ATNO][ 10].d[  9] =        -0.009094336531;
  BAS[ATNO][ 10].a[ 10] =        11.033100000000;     BAS[ATNO][ 10].d[ 10] =         0.041813717799;
  BAS[ATNO][ 10].a[ 11] =         6.895130000000;     BAS[ATNO][ 10].d[ 11] =        -0.001610813536;
  BAS[ATNO][ 10].a[ 12] =         3.241660000000;     BAS[ATNO][ 10].d[ 12] =        -0.087068719073;
  BAS[ATNO][ 10].a[ 13] =         1.665350000000;     BAS[ATNO][ 10].d[ 13] =        -0.082942517569;
  BAS[ATNO][ 10].a[ 14] =       613.331000000000;     BAS[ATNO][ 10].d[ 14] =         0.000000845570;
  BAS[ATNO][ 10].a[ 15] =       141.710000000000;     BAS[ATNO][ 10].d[ 15] =         0.000005226602;
  BAS[ATNO][ 10].a[ 16] =        20.310600000000;     BAS[ATNO][ 10].d[ 16] =         0.000337149517;
  BAS[ATNO][ 10].a[ 17] =        11.033100000000;     BAS[ATNO][ 10].d[ 17] =        -0.001550137792;
  BAS[ATNO][ 10].a[ 18] =         6.895130000000;     BAS[ATNO][ 10].d[ 18] =         0.000059716836;
  BAS[ATNO][ 10].a[ 19] =         3.241660000000;     BAS[ATNO][ 10].d[ 19] =         0.003227852461;
  BAS[ATNO][ 10].a[ 20] =         1.665350000000;     BAS[ATNO][ 10].d[ 20] =         0.003074883980;
  BAS[ATNO][ 10].a[ 21] =        18.388908413000;     BAS[ATNO][ 10].d[ 21] =         0.003102678644;
  BAS[ATNO][ 10].a[ 22] =         6.113904543100;     BAS[ATNO][ 10].d[ 22] =        -0.031977574818;
  BAS[ATNO][ 10].a[ 23] =         1.872981569100;     BAS[ATNO][ 10].d[ 23] =        -0.092314627005;
  BAS[ATNO][ 10].a[ 24] =        18.388908413000;     BAS[ATNO][ 10].d[ 24] =         0.002460446925;
  BAS[ATNO][ 10].a[ 25] =         6.113904543100;     BAS[ATNO][ 10].d[ 25] =        -0.025358451409;
  BAS[ATNO][ 10].a[ 26] =         1.872981569100;     BAS[ATNO][ 10].d[ 26] =        -0.073206176409;
  BAS[ATNO][ 10].a[ 27] =        18.388908413000;     BAS[ATNO][ 10].d[ 27] =        -0.000091214844;
  BAS[ATNO][ 10].a[ 28] =         6.113904543100;     BAS[ATNO][ 10].d[ 28] =         0.000940100425;
  BAS[ATNO][ 10].a[ 29] =         1.872981569100;     BAS[ATNO][ 10].d[ 29] =         0.002713933766;
  BAS[ATNO][ 10].a[ 30] =         0.820046659900;     BAS[ATNO][ 10].d[ 30] =         0.451276140304;

  // Basis function  12 L = p
  InitBFNGauss(BAS[ATNO][ 11]);
  BAS[ATNO][ 11].l  = 1;
  BAS[ATNO][ 11].ng = 14;
  BAS[ATNO][ 11].a[  0] =       613.331000000000;     BAS[ATNO][ 11].d[  0] =         0.000116717055;
  BAS[ATNO][ 11].a[  1] =       141.710000000000;     BAS[ATNO][ 11].d[  1] =         0.000721446780;
  BAS[ATNO][ 11].a[  2] =        20.310600000000;     BAS[ATNO][ 11].d[  2] =         0.046537967779;
  BAS[ATNO][ 11].a[  3] =        11.033100000000;     BAS[ATNO][ 11].d[  3] =        -0.213971128638;
  BAS[ATNO][ 11].a[  4] =         6.895130000000;     BAS[ATNO][ 11].d[  4] =         0.008242930990;
  BAS[ATNO][ 11].a[  5] =         3.241660000000;     BAS[ATNO][ 11].d[  5] =         0.445552155360;
  BAS[ATNO][ 11].a[  6] =         1.665350000000;     BAS[ATNO][ 11].d[  6] =         0.424437362436;
  BAS[ATNO][ 11].a[  7] =        18.388908413000;     BAS[ATNO][ 11].d[  7] =        -0.014594211817;
  BAS[ATNO][ 11].a[  8] =         6.113904543100;     BAS[ATNO][ 11].d[  8] =         0.150414385062;
  BAS[ATNO][ 11].a[  9] =         1.872981569100;     BAS[ATNO][ 11].d[  9] =         0.434224544298;
  BAS[ATNO][ 11].a[ 10] =         0.820046659900;     BAS[ATNO][ 11].d[ 10] =        -4.174633490688;
  BAS[ATNO][ 11].a[ 11] =         0.395526482500;     BAS[ATNO][ 11].d[ 11] =         5.549299530743;
  BAS[ATNO][ 11].a[ 12] =         0.174455098100;     BAS[ATNO][ 11].d[ 12] =        -3.611031198663;
  BAS[ATNO][ 11].a[ 13] =         0.073389992700;     BAS[ATNO][ 11].d[ 13] =         1.152052380643;

  // Basis function  13 L = p
  InitBFNGauss(BAS[ATNO][ 12]);
  BAS[ATNO][ 12].l  = 1;
  BAS[ATNO][ 12].ng = 14;
  BAS[ATNO][ 12].a[  0] =       613.331000000000;     BAS[ATNO][ 12].d[  0] =        -0.000729749236;
  BAS[ATNO][ 12].a[  1] =       141.710000000000;     BAS[ATNO][ 12].d[  1] =        -0.004510696712;
  BAS[ATNO][ 12].a[  2] =        20.310600000000;     BAS[ATNO][ 12].d[  2] =        -0.290969014123;
  BAS[ATNO][ 12].a[  3] =        11.033100000000;     BAS[ATNO][ 12].d[  3] =         1.337810207907;
  BAS[ATNO][ 12].a[  4] =         6.895130000000;     BAS[ATNO][ 12].d[  4] =        -0.051537220428;
  BAS[ATNO][ 12].a[  5] =         3.241660000000;     BAS[ATNO][ 12].d[  5] =        -2.785722659822;
  BAS[ATNO][ 12].a[  6] =         1.665350000000;     BAS[ATNO][ 12].d[  6] =        -2.653706786038;
  BAS[ATNO][ 12].a[  7] =        18.388908413000;     BAS[ATNO][ 12].d[  7] =        -0.120538317347;
  BAS[ATNO][ 12].a[  8] =         6.113904543100;     BAS[ATNO][ 12].d[  8] =         1.242321072692;
  BAS[ATNO][ 12].a[  9] =         1.872981569100;     BAS[ATNO][ 12].d[  9] =         3.586401004385;
  BAS[ATNO][ 12].a[ 10] =         0.820046659900;     BAS[ATNO][ 12].d[ 10] =         0.889357422924;
  BAS[ATNO][ 12].a[ 11] =         0.395526482500;     BAS[ATNO][ 12].d[ 11] =        -0.763783952053;
  BAS[ATNO][ 12].a[ 12] =         0.174455098100;     BAS[ATNO][ 12].d[ 12] =         0.384055336680;
  BAS[ATNO][ 12].a[ 13] =         0.073389992700;     BAS[ATNO][ 12].d[ 13] =        -0.114879759667;

-------------------------------------------
RADIAL EXPECTATION VALUES <R**-3> TO <R**3>
-------------------------------------------
   0 :     0.000000     2.825528     1.568021     0.694734     0.523152     0.427997
   1 :     4.698633     2.490605     1.500810     0.728704     0.577981     0.502643
   2 :     4.698635     2.490605     1.500810     0.728704     0.577981     0.502643
   3 :     4.684814     2.484635     1.498508     0.730992     0.584506     0.522958
   4 :     0.000000     1.016030     0.841389     1.408930     2.216244     3.820631
   5 :     1.338042     0.849702     0.801885     1.467038     2.378889     4.178797
   6 :     1.338058     0.849710     0.801889     1.467031     2.378865     4.178723
   7 :     0.000000     0.391757     0.466203     2.714477     8.298898    27.566034
   8 :     0.000000     0.193071     0.311612     4.103657    18.712408    90.575797
   9 :     0.000000     0.721496     0.588307     2.551220     8.599125    35.290430
  10 :     0.000000     4.576732     1.812395     0.916354     1.634535     5.042371
  11 :     0.000000    35.449523     5.001145     0.359740     0.405174     1.170998
  12 :     1.544085     0.928962     0.823090     1.586051     3.388866    10.144641
  13 :     0.261003     0.214556     0.372951     3.245635    11.771463    46.700053
  14 :     0.260973     0.214537     0.372934     3.245788    11.772614    46.707160
  15 :     0.068767     0.141261     0.354045     3.124327    10.754852    40.712938
  16 :     0.140928     0.123696     0.268572     4.685032    24.543996   137.365210
  17 :     0.140920     0.123692     0.268568     4.685053    24.544150   137.366170
  18 :     0.140963     0.123717     0.268589     4.684879    24.542846   137.358089
  19 :     0.856479     0.506379     0.536203     2.791292    10.289721    46.565838
  20 :     0.856500     0.506389     0.536208     2.791281    10.289680    46.565772
  21 :     0.856505     0.506391     0.536209     2.791278    10.289671    46.565769
  22 :    50.451803    11.264913     3.054961     0.430761     0.323637     0.625575
  23 :    50.451804    11.264913     3.054961     0.430761     0.323637     0.625575
  24 :    50.451804    11.264913     3.054961     0.430761     0.323637     0.625575
Making the total density                ... o.k.
o.k.
Initializing the integrals              ... done
Making exponents                        ... done
Making rho(0)                           ... done (         2.137209585)
Integral calculation                    ... Two index integrals                     ... done
Solving the equation system             ... done
atomic density will be written to file 54_Xe_atom54.adf

-------
TIMINGS
-------

Total SCF time: 0 days 0 hours 0 min 0 sec 

Total time                  ....       0.520 sec
Sum of individual times     ....       0.159 sec  ( 30.6%)

Fock matrix formation       ....       0.114 sec  ( 21.9%)
Diagonalization             ....       0.020 sec  (  3.9%)
Density matrix formation    ....       0.000 sec  (  0.0%)
Population analysis         ....       0.000 sec  (  0.0%)
Initial guess               ....       0.000 sec  (  0.1%)
Orbital Transformation      ....       0.000 sec  (  0.0%)
Orbital Orthonormalization  ....       0.000 sec  (  0.0%)
DIIS solution               ....       0.025 sec  (  4.8%)

-------------------------   --------------------
FINAL SINGLE POINT ENERGY      -283.276155217932
-------------------------   --------------------


                            ***************************************
                            *     ORCA property calculations      *
                            ***************************************

                                    ---------------------
                                    Active property flags
                                    ---------------------
   (+) Dipole Moment


------------------------------------------------------------------------------
                       ORCA ELECTRIC PROPERTIES CALCULATION
------------------------------------------------------------------------------

Dipole Moment Calculation                       ... on
Quadrupole Moment Calculation                   ... off
Polarizability Calculation                      ... off
GBWName                                         ... 54_Xe_atom54.gbw
Electron density file                           ... 54_Xe_atom54.scfp
The origin for moment calculation is the CENTER OF MASS  = ( 0.000000,  0.000000  0.000000)

-------------
DIPOLE MOMENT
-------------
                                X             Y             Z
Electronic contribution:      0.00000      -0.00000      -0.00000
Nuclear contribution   :      0.00000       0.00000       0.00000
                        -----------------------------------------
Total Dipole Moment    :      0.00000      -0.00000      -0.00000
                        -----------------------------------------
Magnitude (a.u.)       :      0.00000
Magnitude (Debye)      :      0.00000



--------------------
Rotational spectrum 
--------------------
 
Rotational constants in cm-1:     0.000000     0.000000     0.000000 
Rotational constants in MHz :     0.000000     0.000000     0.000000 

 Dipole components along the rotational axes: 
x,y,z [a.u.] :     0.000000    -0.000000    -0.000000 
x,y,z [Debye]:     0.000000    -0.000000    -0.000000 

 

Timings for individual modules:

Sum of individual times         ...        0.776 sec (=   0.013 min)
GTO integral calculation        ...        0.240 sec (=   0.004 min)  30.9 %
SCF iterations                  ...        0.537 sec (=   0.009 min)  69.1 %
                             ****ORCA TERMINATED NORMALLY****
TOTAL RUN TIME: 0 days 0 hours 0 minutes 0 seconds 980 msec
