
                                 *****************
                                 * O   R   C   A *
                                 *****************

           --- An Ab Initio, DFT and Semiempirical electronic structure package ---

                  #######################################################
                  #                        -***-                        #
                  #          Department of theory and spectroscopy      #
                  #               Directorship: Frank Neese             #
                  #        Max Planck Institute fuer Kohlenforschung    #
                  #                Kaiser Wilhelm Platz 1               #
                  #                 D-45470 Muelheim/Ruhr               #
                  #                      Germany                        #
                  #                                                     #
                  #                  All rights reserved                #
                  #                        -***-                        #
                  #######################################################


                         Program Version 4.2.0 -  RELEASE  -


 With contributions from (in alphabetic order):
   Daniel Aravena         : Magnetic Suceptibility
   Michael Atanasov       : Ab Initio Ligand Field Theory (pilot matlab implementation)
   Alexander A. Auer      : GIAO ZORA, VPT2
   Ute Becker             : Parallelization
   Giovanni Bistoni       : ED, misc. LED, open-shell LED, HFLED
   Martin Brehm           : Molecular dynamics
   Dmytro Bykov           : SCF Hessian
   Vijay G. Chilkuri      : MRCI spin determinant printing, contributions to CSF-ICE
   Dipayan Datta          : RHF DLPNO-CCSD density
   Achintya Kumar Dutta   : EOM-CC, STEOM-CC
   Dmitry Ganyushin       : Spin-Orbit,Spin-Spin,Magnetic field MRCI
   Miquel Garcia          : C-PCM Hessian, Gaussian charge scheme
   Yang Guo               : DLPNO-NEVPT2, CIM, IAO-localization
   Andreas Hansen         : Spin unrestricted coupled pair/coupled cluster methods
   Benjamin Helmich-Paris : CASSCF linear response (MC-RPA)
   Lee Huntington         : MR-EOM, pCC
   Robert Izsak           : Overlap fitted RIJCOSX, COSX-SCS-MP3, EOM
   Christian Kollmar      : KDIIS, OOCD, Brueckner-CCSD(T), CCSD density
   Simone Kossmann        : Meta GGA functionals, TD-DFT gradient, OOMP2, MP2 Hessian
   Martin Krupicka        : AUTO-CI
   Lucas Lang             : DCDCAS
   Dagmar Lenk            : GEPOL surface, SMD
   Dimitrios Liakos       : Extrapolation schemes; Compound Job, initial MDCI parallelization
   Dimitrios Manganas     : Further ROCIS development; embedding schemes
   Dimitrios Pantazis     : SARC Basis sets
   Taras Petrenko         : DFT Hessian,TD-DFT gradient, ASA, ECA, R-Raman, ABS, FL, XAS/XES, NRVS
   Peter Pinski           : DLPNO-MP2, DLPNO-MP2 Gradient
   Christoph Reimann      : Effective Core Potentials
   Marius Retegan         : Local ZFS, SOC
   Christoph Riplinger    : Optimizer, TS searches, QM/MM, DLPNO-CCSD(T), (RO)-DLPNO pert. Triples
   Tobias Risthaus        : Range-separated hybrids, TD-DFT gradient, RPA, STAB
   Michael Roemelt        : Original ROCIS implementation
   Masaaki Saitow         : Open-shell DLPNO-CCSD energy and density
   Barbara Sandhoefer     : DKH picture change effects
   Avijit Sen             : IP-ROCIS
   Kantharuban Sivalingam : CASSCF convergence, NEVPT2, FIC-MRCI
   Bernardo de Souza      : ESD, SOC TD-DFT
   Georgi Stoychev        : AutoAux, RI-MP2 NMR
   Willem Van den Heuvel  : Paramagnetic NMR
   Boris Wezisla          : Elementary symmetry handling
   Frank Wennmohs         : Technical directorship


 We gratefully acknowledge several colleagues who have allowed us to
 interface, adapt or use parts of their codes:
   Stefan Grimme, W. Hujo, H. Kruse,             : VdW corrections, initial TS optimization,
                  C. Bannwarth                     DFT functionals, gCP, sTDA/sTD-DF
   Ed Valeev, F. Pavosevic, A. Kumar             : LibInt (2-el integral package), F12 methods
   Garnet Chan, S. Sharma, J. Yang, R. Olivares  : DMRG
   Ulf Ekstrom                                   : XCFun DFT Library
   Mihaly Kallay                                 : mrcc  (arbitrary order and MRCC methods)
   Andreas Klamt, Michael Diedenhofen            : otool_cosmo (COSMO solvation model)
   Jiri Pittner, Ondrej Demel                    : Mk-CCSD
   Frank Weinhold                                : gennbo (NPA and NBO analysis)
   Christopher J. Cramer and Donald G. Truhlar   : smd solvation model
   Lars Goerigk                                  : TD-DFT with DH, B97 family of functionals
   V. Asgeirsson, H. Jonsson                     : NEB implementation
   FAccTs GmbH                                   : IRC, NEB, NEB-TS, Multilevel, MM, QM/MM, CI optimization
   S Lehtola, MJT Oliveira, MAL Marques          : LibXC Library


 Your calculation uses the libint2 library for the computation of 2-el integrals
 For citations please refer to: http://libint.valeyev.net

 Your ORCA version has been built with support for libXC version: 4.2.3
 For citations please refer to: https://tddft.org/programs/libxc/

 This ORCA versions uses:
   CBLAS   interface :  Fast vector & matrix operations
   LAPACKE interface :  Fast linear algebra routines
   SCALAPACK package :  Parallel linear algebra routines


----- Orbital basis set information -----
Your calculation utilizes the basis: def2-SVP
   F. Weigend and R. Ahlrichs, Phys. Chem. Chem. Phys. 7, 3297 (2005).

----- AuxJ basis set information -----
Your calculation utilizes the auxiliary basis: def2/J
   F. Weigend, Phys. Chem. Chem. Phys. 8, 1057 (2006).

================================================================================
                                        WARNINGS
                       Please study these warnings very carefully!
================================================================================


INFO   : the flag for use of LIBINT has been found!

================================================================================
                                       INPUT FILE
================================================================================
NAME = 56_Ba_atom56.inp
|  1> # input to generate an atomic fitting density for Ba
|  2> # this file is use internally by ORCA
|  3> #
|  4> # atomic ground state (S=1): 1s2 2s2 2p6 3s2 3p6 4s2 3d10 4p6 5s2 4d10 5p6 6s2 
|  5> #
|  6> ! RHF AllowRHF def2-SVP def2/J  NoMulliken NoLoewdin NoMayer NoPrintMOs 
|  7> 
|  8> %output print[p_atomdensfit] 2 end
|  9> 
| 10> %scf
| 11>   guess hcore
| 12>   maxiter 1000
| 13>   maxdisk 500000
| 14>   SCFMode Conventional
| 15>   lshift 1.000000
| 16>   hftyp rohf
| 17>   rohf_case sahf
| 18>   rohf_numop   2
| 19>   rohf_norb[1] 1
| 20>   rohf_nel[1]  2
| 21> end
| 22> 
| 23> %basis
| 24>   NewECP 56
| 25>     N_core 46
| 26>     lmax f
| 27>     s 3
| 28>       1       9.5269860000    427.8458160000  2
| 29>       2       4.4875100000    204.4175300000  2
| 30>       3       3.5894650000     33.4731740000  2
| 31>     p 3
| 32>       1       8.3159300000    293.6058640000  2
| 33>       2       4.2922170000    294.1933160000  2
| 34>       3       3.5894650000     33.4731740000  2
| 35>     d 3
| 36>       1       5.9161080000    112.5504020000  2
| 37>       2       2.8748420000    181.7826210000  2
| 38>       3       3.5894650000     33.4731740000  2
| 39>     f 1
| 40>       1       3.5894650000    -33.4731740000  2
| 41>   end
| 42>   NewGTO 56
| 43>     s 2 
| 44>      1       5.7000000000      3.1943476910
| 45>      2       5.2043612469     -4.1734671994
| 46>     s 1 
| 47>      1       2.1475437282      1.0000000000
| 48>     s 1 
| 49>      1       0.4103366054      1.0000000000
| 50>     s 1 
| 51>      1       0.1839353277      1.0000000000
| 52>     s 1 
| 53>      1       0.0725212165      1.0000000000
| 54>     s 1 
| 55>      1       0.0345263349      1.0000000000
| 56>     s 1 
| 57>      1       0.0161578919      1.0000000000
| 58>     p 4 
| 59>      1       5.6000000000      1.0960872467
| 60>      2       5.1104879274     -1.5044499387
| 61>      3       2.5006544803      0.9134374981
| 62>      4       0.5194799534     -1.2185468782
| 63>     p 1 
| 64>      1       0.2453699484      1.0000000000
| 65>     p 1 
| 66>      1       0.1125605670      1.0000000000
| 67>     p 1 
| 68>      1       0.0349176220      1.0000000000
| 69>     p 1 
| 70>      1       0.0163200657      1.0000000000
| 71>   end
| 72>   NewAuxGTO 56
| 73>     S 1
| 74>      1 1310.72 1.0
| 75>     S 1
| 76>      1  655.36 1.0
| 77>     S 1
| 78>      1  327.68 1.0
| 79>     S 1
| 80>      1  163.84 1.0
| 81>     S 1
| 82>      1   81.82 1.0
| 83>     S 1
| 84>      1   40.96 1.0
| 85>     S 1
| 86>      1   20.48 1.0
| 87>     S 1
| 88>      1   10.24 1.0
| 89>     S 1
| 90>      1    5.12 1.0
| 91>     S 1
| 92>      1    2.56 1.0
| 93>     S 1
| 94>      1    1.28 1.0
| 95>     S 1
| 96>      1    0.64 1.0
| 97>     S 1
| 98>      1    0.32 1.0
| 99>     S 1
|100>      1    0.16 1.0
|101>     S 1
|102>      1    0.08 1.0
|103>     S 1
|104>      1    0.04 1.0
|105>     S 1
|106>      1    0.02 1.0
|107>     S 1
|108>      1    0.01 1.0
|109>   end
|110> end
|111> 
|112> * xyz 0 1
|113> 56  0.0 0.0 0.0
|114> *
|115> 
|116> 
|117>                          ****END OF INPUT****
================================================================================

                       ****************************
                       * Single Point Calculation *
                       ****************************

---------------------------------
CARTESIAN COORDINATES (ANGSTROEM)
---------------------------------
  Ba     0.000000    0.000000    0.000000

----------------------------
CARTESIAN COORDINATES (A.U.)
----------------------------
  NO LB      ZA    FRAG     MASS         X           Y           Z
   0 Ba   10.0000*   0   137.330    0.000000    0.000000    0.000000
* core charge reduced due to ECP

--------------------------------
INTERNAL COORDINATES (ANGSTROEM)
--------------------------------
 Ba     0   0   0     0.000000000000     0.00000000     0.00000000

---------------------------
INTERNAL COORDINATES (A.U.)
---------------------------
 Ba     0   0   0     0.000000000000     0.00000000     0.00000000

---------------------
BASIS SET INFORMATION
---------------------
There are 1 groups of distinct atoms

 Group   1 Type Ba  : 8s8p contracted to 7s5p pattern {2111111/41111}

Atom   0Ba   basis set group =>   1
---------------------------------
AUXILIARY/J BASIS SET INFORMATION
---------------------------------
There are 1 groups of distinct atoms

 Group   1 Type Ba  : 18s contracted to 18s pattern {111111111111111111}

Atom   0Ba   basis set group =>   1
-------------------------
ECP PARAMETER INFORMATION
-------------------------

 Group 1, Type Ba ECP (replacing 46 core electrons, lmax=3)

Atom   0Ba   ECP group =>   1

------------------------------------------------------------------------------
                           ORCA GTO INTEGRAL CALCULATION
------------------------------------------------------------------------------

                         BASIS SET STATISTICS AND STARTUP INFO

 # of primitive gaussian shells          ...   16
 # of primitive gaussian functions       ...   32
 # of contracted shells                  ...   12
 # of contracted basis functions         ...   22
 Highest angular momentum                ...    1
 Maximum contraction depth               ...    4
 Integral package used                   ... LIBINT
 Integral threshhold            Thresh   ...  1.000e-10
 Primitive cut-off              TCut     ...  1.000e-11
 Storage cut-off                TCutStore... -1.000e+00
 Buffer length                           ... 1048576 integrals/buffer
 Generate file with integrals 4 distinct ...false


------------------------------ INTEGRAL EVALUATION ----------------------------


 * One electron integrals 

   ECP integrals                         ... done
 Pre-screening matrix                    ... done
 Shell pair data                         ... done (   0.000 sec)
 Statistics run                          ... done
 Maximum amount of storage needed        ...     0 MB
 Maximum amount of storage dedicated     ... 500000 MB
 Beginning two electron integral evaluation:
 Starting repulsion integrals
  <ss|ss>  ...          406 b.         0 skpd (  0.0%)     0.000 s. (  0.000 ms/b)
  <ss|sp>  ...          980 b.         0 skpd (  0.0%)     0.000 s. (  0.000 ms/b)
  <ss|pp>  ...          420 b.         0 skpd (  0.0%)     0.000 s. (  0.000 ms/b)
  <sp|sp>  ...          630 b.         0 skpd (  0.0%)     0.000 s. (  0.000 ms/b)
  <sp|pp>  ...          525 b.         0 skpd (  0.0%)     0.001 s. (  0.001 ms/b)
  <pp|pp>  ...          120 b.         0 skpd (  0.0%)     0.000 s. (  0.004 ms/b)


                                      INTEGRAL STATISTICS

Integral type statistics:
 Number of integrals retained            ...      32131 
 One   Center Integrals retained         ...      32131 (100.0%)
 Two   Center Integrals retained         ...          0 (  0.0%)
 Three Center Integrals retained         ...          0 (  0.0%)
 Four  Center Integrals retained         ...          0 (  0.0%)

Storage statistics:
 Number of char integrals                ...          0 (  0.0%)
 Number of short int integrals           ...          0 (  0.0%)
 Number of double/float integrals        ...      32131 (100.0%)
 Amount of memory used                   ...          0 MB
 Amount of memory estimated              ...          0 MB ( 95.4%)

Prescreening statistics:
 Total number of shell quadruples        ...       3081 
 Number of skipped shell quadruples      ...          0 (  0.0%)
 # of negligible batches done            ...          0 (  0.0%)

Timings:
 Total evaluation time               ...     0.157 sec (   0.003 min)
 One electron matrix time            ...     0.013 sec (   0.000 min) =  8.1%
 Schwartz matrix evaluation time     ...     0.072 sec (   0.001 min) = 45.9%
 Statistics run                      ...     0.000 sec (   0.000 min) =  0.2%
 Repulsion integral time             ...     0.002 sec (   0.000 min) =  1.0%

-------------------------------------------------------------------------------
                                 ORCA SCF
-------------------------------------------------------------------------------

------------
SCF SETTINGS
------------
Hamiltonian:
 Ab initio Hamiltonian  Method          .... Hartree-Fock(GTOs)


General Settings:
 Integral files         IntName         .... 56_Ba_atom56
 Hartree-Fock type      HFTyp           .... ROHF
 Total Charge           Charge          ....    0
 Multiplicity           Mult            ....    1
 Number of Electrons    NEL             ....   10
 Basis Dimension        Dim             ....   22
 Nuclear Repulsion      ENuc            ....      0.0000000000 Eh

Convergence Acceleration:
 DIIS                   CNVDIIS         .... on
   Start iteration      DIISMaxIt       ....    12
   Startup error        DIISStart       ....  0.200000
   # of expansion vecs  DIISMaxEq       ....     5
   Bias factor          DIISBfac        ....   1.050
   Max. coefficient     DIISMaxC        ....  10.000
 Newton-Raphson         CNVNR           .... off
 SOSCF                  CNVSOSCF        .... off
 Level Shifting         CNVShift        .... on
   Level shift para.    LevelShift      ....    1.0000
   Turn off err/grad.   ShiftErr        ....    0.0010
 Zerner damping         CNVZerner       .... off
 Static damping         CNVDamp         .... on
   Fraction old density DampFac         ....    0.7000
   Max. Damping (<1)    DampMax         ....    0.9800
   Min. Damping (>=0)   DampMin         ....    0.0000
   Turn off err/grad.   DampErr         ....    0.1000
 Fernandez-Rico         CNVRico         .... off

SCF Procedure:
 Maximum # iterations   MaxIter         ....  1000
 SCF integral mode      SCFMode         .... Conventional
 Integral Threshold     Thresh          ....  1.000e-10 Eh
 Primitive CutOff       TCut            ....  1.000e-11 Eh
 Integral Buffer length BufferLength    .... 1048576
 Integral index format  IndFormat       ....     0
 Integral value format  ValFormat       ....     0
 Integral Storage       Thresh          ....  1.000e-10 Eh

Convergence Tolerance:
 Convergence Check Mode ConvCheckMode   .... Total+1el-Energy
 Convergence forced     ConvForced      .... 0
 Energy Change          TolE            ....  1.000e-06 Eh
 1-El. energy change                    ....  1.000e-03 Eh
 DIIS Error             TolErr          ....  1.000e-06


Diagonalization of the overlap matrix:
Smallest eigenvalue                        ... 3.640e-03
Time for diagonalization                   ...    0.000 sec
Threshold for overlap eigenvalues          ... 1.000e-08
Number of eigenvalues below threshold      ... 0
Time for construction of square roots      ...    0.002 sec
Total time needed                          ...    0.002 sec

--------------------
INITIAL GUESS: HCORE
--------------------
AVERAGE-CONFIGURATION (SAHF) CASE FOUND

-------------------
FINAL ROHF SETTINGS
-------------------
Number of operators             ... 2
  operator   0:   4 orbitals   8 electrons n(mue)= 2.000
  operator   1:   1 orbitals   2 electrons n(mue)= 2.000
Vector coupling coefficients a and b (Zerner convention):
   1.000    1.000           1.000    1.000 
   1.000    1.000           1.000    1.000 

                      -----------------
                      INTIAL GUESS DONE 
                      -----------------

 InCore treatment chosen:
   Memory dedicated               ...    1024 MB
   Memory needed                  ...      0 MB
   Number of tiny    integrals    ...       0
   Number of small   integrals    ...       0
   Number of regular integrals    ...   32131

--------------
SCF ITERATIONS
--------------
ITER       Energy         Delta-E        Max-DP      RMS-DP      [F,P]     Damp
  0    -23.7389184298   0.000000000000 2.35421125  0.12565377  0.4595360 0.7000
  1    -24.2221700196  -0.483251589817 1.98064578  0.11351201  0.2857777 0.7000
                            ****Activating DIIS****
  2    -24.4956363046  -0.273466285035 1.54729788  0.08766893  0.1613498 0.7000
  3    -24.7160590128  -0.220422708195 3.68198062  0.19830687  0.0702746 0.0000
  4    -25.0374382701  -0.321379257287 0.40771093  0.01733118  0.0584910 0.0000
  5    -25.0454550799  -0.008016809796 0.77849696  0.03118771  0.0554461 0.0000
  6    -25.0619565708  -0.016501490943 0.84941045  0.03753024  0.0441705 0.0000
  7    -25.0811470223  -0.019190451437 0.26818926  0.01376768  0.0231585 0.0000
  8    -25.0872936423  -0.006146620015 0.28410314  0.01417643  0.0161827 0.0000
  9    -25.0919173667  -0.004623724373 0.09134807  0.00483851  0.0119697 0.0000
 10    -25.0936293382  -0.001711971521 0.17632741  0.00635486  0.0080947 0.0000
 11    -25.0944100380  -0.000780699764 0.13493800  0.00480220  0.0051193 0.0000
 12    -25.0947218429  -0.000311804940 0.08959005  0.00322711  0.0040491 0.0000
 13    -25.0948915148  -0.000169671922 0.08631341  0.00312687  0.0033775 0.0000
 14    -25.0950287302  -0.000137215403 0.12034451  0.00440426  0.0026692 0.0000
 15    -25.0951668814  -0.000138151206 0.10026938  0.00375568  0.0015034 0.0000
 16    -25.0952182103  -0.000051328905 0.01114108  0.00041709  0.0003867 0.0000
 17    -25.0952202861  -0.000002075751 0.00472050  0.00019723  0.0002156 0.0000
                 **** Energy Check signals convergence ****

               *****************************************************
               *                     SUCCESS                       *
               *           SCF CONVERGED AFTER  18 CYCLES          *
               *****************************************************


----------------
TOTAL SCF ENERGY
----------------

Total Energy       :          -25.09522057 Eh            -682.87567 eV

Components:
Nuclear Repulsion  :            0.00000000 Eh               0.00000 eV
Electronic Energy  :          -25.09522057 Eh            -682.87567 eV
One Electron Energy:          -41.13274431 Eh           -1119.27888 eV
Two Electron Energy:           16.03752374 Eh             436.40321 eV

Virial components:
Potential Energy   :          -32.37620186 Eh            -881.00124 eV
Kinetic Energy     :            7.28098129 Eh             198.12557 eV
Virial Ratio       :            4.44668110


---------------
SCF CONVERGENCE
---------------

  Last Energy change         ...   -2.8616e-07  Tolerance :   1.0000e-06
  Last MAX-Density change    ...    3.3020e-03  Tolerance :   1.0000e-05
  Last RMS-Density change    ...    1.4719e-04  Tolerance :   1.0000e-06
  Last DIIS Error            ...    2.1811e-04  Tolerance :   1.0000e-06

             **** THE GBW FILE WAS UPDATED (56_Ba_atom56.gbw) ****
             **** DENSITY FILE WAS UPDATED (56_Ba_atom56.scfp) ****
             **** ENERGY FILE WAS UPDATED (56_Ba_atom56.en.tmp) ****
             **** THE GBW FILE WAS UPDATED (56_Ba_atom56.gbw) ****
             **** DENSITY FILE WAS UPDATED (56_Ba_atom56.scfp) ****
----------------
ORBITAL ENERGIES
----------------

  NO   OCC          E(Eh)            E(eV) 
   0   2.0000      -1.555322       -42.3225 
   1   2.0000      -0.911505       -24.8033 
   2   2.0000      -0.911505       -24.8033 
   3   2.0000      -0.911505       -24.8033 
   4   2.0000      -0.238560        -6.4915 
   5   0.0000       0.014260         0.3880 
   6   0.0000       0.014260         0.3880 
   7   0.0000       0.014260         0.3880 
   8   0.0000       0.051047         1.3891 
   9   0.0000       0.090307         2.4574 
  10   0.0000       0.090307         2.4574 
  11   0.0000       0.090307         2.4574 
  12   0.0000       0.261510         7.1160 
  13   0.0000       0.419472        11.4144 
  14   0.0000       0.419472        11.4144 
  15   0.0000       0.419472        11.4144 
  16   0.0000       1.067606        29.0510 
  17   0.0000      26.491464       720.8694 
  18   0.0000      27.390541       745.3345 
  19   0.0000      27.390541       745.3345 
  20   0.0000      27.390541       745.3345 
  21   0.0000     257.240051      6999.8577 
--------------------------
ATOM BASIS FOR ELEMENT Ba
--------------------------
 NewGTO Ba
 S 8
    1          5.700000000000        -1.388286430274
    2          5.204361246900         1.813818795131
    3          2.147543728200        -0.992253810396
    4          0.410336605400         1.045975758988
    5          0.183935327700         0.411836712158
    6          0.072521216500        -0.062825452048
    7          0.034526334900        -0.162328487292
    8          0.016157891900        -0.064200929760
 S 8
    1          5.700000000000        -0.113880319952
    2          5.204361246900         0.148786489747
    3          2.147543728200        -0.091625809493
    4          0.410336605400         0.187142519371
    5          0.183935327700         0.277920856018
    6          0.072521216500        -0.255310848442
    7          0.034526334900        -0.711963592040
    8          0.016157891900        -0.270561964726
 S 8
    1          5.700000000000        -0.246084095574
    2          5.204361246900         0.321512872274
    3          2.147543728200        -0.183339071999
    4          0.410336605400         0.362033818761
    5          0.183935327700        -0.296096219236
    6          0.072521216500         1.555781428756
    7          0.034526334900        -4.180278669083
    8          0.016157891900         3.073752073004
 S 8
    1          5.700000000000        -0.418052913894
    2          5.204361246900         0.546192929676
    3          2.147543728200        -0.305787707156
    4          0.410336605400        -0.016762935918
    5          0.183935327700         2.696158072901
    6          0.072521216500        -7.154716041142
    7          0.034526334900         6.987064338628
    8          0.016157891900        -2.398687021218
 S 8
    1          5.700000000000        -1.858499538973
    2          5.204361246900         2.428159867461
    3          2.147543728200        -1.439406797110
    4          0.410336605400         5.003357258292
    5          0.183935327700        -7.887403836849
    6          0.072521216500         7.014678609367
    7          0.034526334900        -4.360858999014
    8          0.016157891900         1.238630533248
 S 8
    1          5.700000000000        -8.238773378915
    2          5.204361246900        10.764091384625
    3          2.147543728200        -3.853696019115
    4          0.410336605400         2.249596226422
    5          0.183935327700        -2.264842928317
    6          0.072521216500         1.630920188768
    7          0.034526334900        -0.993129024700
    8          0.016157891900         0.288993559891
 S 8
    1          5.700000000000        -7.628318741326
    2          5.204361246900         9.966522474429
    3          2.147543728200        -1.834845639874
    4          0.410336605400         0.834118939086
    5          0.183935327700        -0.826696848943
    6          0.072521216500         0.594849683730
    7          0.034526334900        -0.363024326236
    8          0.016157891900         0.105864956792
 P 8
    1          5.600000000000        -0.513869422595
    2          5.110487927400         0.705318690323
    3          2.500654480300        -0.428239267575
    4          0.519479953400         0.571281148093
    5          0.245369948400         0.483958693151
    6          0.112560567000         0.106967311860
    7          0.034917622000         0.004474006021
    8          0.016320065700        -0.000215961602
 P 8
    1          5.600000000000        -0.082687981025
    2          5.110487927400         0.113494549234
    3          2.500654480300        -0.068909024111
    4          0.519479953400         0.091926241681
    5          0.245369948400         0.159598482528
    6          0.112560567000        -0.101811452379
    7          0.034917622000         0.026224534632
    8          0.016320065700        -1.003296248933
 P 8
    1          5.600000000000        -0.112067740190
    2          5.110487927400         0.153820150145
    3          2.500654480300        -0.093392999987
    4          0.519479953400         0.124588435242
    5          0.245369948400         0.130386840956
    6          0.112560567000         0.305837906083
    7          0.034917622000        -2.201784874052
    8          0.016320065700         1.735644085238
 P 8
    1          5.600000000000        -0.342603258384
    2          5.110487927400         0.470244912188
    3          2.500654480300        -0.285512548496
    4          0.519479953400         0.380880383585
    5          0.245369948400         1.275063020419
    6          0.112560567000        -2.689720038259
    7          0.034917622000         2.033559068528
    8          0.016320065700        -0.924270919938
 P 8
    1          5.600000000000        -2.689050960512
    2          5.110487927400         3.690894648107
    3          2.500654480300        -2.240952979819
    4          0.519479953400         2.989483422162
    5          0.245369948400        -4.038040287644
    6          0.112560567000         2.485953369329
    7          0.034917622000        -1.085186724117
    8          0.016320065700         0.473913535456
 end
  // -----------------------------------------------
  // The basis set
  // -----------------------------------------------
  BAS[ATNO] = new BFNGauss[NSH];
  // Basis function   1 L = s
  InitBFNGauss(BAS[ATNO][  0]);
  BAS[ATNO][  0].l  = 0;
  BAS[ATNO][  0].ng = 8;
  BAS[ATNO][  0].a[  0] =         5.700000000000;     BAS[ATNO][  0].d[  0] =        -1.388286430274;
  BAS[ATNO][  0].a[  1] =         5.204361246900;     BAS[ATNO][  0].d[  1] =         1.813818795131;
  BAS[ATNO][  0].a[  2] =         2.147543728200;     BAS[ATNO][  0].d[  2] =        -0.992253810396;
  BAS[ATNO][  0].a[  3] =         0.410336605400;     BAS[ATNO][  0].d[  3] =         1.045975758988;
  BAS[ATNO][  0].a[  4] =         0.183935327700;     BAS[ATNO][  0].d[  4] =         0.411836712158;
  BAS[ATNO][  0].a[  5] =         0.072521216500;     BAS[ATNO][  0].d[  5] =        -0.062825452048;
  BAS[ATNO][  0].a[  6] =         0.034526334900;     BAS[ATNO][  0].d[  6] =        -0.162328487292;
  BAS[ATNO][  0].a[  7] =         0.016157891900;     BAS[ATNO][  0].d[  7] =        -0.064200929760;

  // Basis function   2 L = s
  InitBFNGauss(BAS[ATNO][  1]);
  BAS[ATNO][  1].l  = 0;
  BAS[ATNO][  1].ng = 8;
  BAS[ATNO][  1].a[  0] =         5.700000000000;     BAS[ATNO][  1].d[  0] =         0.113880319952;
  BAS[ATNO][  1].a[  1] =         5.204361246900;     BAS[ATNO][  1].d[  1] =        -0.148786489747;
  BAS[ATNO][  1].a[  2] =         2.147543728200;     BAS[ATNO][  1].d[  2] =         0.091625809493;
  BAS[ATNO][  1].a[  3] =         0.410336605400;     BAS[ATNO][  1].d[  3] =        -0.187142519371;
  BAS[ATNO][  1].a[  4] =         0.183935327700;     BAS[ATNO][  1].d[  4] =        -0.277920856018;
  BAS[ATNO][  1].a[  5] =         0.072521216500;     BAS[ATNO][  1].d[  5] =         0.255310848442;
  BAS[ATNO][  1].a[  6] =         0.034526334900;     BAS[ATNO][  1].d[  6] =         0.711963592040;
  BAS[ATNO][  1].a[  7] =         0.016157891900;     BAS[ATNO][  1].d[  7] =         0.270561964726;

  // Basis function   3 L = s
  InitBFNGauss(BAS[ATNO][  2]);
  BAS[ATNO][  2].l  = 0;
  BAS[ATNO][  2].ng = 8;
  BAS[ATNO][  2].a[  0] =         5.700000000000;     BAS[ATNO][  2].d[  0] =         0.246084095574;
  BAS[ATNO][  2].a[  1] =         5.204361246900;     BAS[ATNO][  2].d[  1] =        -0.321512872274;
  BAS[ATNO][  2].a[  2] =         2.147543728200;     BAS[ATNO][  2].d[  2] =         0.183339071999;
  BAS[ATNO][  2].a[  3] =         0.410336605400;     BAS[ATNO][  2].d[  3] =        -0.362033818761;
  BAS[ATNO][  2].a[  4] =         0.183935327700;     BAS[ATNO][  2].d[  4] =         0.296096219236;
  BAS[ATNO][  2].a[  5] =         0.072521216500;     BAS[ATNO][  2].d[  5] =        -1.555781428756;
  BAS[ATNO][  2].a[  6] =         0.034526334900;     BAS[ATNO][  2].d[  6] =         4.180278669083;
  BAS[ATNO][  2].a[  7] =         0.016157891900;     BAS[ATNO][  2].d[  7] =        -3.073752073004;

  // Basis function   4 L = s
  InitBFNGauss(BAS[ATNO][  3]);
  BAS[ATNO][  3].l  = 0;
  BAS[ATNO][  3].ng = 8;
  BAS[ATNO][  3].a[  0] =         5.700000000000;     BAS[ATNO][  3].d[  0] =         0.418052913894;
  BAS[ATNO][  3].a[  1] =         5.204361246900;     BAS[ATNO][  3].d[  1] =        -0.546192929676;
  BAS[ATNO][  3].a[  2] =         2.147543728200;     BAS[ATNO][  3].d[  2] =         0.305787707156;
  BAS[ATNO][  3].a[  3] =         0.410336605400;     BAS[ATNO][  3].d[  3] =         0.016762935918;
  BAS[ATNO][  3].a[  4] =         0.183935327700;     BAS[ATNO][  3].d[  4] =        -2.696158072901;
  BAS[ATNO][  3].a[  5] =         0.072521216500;     BAS[ATNO][  3].d[  5] =         7.154716041142;
  BAS[ATNO][  3].a[  6] =         0.034526334900;     BAS[ATNO][  3].d[  6] =        -6.987064338628;
  BAS[ATNO][  3].a[  7] =         0.016157891900;     BAS[ATNO][  3].d[  7] =         2.398687021218;

  // Basis function   5 L = s
  InitBFNGauss(BAS[ATNO][  4]);
  BAS[ATNO][  4].l  = 0;
  BAS[ATNO][  4].ng = 8;
  BAS[ATNO][  4].a[  0] =         5.700000000000;     BAS[ATNO][  4].d[  0] =         1.858499538973;
  BAS[ATNO][  4].a[  1] =         5.204361246900;     BAS[ATNO][  4].d[  1] =        -2.428159867461;
  BAS[ATNO][  4].a[  2] =         2.147543728200;     BAS[ATNO][  4].d[  2] =         1.439406797110;
  BAS[ATNO][  4].a[  3] =         0.410336605400;     BAS[ATNO][  4].d[  3] =        -5.003357258292;
  BAS[ATNO][  4].a[  4] =         0.183935327700;     BAS[ATNO][  4].d[  4] =         7.887403836849;
  BAS[ATNO][  4].a[  5] =         0.072521216500;     BAS[ATNO][  4].d[  5] =        -7.014678609367;
  BAS[ATNO][  4].a[  6] =         0.034526334900;     BAS[ATNO][  4].d[  6] =         4.360858999014;
  BAS[ATNO][  4].a[  7] =         0.016157891900;     BAS[ATNO][  4].d[  7] =        -1.238630533248;

  // Basis function   6 L = s
  InitBFNGauss(BAS[ATNO][  5]);
  BAS[ATNO][  5].l  = 0;
  BAS[ATNO][  5].ng = 8;
  BAS[ATNO][  5].a[  0] =         5.700000000000;     BAS[ATNO][  5].d[  0] =        -8.238773378915;
  BAS[ATNO][  5].a[  1] =         5.204361246900;     BAS[ATNO][  5].d[  1] =        10.764091384625;
  BAS[ATNO][  5].a[  2] =         2.147543728200;     BAS[ATNO][  5].d[  2] =        -3.853696019115;
  BAS[ATNO][  5].a[  3] =         0.410336605400;     BAS[ATNO][  5].d[  3] =         2.249596226422;
  BAS[ATNO][  5].a[  4] =         0.183935327700;     BAS[ATNO][  5].d[  4] =        -2.264842928317;
  BAS[ATNO][  5].a[  5] =         0.072521216500;     BAS[ATNO][  5].d[  5] =         1.630920188768;
  BAS[ATNO][  5].a[  6] =         0.034526334900;     BAS[ATNO][  5].d[  6] =        -0.993129024700;
  BAS[ATNO][  5].a[  7] =         0.016157891900;     BAS[ATNO][  5].d[  7] =         0.288993559891;

  // Basis function   7 L = s
  InitBFNGauss(BAS[ATNO][  6]);
  BAS[ATNO][  6].l  = 0;
  BAS[ATNO][  6].ng = 8;
  BAS[ATNO][  6].a[  0] =         5.700000000000;     BAS[ATNO][  6].d[  0] =        -7.628318741326;
  BAS[ATNO][  6].a[  1] =         5.204361246900;     BAS[ATNO][  6].d[  1] =         9.966522474429;
  BAS[ATNO][  6].a[  2] =         2.147543728200;     BAS[ATNO][  6].d[  2] =        -1.834845639874;
  BAS[ATNO][  6].a[  3] =         0.410336605400;     BAS[ATNO][  6].d[  3] =         0.834118939086;
  BAS[ATNO][  6].a[  4] =         0.183935327700;     BAS[ATNO][  6].d[  4] =        -0.826696848943;
  BAS[ATNO][  6].a[  5] =         0.072521216500;     BAS[ATNO][  6].d[  5] =         0.594849683730;
  BAS[ATNO][  6].a[  6] =         0.034526334900;     BAS[ATNO][  6].d[  6] =        -0.363024326236;
  BAS[ATNO][  6].a[  7] =         0.016157891900;     BAS[ATNO][  6].d[  7] =         0.105864956792;

  // Basis function   8 L = p
  InitBFNGauss(BAS[ATNO][  7]);
  BAS[ATNO][  7].l  = 1;
  BAS[ATNO][  7].ng = 8;
  BAS[ATNO][  7].a[  0] =         5.600000000000;     BAS[ATNO][  7].d[  0] =        -0.513869422595;
  BAS[ATNO][  7].a[  1] =         5.110487927400;     BAS[ATNO][  7].d[  1] =         0.705318690323;
  BAS[ATNO][  7].a[  2] =         2.500654480300;     BAS[ATNO][  7].d[  2] =        -0.428239267575;
  BAS[ATNO][  7].a[  3] =         0.519479953400;     BAS[ATNO][  7].d[  3] =         0.571281148093;
  BAS[ATNO][  7].a[  4] =         0.245369948400;     BAS[ATNO][  7].d[  4] =         0.483958693151;
  BAS[ATNO][  7].a[  5] =         0.112560567000;     BAS[ATNO][  7].d[  5] =         0.106967311860;
  BAS[ATNO][  7].a[  6] =         0.034917622000;     BAS[ATNO][  7].d[  6] =         0.004474006021;
  BAS[ATNO][  7].a[  7] =         0.016320065700;     BAS[ATNO][  7].d[  7] =        -0.000215961602;

  // Basis function   9 L = p
  InitBFNGauss(BAS[ATNO][  8]);
  BAS[ATNO][  8].l  = 1;
  BAS[ATNO][  8].ng = 8;
  BAS[ATNO][  8].a[  0] =         5.600000000000;     BAS[ATNO][  8].d[  0] =         0.082687981025;
  BAS[ATNO][  8].a[  1] =         5.110487927400;     BAS[ATNO][  8].d[  1] =        -0.113494549234;
  BAS[ATNO][  8].a[  2] =         2.500654480300;     BAS[ATNO][  8].d[  2] =         0.068909024111;
  BAS[ATNO][  8].a[  3] =         0.519479953400;     BAS[ATNO][  8].d[  3] =        -0.091926241681;
  BAS[ATNO][  8].a[  4] =         0.245369948400;     BAS[ATNO][  8].d[  4] =        -0.159598482528;
  BAS[ATNO][  8].a[  5] =         0.112560567000;     BAS[ATNO][  8].d[  5] =         0.101811452379;
  BAS[ATNO][  8].a[  6] =         0.034917622000;     BAS[ATNO][  8].d[  6] =        -0.026224534632;
  BAS[ATNO][  8].a[  7] =         0.016320065700;     BAS[ATNO][  8].d[  7] =         1.003296248933;

  // Basis function  10 L = p
  InitBFNGauss(BAS[ATNO][  9]);
  BAS[ATNO][  9].l  = 1;
  BAS[ATNO][  9].ng = 8;
  BAS[ATNO][  9].a[  0] =         5.600000000000;     BAS[ATNO][  9].d[  0] =         0.112067740190;
  BAS[ATNO][  9].a[  1] =         5.110487927400;     BAS[ATNO][  9].d[  1] =        -0.153820150145;
  BAS[ATNO][  9].a[  2] =         2.500654480300;     BAS[ATNO][  9].d[  2] =         0.093392999987;
  BAS[ATNO][  9].a[  3] =         0.519479953400;     BAS[ATNO][  9].d[  3] =        -0.124588435242;
  BAS[ATNO][  9].a[  4] =         0.245369948400;     BAS[ATNO][  9].d[  4] =        -0.130386840956;
  BAS[ATNO][  9].a[  5] =         0.112560567000;     BAS[ATNO][  9].d[  5] =        -0.305837906083;
  BAS[ATNO][  9].a[  6] =         0.034917622000;     BAS[ATNO][  9].d[  6] =         2.201784874052;
  BAS[ATNO][  9].a[  7] =         0.016320065700;     BAS[ATNO][  9].d[  7] =        -1.735644085238;

  // Basis function  11 L = p
  InitBFNGauss(BAS[ATNO][ 10]);
  BAS[ATNO][ 10].l  = 1;
  BAS[ATNO][ 10].ng = 8;
  BAS[ATNO][ 10].a[  0] =         5.600000000000;     BAS[ATNO][ 10].d[  0] =         0.342603258384;
  BAS[ATNO][ 10].a[  1] =         5.110487927400;     BAS[ATNO][ 10].d[  1] =        -0.470244912188;
  BAS[ATNO][ 10].a[  2] =         2.500654480300;     BAS[ATNO][ 10].d[  2] =         0.285512548496;
  BAS[ATNO][ 10].a[  3] =         0.519479953400;     BAS[ATNO][ 10].d[  3] =        -0.380880383585;
  BAS[ATNO][ 10].a[  4] =         0.245369948400;     BAS[ATNO][ 10].d[  4] =        -1.275063020419;
  BAS[ATNO][ 10].a[  5] =         0.112560567000;     BAS[ATNO][ 10].d[  5] =         2.689720038259;
  BAS[ATNO][ 10].a[  6] =         0.034917622000;     BAS[ATNO][ 10].d[  6] =        -2.033559068528;
  BAS[ATNO][ 10].a[  7] =         0.016320065700;     BAS[ATNO][ 10].d[  7] =         0.924270919938;

  // Basis function  12 L = p
  InitBFNGauss(BAS[ATNO][ 11]);
  BAS[ATNO][ 11].l  = 1;
  BAS[ATNO][ 11].ng = 8;
  BAS[ATNO][ 11].a[  0] =         5.600000000000;     BAS[ATNO][ 11].d[  0] =         2.689050960512;
  BAS[ATNO][ 11].a[  1] =         5.110487927400;     BAS[ATNO][ 11].d[  1] =        -3.690894648107;
  BAS[ATNO][ 11].a[  2] =         2.500654480300;     BAS[ATNO][ 11].d[  2] =         2.240952979819;
  BAS[ATNO][ 11].a[  3] =         0.519479953400;     BAS[ATNO][ 11].d[  3] =        -2.989483422162;
  BAS[ATNO][ 11].a[  4] =         0.245369948400;     BAS[ATNO][ 11].d[  4] =         4.038040287644;
  BAS[ATNO][ 11].a[  5] =         0.112560567000;     BAS[ATNO][ 11].d[  5] =        -2.485953369329;
  BAS[ATNO][ 11].a[  6] =         0.034917622000;     BAS[ATNO][ 11].d[  6] =         1.085186724117;
  BAS[ATNO][ 11].a[  7] =         0.016320065700;     BAS[ATNO][ 11].d[  7] =        -0.473913535456;

-------------------------------------------
RADIAL EXPECTATION VALUES <R**-3> TO <R**3>
-------------------------------------------
   0 :     0.000000     0.457201     0.646921     1.759492     3.955223    13.651580
   1 :     0.000000     0.056620     0.223831     5.044852    28.670773   182.768470
   2 :     0.000000     0.022087     0.121014     9.811950   104.399356  1168.262307
   3 :     0.000000     0.068675     0.215433     6.318059    50.681110   487.611527
   4 :     0.000000     0.252711     0.427933     3.449979    18.010236   136.211099
   5 :     0.000000     2.091967     1.302617     0.949489     1.602990     7.631076
   6 :     0.000000    19.474171     3.541992     0.389072     0.298062     1.044603
   7 :     0.223182     0.337797     0.555956     1.974870     4.298320    10.338473
   8 :     0.223182     0.337797     0.555956     1.974870     4.298320    10.338473
   9 :     0.223182     0.337797     0.555956     1.974870     4.298320    10.338473
  10 :     0.007204     0.025136     0.139725     8.270745    75.927999   758.872943
  11 :     0.007204     0.025136     0.139725     8.270745    75.927999   758.872943
  12 :     0.007204     0.025136     0.139725     8.270745    75.927999   758.872943
  13 :     0.011950     0.034460     0.155923     8.350462    84.419383   966.107902
  14 :     0.011950     0.034460     0.155923     8.350462    84.419383   966.107902
  15 :     0.011950     0.034460     0.155923     8.350462    84.419383   966.107902
  16 :     0.066529     0.118888     0.289810     4.840192    32.209658   281.846146
  17 :     0.066529     0.118888     0.289810     4.840192    32.209658   281.846146
  18 :     0.066529     0.118888     0.289810     4.840192    32.209658   281.846146
  19 :     2.209042     1.192997     0.870672     2.277610    10.305005    76.836142
  20 :     2.209042     1.192997     0.870672     2.277610    10.305005    76.836142
  21 :     2.209042     1.192997     0.870672     2.277610    10.305005    76.836142
Making the total density                ... o.k.
o.k.
Initializing the integrals              ... done
Making exponents                        ... done
Making rho(0)                           ... done (         0.000021829)
Integral calculation                    ... Two index integrals                     ... done
Solving the equation system             ... done
atomic density will be written to file 56_Ba_atom56.adf

-------
TIMINGS
-------

Total SCF time: 0 days 0 hours 0 min 0 sec 

Total time                  ....       0.679 sec
Sum of individual times     ....       0.309 sec  ( 45.5%)

Fock matrix formation       ....       0.120 sec  ( 17.6%)
Diagonalization             ....       0.153 sec  ( 22.5%)
Density matrix formation    ....       0.000 sec  (  0.0%)
Population analysis         ....       0.000 sec  (  0.0%)
Initial guess               ....       0.000 sec  (  0.0%)
Orbital Transformation      ....       0.000 sec  (  0.0%)
Orbital Orthonormalization  ....       0.000 sec  (  0.0%)
DIIS solution               ....       0.035 sec  (  5.2%)

-------------------------   --------------------
FINAL SINGLE POINT ENERGY       -25.095220572246
-------------------------   --------------------


                            ***************************************
                            *     ORCA property calculations      *
                            ***************************************

                                    ---------------------
                                    Active property flags
                                    ---------------------
   (+) Dipole Moment


------------------------------------------------------------------------------
                       ORCA ELECTRIC PROPERTIES CALCULATION
------------------------------------------------------------------------------

Dipole Moment Calculation                       ... on
Quadrupole Moment Calculation                   ... off
Polarizability Calculation                      ... off
GBWName                                         ... 56_Ba_atom56.gbw
Electron density file                           ... 56_Ba_atom56.scfp
The origin for moment calculation is the CENTER OF MASS  = ( 0.000000,  0.000000  0.000000)

-------------
DIPOLE MOMENT
-------------
                                X             Y             Z
Electronic contribution:     -0.00000      -0.00000       0.00000
Nuclear contribution   :      0.00000       0.00000       0.00000
                        -----------------------------------------
Total Dipole Moment    :     -0.00000      -0.00000       0.00000
                        -----------------------------------------
Magnitude (a.u.)       :      0.00000
Magnitude (Debye)      :      0.00000



--------------------
Rotational spectrum 
--------------------
 
Rotational constants in cm-1:     0.000000     0.000000     0.000000 
Rotational constants in MHz :     0.000000     0.000000     0.000000 

 Dipole components along the rotational axes: 
x,y,z [a.u.] :    -0.000000    -0.000000     0.000000 
x,y,z [Debye]:    -0.000000    -0.000000     0.000000 

 

Timings for individual modules:

Sum of individual times         ...        0.920 sec (=   0.015 min)
GTO integral calculation        ...        0.218 sec (=   0.004 min)  23.7 %
SCF iterations                  ...        0.702 sec (=   0.012 min)  76.3 %
                             ****ORCA TERMINATED NORMALLY****
TOTAL RUN TIME: 0 days 0 hours 0 minutes 1 seconds 132 msec
