
                                 *****************
                                 * O   R   C   A *
                                 *****************

           --- An Ab Initio, DFT and Semiempirical electronic structure package ---

                  #######################################################
                  #                        -***-                        #
                  #          Department of theory and spectroscopy      #
                  #               Directorship: Frank Neese             #
                  #        Max Planck Institute fuer Kohlenforschung    #
                  #                Kaiser Wilhelm Platz 1               #
                  #                 D-45470 Muelheim/Ruhr               #
                  #                      Germany                        #
                  #                                                     #
                  #                  All rights reserved                #
                  #                        -***-                        #
                  #######################################################


                         Program Version 4.2.0 -  RELEASE  -


 With contributions from (in alphabetic order):
   Daniel Aravena         : Magnetic Suceptibility
   Michael Atanasov       : Ab Initio Ligand Field Theory (pilot matlab implementation)
   Alexander A. Auer      : GIAO ZORA, VPT2
   Ute Becker             : Parallelization
   Giovanni Bistoni       : ED, misc. LED, open-shell LED, HFLED
   Martin Brehm           : Molecular dynamics
   Dmytro Bykov           : SCF Hessian
   Vijay G. Chilkuri      : MRCI spin determinant printing, contributions to CSF-ICE
   Dipayan Datta          : RHF DLPNO-CCSD density
   Achintya Kumar Dutta   : EOM-CC, STEOM-CC
   Dmitry Ganyushin       : Spin-Orbit,Spin-Spin,Magnetic field MRCI
   Miquel Garcia          : C-PCM Hessian, Gaussian charge scheme
   Yang Guo               : DLPNO-NEVPT2, CIM, IAO-localization
   Andreas Hansen         : Spin unrestricted coupled pair/coupled cluster methods
   Benjamin Helmich-Paris : CASSCF linear response (MC-RPA)
   Lee Huntington         : MR-EOM, pCC
   Robert Izsak           : Overlap fitted RIJCOSX, COSX-SCS-MP3, EOM
   Christian Kollmar      : KDIIS, OOCD, Brueckner-CCSD(T), CCSD density
   Simone Kossmann        : Meta GGA functionals, TD-DFT gradient, OOMP2, MP2 Hessian
   Martin Krupicka        : AUTO-CI
   Lucas Lang             : DCDCAS
   Dagmar Lenk            : GEPOL surface, SMD
   Dimitrios Liakos       : Extrapolation schemes; Compound Job, initial MDCI parallelization
   Dimitrios Manganas     : Further ROCIS development; embedding schemes
   Dimitrios Pantazis     : SARC Basis sets
   Taras Petrenko         : DFT Hessian,TD-DFT gradient, ASA, ECA, R-Raman, ABS, FL, XAS/XES, NRVS
   Peter Pinski           : DLPNO-MP2, DLPNO-MP2 Gradient
   Christoph Reimann      : Effective Core Potentials
   Marius Retegan         : Local ZFS, SOC
   Christoph Riplinger    : Optimizer, TS searches, QM/MM, DLPNO-CCSD(T), (RO)-DLPNO pert. Triples
   Tobias Risthaus        : Range-separated hybrids, TD-DFT gradient, RPA, STAB
   Michael Roemelt        : Original ROCIS implementation
   Masaaki Saitow         : Open-shell DLPNO-CCSD energy and density
   Barbara Sandhoefer     : DKH picture change effects
   Avijit Sen             : IP-ROCIS
   Kantharuban Sivalingam : CASSCF convergence, NEVPT2, FIC-MRCI
   Bernardo de Souza      : ESD, SOC TD-DFT
   Georgi Stoychev        : AutoAux, RI-MP2 NMR
   Willem Van den Heuvel  : Paramagnetic NMR
   Boris Wezisla          : Elementary symmetry handling
   Frank Wennmohs         : Technical directorship


 We gratefully acknowledge several colleagues who have allowed us to
 interface, adapt or use parts of their codes:
   Stefan Grimme, W. Hujo, H. Kruse,             : VdW corrections, initial TS optimization,
                  C. Bannwarth                     DFT functionals, gCP, sTDA/sTD-DF
   Ed Valeev, F. Pavosevic, A. Kumar             : LibInt (2-el integral package), F12 methods
   Garnet Chan, S. Sharma, J. Yang, R. Olivares  : DMRG
   Ulf Ekstrom                                   : XCFun DFT Library
   Mihaly Kallay                                 : mrcc  (arbitrary order and MRCC methods)
   Andreas Klamt, Michael Diedenhofen            : otool_cosmo (COSMO solvation model)
   Jiri Pittner, Ondrej Demel                    : Mk-CCSD
   Frank Weinhold                                : gennbo (NPA and NBO analysis)
   Christopher J. Cramer and Donald G. Truhlar   : smd solvation model
   Lars Goerigk                                  : TD-DFT with DH, B97 family of functionals
   V. Asgeirsson, H. Jonsson                     : NEB implementation
   FAccTs GmbH                                   : IRC, NEB, NEB-TS, Multilevel, MM, QM/MM, CI optimization
   S Lehtola, MJT Oliveira, MAL Marques          : LibXC Library


 Your calculation uses the libint2 library for the computation of 2-el integrals
 For citations please refer to: http://libint.valeyev.net

 Your ORCA version has been built with support for libXC version: 4.2.3
 For citations please refer to: https://tddft.org/programs/libxc/

 This ORCA versions uses:
   CBLAS   interface :  Fast vector & matrix operations
   LAPACKE interface :  Fast linear algebra routines
   SCALAPACK package :  Parallel linear algebra routines


----- Orbital basis set information -----
Your calculation utilizes the basis: def2-QZVP
   F. Weigend and R. Ahlrichs, Phys. Chem. Chem. Phys. 7, 3297 (2005).

cite the ECPs for Ce [Def2-ECP] as follows:
Ce-Yb(ecp-28): M. Dolg, H. Stoll, H.Preuss, J. Chem. Phys., 1989, 90, 1730-1734.
Y-Cd(ecp-28), Hf-Hg(ecp-46): D. Andrae,U. Haeussermann, M. Dolg, H. Stoll, H. Preuss, Theor. Chim. Acta, 1990, 77, 123-141.
In-Sb(ecp-28), Tl-Bi(ecp-46): B. Metz, H. Stoll, M. Dolg, J. Chem. Phys., 2000, 113, 2563-2569.
Te-Xe(ecp-28), Po-Rn(ecp-46): K. A. Peterson, D. Figgen, E. Goll, H. Stoll, M. Dolg, J. Chem. Phys., 2003, 119, 11113-11123.
Rb(ecp-28), Cs(ecp-46): T. Leininger, A. Nicklass, W. Kuechle, H. Stoll, M. Dolg, A. Bergner, Chem. Phys. Lett., 1996, 255, 274-280.
Sr(ecp-28), Ba(ecp-46): M. Kaupp, P. V. Schleyer, H. Stoll and H. Preuss, J. Chem. Phys., 1991, 94, 1360-1366.
La(ecp-46): M. Dolg, H. Stoll, A. Savin, H. Preuss, Theor. Chim. Acta, 1989, 75, 173-194.
Lu(ecp-28): X. Cao, M. Dolg, J. Chem. Phys., 2001, 115, 7348-7355.

ECP parameters for Ce [Def2-ECP] have been obtained from:
TURBOMOLE (7.0.2)

================================================================================
                                        WARNINGS
                       Please study these warnings very carefully!
================================================================================


WARNING: your system is open-shell and RHF/RKS was chosen
  ===> : WILL SWITCH to UHF/UKS


WARNING: MDCI localization with Augmented Hessian Foster-Boys
  ===> : Switching off randomization!

WARNING: Post HF methods need fully converged wavefunctions
  ===> : Setting SCFConvForced true
         You can overwrite this default with %scf ConvForced false 


INFO   : the flag for use of LIBINT has been found!

================================================================================
                                       INPUT FILE
================================================================================
NAME = 58_Ce.in
|  1> #
|  2> # 58_Ce CCSD(T)/Def2-QZVP
|  3> #
|  4> ! CCSD(T) Def2-QZVP tightscf
|  5> 
|  6> *xyz 0 3
|  7>  Ce 0.0 0.0 0.0
|  8> *
|  9> 
| 10> %maxcore 5000 
| 11> 
| 12> %pal
| 13> nprocs 24
| 14> end
| 15> 
| 16> 
| 17>                          ****END OF INPUT****
================================================================================

                       ****************************
                       * Single Point Calculation *
                       ****************************

---------------------------------
CARTESIAN COORDINATES (ANGSTROEM)
---------------------------------
  Ce     0.000000    0.000000    0.000000

----------------------------
CARTESIAN COORDINATES (A.U.)
----------------------------
  NO LB      ZA    FRAG     MASS         X           Y           Z
   0 Ce   30.0000*   0   140.120    0.000000    0.000000    0.000000
* core charge reduced due to ECP

--------------------------------
INTERNAL COORDINATES (ANGSTROEM)
--------------------------------
 Ce     0   0   0     0.000000000000     0.00000000     0.00000000

---------------------------
INTERNAL COORDINATES (A.U.)
---------------------------
 Ce     0   0   0     0.000000000000     0.00000000     0.00000000

---------------------
BASIS SET INFORMATION
---------------------
There are 1 groups of distinct atoms

 Group   1 Type Ce  : 16s18p11d10f3g contracted to 11s9p6d5f2g pattern {61111111111/921111111/611111/61111/21}

Atom   0Ce   basis set group =>   1
-------------------------
ECP PARAMETER INFORMATION
-------------------------

 Group 1, Type Ce ECP Def2-ECP (replacing 28 core electrons, lmax=5)

Atom   0Ce   ECP group =>   1



           ************************************************************
           *        Program running with 24 parallel MPI-processes    *
           *              working on a common directory               *
           ************************************************************
------------------------------------------------------------------------------
                           ORCA GTO INTEGRAL CALCULATION
------------------------------------------------------------------------------

                         BASIS SET STATISTICS AND STARTUP INFO

 # of primitive gaussian shells          ...   58
 # of primitive gaussian functions       ...  222
 # of contracted shells                  ...   33
 # of contracted basis functions         ...  121
 Highest angular momentum                ...    4
 Maximum contraction depth               ...    9
 Integral package used                   ... LIBINT
 Integral threshhold            Thresh   ...  2.500e-11
 Primitive cut-off              TCut     ...  2.500e-12


------------------------------ INTEGRAL EVALUATION ----------------------------


 * One electron integrals 

   ECP integrals                         ... done
 Pre-screening matrix                    ... done
 Shell pair data                         ... done (   0.000 sec)



           ************************************************************
           *        Program running with 24 parallel MPI-processes    *
           *              working on a common directory               *
           ************************************************************
-------------------------------------------------------------------------------
                                 ORCA SCF
-------------------------------------------------------------------------------

------------
SCF SETTINGS
------------
Hamiltonian:
 Ab initio Hamiltonian  Method          .... Hartree-Fock(GTOs)


General Settings:
 Integral files         IntName         .... 58_Ce
 Hartree-Fock type      HFTyp           .... UHF
 Total Charge           Charge          ....    0
 Multiplicity           Mult            ....    3
 Number of Electrons    NEL             ....   30
 Basis Dimension        Dim             ....  121
 Nuclear Repulsion      ENuc            ....      0.0000000000 Eh

Convergence Acceleration:
 DIIS                   CNVDIIS         .... on
   Start iteration      DIISMaxIt       ....    12
   Startup error        DIISStart       ....  0.200000
   # of expansion vecs  DIISMaxEq       ....     5
   Bias factor          DIISBfac        ....   1.050
   Max. coefficient     DIISMaxC        ....  10.000
 Newton-Raphson         CNVNR           .... off
 SOSCF                  CNVSOSCF        .... off
 Level Shifting         CNVShift        .... on
   Level shift para.    LevelShift      ....    0.2500
   Turn off err/grad.   ShiftErr        ....    0.0010
 Zerner damping         CNVZerner       .... off
 Static damping         CNVDamp         .... on
   Fraction old density DampFac         ....    0.7000
   Max. Damping (<1)    DampMax         ....    0.9800
   Min. Damping (>=0)   DampMin         ....    0.0000
   Turn off err/grad.   DampErr         ....    0.1000
 Fernandez-Rico         CNVRico         .... off

SCF Procedure:
 Maximum # iterations   MaxIter         ....   125
 SCF integral mode      SCFMode         .... Direct
   Integral package                     .... LIBINT
 Reset frequency        DirectResetFreq ....    20
 Integral Threshold     Thresh          ....  2.500e-11 Eh
 Primitive CutOff       TCut            ....  2.500e-12 Eh

Convergence Tolerance:
 Convergence Check Mode ConvCheckMode   .... Total+1el-Energy
 Convergence forced     ConvForced      .... 1
 Energy Change          TolE            ....  1.000e-08 Eh
 1-El. energy change                    ....  1.000e-05 Eh
 DIIS Error             TolErr          ....  5.000e-07


Diagonalization of the overlap matrix:
Smallest eigenvalue                        ... 4.134e-04
Time for diagonalization                   ...    0.004 sec
Threshold for overlap eigenvalues          ... 1.000e-08
Number of eigenvalues below threshold      ... 0
Time for construction of square roots      ...    0.012 sec
Total time needed                          ...    0.016 sec

-------------------
DFT GRID GENERATION
-------------------

General Integration Accuracy     IntAcc      ...  4.340
Radial Grid Type                 RadialGrid  ... Gauss-Chebyshev
Angular Grid (max. acc.)         AngularGrid ... Lebedev-110
Angular grid pruning method      GridPruning ... 3 (G Style)
Weight generation scheme         WeightScheme... Becke
Basis function cutoff            BFCut       ...    1.0000e-11
Integration weight cutoff        WCut        ...    1.0000e-14
Grids for H and He will be reduced by one unit

# of grid points (after initial pruning)     ...   3552 (   0.0 sec)
# of grid points (after weights+screening)   ...   3552 (   0.0 sec)
Grid point division into batches done        ...    0.0 sec
Reduced shell lists constructed in    0.0 sec

Total number of grid points                  ...     3552
Total number of batches                      ...       56
Average number of points per batch           ...       63
Average number of grid points per atom       ...     3552
Average number of shells per batch           ...     6.25 (18.94%)
Average number of basis functions per batch  ...    19.25 (15.91%)
Average number of large shells per batch     ...     5.25 (84.00%)
Average number of large basis fcns per batch ...    15.75 (81.82%)
Maximum spatial batch extension              ...  24.96, 38.92, 38.92 au
Average spatial batch extension              ...   1.30,  1.85,  2.08 au

Time for grid setup =    0.063 sec

------------------------------
INITIAL GUESS: MODEL POTENTIAL
------------------------------
Loading Hartree-Fock densities                     ... done
  calling /sw/apps/orca/orca_4_2_0_linux_x86-64_openmpi314/orca 58_Ce_atom58.inp > 58_Ce_atom58.out in order to generate an atomic fitting density for atom 0 (Ce with ECP) on-the-fly... 
    atom 0 (Ce), assumed electronic state with S=3: 1s2 2s2 2p6 3s2 3p6 4s2 3d10 4p6 5s2 4d10 5p6 6s2 4f2           ... done
Calculating cut-offs                               ... done
Setting up the integral package                    ... done
Initializing the effective Hamiltonian             ... done
Starting the Coulomb interaction                   ... done (   0.0 sec)
Reading the grid                                   ... done
Mapping shells                                     ... done
Starting the XC term evaluation                    ... done (   0.0 sec)
Transforming the Hamiltonian                       ... done (   0.0 sec)
Diagonalizing the Hamiltonian                      ... done (   0.0 sec)
Back transforming the eigenvectors                 ... done (   0.0 sec)
Now organizing SCF variables                       ... done
                      ------------------
                      INITIAL GUESS DONE ( 216.3 sec)
                      ------------------
--------------
SCF ITERATIONS
--------------
ITER       Energy         Delta-E        Max-DP      RMS-DP      [F,P]     Damp
               ***  Starting incremental Fock matrix formation  ***
  0   -471.0868751091   0.000000000000 1.17773531  0.01727154  0.9632795 0.7000
  1   -472.2730951428  -1.186220033665 0.58822830  0.00736361  0.4192794 0.7000
                               ***Turning on DIIS***
  2   -472.4855026995  -0.212407556740 0.19281677  0.00271418  0.1773316 0.7000
  3   -468.1253117650   4.360190934508 0.28096840  0.00383682  0.2240875 0.7000
  4   -465.1533131855   2.971998579456 0.27884182  0.00387257  0.2773340 0.7000
  5   -463.3039272297   1.849385955798 0.25738348  0.00332277  0.3229530 0.7000
  6   -462.1537308152   1.150196414563 0.21634745  0.00266842  0.3538179 0.7000
  7   -462.3698924938  -0.216161678620 0.15698473  0.00201339  0.3731246 0.7000
  8   -465.6637477216  -3.293855227789 0.33522498  0.00309396  0.3723720 0.7000
  9   -467.0559578260  -1.392210104389 0.24151020  0.00254487  0.2263867 0.7000
 10   -469.7300914149  -2.674133588929 0.17111273  0.00194886  0.1106154 0.7000
 11   -471.7388405271  -2.008749112225 0.40227770  0.00506457  0.0421382 0.0000
 12   -477.2280165733  -5.489176046203 0.07958995  0.00103959  0.0992864 0.0000
 13   -476.6708490951   0.557167478270 0.06918886  0.00084376  0.0838976 0.0000
 14   -475.9776493365   0.693199758594 0.08326685  0.00098435  0.0709084 0.0000
 15   -474.8132931869   1.164356149604 0.13400751  0.00152766  0.0533979 0.0000
 16   -473.7790806104   1.034212576430 0.10918828  0.00119402  0.0218921 0.0000
 17   -473.4903635735   0.288717036926 0.02422173  0.00032924  0.0038279 0.0000
 18   -473.5020322503  -0.011668676759 0.01484078  0.00018148  0.0024115 0.0000
 19   -473.4983646741   0.003667576148 0.00907324  0.00013537  0.0016193 0.0000
               *** Restarting incremental Fock matrix formation ***
                                   *** Resetting DIIS ***
 20   -473.4747925793   0.023572094836 0.01092690  0.00008539  0.0015194 0.0000
 21   -473.4767855720  -0.001992992731 0.00948336  0.00007614  0.0014820 0.0000
 22   -473.4835072016  -0.006721629604 0.00983569  0.00008975  0.0014535 0.0000
 23   -473.4812043938   0.002302807828 0.00725770  0.00007839  0.0013503 0.0000
 24   -473.4796670723   0.001537321529 0.00466931  0.00005905  0.0012560 0.0000
 25   -473.4771004370   0.002566635253 0.00308230  0.00006638  0.0011467 0.0000
 26   -473.4754121429   0.001688294113 0.00278471  0.00005647  0.0010227 0.0000
 27   -473.4752709430   0.000141199853 0.00714969  0.00014742  0.0008832 0.0000
 28   -473.4767016162  -0.001430673149 0.00559252  0.00011378  0.0005028 0.0000
 29   -473.4762119741   0.000489642077 0.00108938  0.00001545  0.0003358 0.0000
 30   -473.4766639806  -0.000452006513 0.00177982  0.00003581  0.0002774 0.0000
 31   -473.4765816142   0.000082366401 0.00090680  0.00001846  0.0002540 0.0000
 32   -473.4757917436   0.000789870673 0.00050836  0.00001079  0.0002469 0.0000
 33   -473.4758955009  -0.000103757343 0.00031845  0.00000794  0.0002345 0.0000
 34   -473.4758730521   0.000022448765 0.00040375  0.00001100  0.0002267 0.0000
 35   -473.4757684105   0.000104641652 0.00067455  0.00001783  0.0002189 0.0000
 36   -473.4757460711   0.000022339341 0.00070672  0.00001975  0.0002440 0.0000
 37   -473.4757273467   0.000018724413 0.00051633  0.00001473  0.0002715 0.0000
 38   -473.4757478458  -0.000020499081 0.00045070  0.00001240  0.0002866 0.0000
 39   -473.4757458808   0.000001964990 0.00060234  0.00001621  0.0002938 0.0000
               *** Restarting incremental Fock matrix formation ***
                                   *** Resetting DIIS ***
 40   -473.4757578509  -0.000011970118 0.00013173  0.00000298  0.0002999 0.0000
 41   -473.4757670875  -0.000009236606 0.00014617  0.00000333  0.0002949 0.0000
 42   -473.4757690600  -0.000001972471 0.00022898  0.00000526  0.0002893 0.0000
 43   -473.4757994138  -0.000030353748 0.00054460  0.00001263  0.0002810 0.0000
 44   -473.4757947929   0.000004620831 0.00167165  0.00003934  0.0002615 0.0000
 45   -473.4757697584   0.000025034484 0.00197241  0.00004532  0.0002089 0.0000
 46   -473.4758037364  -0.000033977923 0.00068114  0.00001461  0.0002219 0.0000
 47   -473.4759448503  -0.000141113895 0.00099567  0.00002137  0.0002270 0.0000
 48   -473.4758197635   0.000125086787 0.00092729  0.00001904  0.0002273 0.0000
 49   -473.4760309615  -0.000211197998 0.00142612  0.00002916  0.0002288 0.0000
 50   -473.4759308872   0.000100074244 0.00163583  0.00003270  0.0002207 0.0000
 51   -473.4759062899   0.000024597346 0.00085452  0.00001655  0.0002137 0.0000
 52   -473.4759505039  -0.000044214065 0.00154322  0.00002964  0.0002084 0.0000
 53   -473.4758568983   0.000093605656 0.00061686  0.00001132  0.0001965 0.0000
 54   -473.4759951628  -0.000138264464 0.00120930  0.00002248  0.0001951 0.0000
 55   -473.4759466368   0.000048525969 0.00183012  0.00003340  0.0001819 0.0000
 56   -473.4759920008  -0.000045364002 0.00133492  0.00002391  0.0001663 0.0000
 57   -473.4760239267  -0.000031925873 0.00242834  0.00004299  0.0001541 0.0000
 58   -473.4758893497   0.000134576940 0.00029408  0.00000618  0.0001489 0.0000
 59   -473.4756896681   0.000199681591 0.00210046  0.00003678  0.0001416 0.0000
               *** Restarting incremental Fock matrix formation ***
                                   *** Resetting DIIS ***
 60   -473.4758927861  -0.000203118018 0.00008198  0.00000171  0.0001417 0.0000
 61   -473.4759200228  -0.000027236698 0.00008416  0.00000177  0.0001345 0.0000
 62   -473.4759709461  -0.000050923276 0.00018173  0.00000369  0.0001330 0.0000
 63   -473.4761279471  -0.000157000982 0.00059994  0.00001212  0.0001247 0.0000
 64   -473.4759911048   0.000136842265 0.00113764  0.00002272  0.0001177 0.0000
 65   -473.4759362279   0.000054876968 0.00051036  0.00000994  0.0001133 0.0000
 66   -473.4758880883   0.000048139581 0.00017879  0.00000345  0.0001091 0.0000
 67   -473.4759083606  -0.000020272303 0.00019610  0.00000386  0.0001069 0.0000
 68   -473.4758470337   0.000061326909 0.00040588  0.00000768  0.0001026 0.0000
 69   -473.4759098489  -0.000062815252 0.00053293  0.00000971  0.0000957 0.0000
 70   -473.4758846343   0.000025214681 0.00035004  0.00000604  0.0000859 0.0000
 71   -473.4759083023  -0.000023668025 0.00017303  0.00000274  0.0000815 0.0000
 72   -473.4759049283   0.000003373953 0.00019080  0.00000293  0.0000792 0.0000
 73   -473.4759226990  -0.000017770724 0.00034352  0.00000528  0.0000775 0.0000
 74   -473.4758977782   0.000024920854 0.00079134  0.00001211  0.0000735 0.0000
 75   -473.4759191054  -0.000021327201 0.00158736  0.00002404  0.0000735 0.0000
 76   -473.4758860946   0.000033010763 0.00122405  0.00001824  0.0000744 0.0000
 77   -473.4759419320  -0.000055837348 0.00123780  0.00001822  0.0000723 0.0000
 78   -473.4758843389   0.000057593039 0.00159682  0.00002316  0.0000664 0.0000
 79   -473.4759784899  -0.000094150982 0.00158876  0.00002281  0.0000550 0.0000
               *** Restarting incremental Fock matrix formation ***
                                   *** Resetting DIIS ***
 80   -473.4759146430   0.000063846899 0.00003481  0.00000055  0.0000367 0.0000
 81   -473.4759261286  -0.000011485578 0.00003451  0.00000057  0.0000357 0.0000
 82   -473.4759330282  -0.000006899617 0.00009902  0.00000171  0.0000335 0.0000
 83   -473.4759514679  -0.000018439706 0.00019574  0.00000359  0.0000282 0.0000
 84   -473.4759237684   0.000027699546 0.00008028  0.00000164  0.0000230 0.0000
 85   -473.4759187515   0.000005016856 0.00002821  0.00000060  0.0000216 0.0000
 86   -473.4759125385   0.000006213038 0.00003555  0.00000071  0.0000208 0.0000
 87   -473.4759172379  -0.000004699397 0.00005415  0.00000107  0.0000197 0.0000
 88   -473.4759070667   0.000010171173 0.00007895  0.00000155  0.0000194 0.0000
 89   -473.4759160364  -0.000008969728 0.00006580  0.00000131  0.0000197 0.0000
 90   -473.4759129232   0.000003113277 0.00004456  0.00000092  0.0000200 0.0000
 91   -473.4759158237  -0.000002900580 0.00003080  0.00000062  0.0000202 0.0000
 92   -473.4759146831   0.000001140588 0.00002327  0.00000046  0.0000204 0.0000
 93   -473.4759155337  -0.000000850595 0.00002020  0.00000039  0.0000205 0.0000
 94   -473.4759151079   0.000000425821 0.00001781  0.00000033  0.0000207 0.0000
 95   -473.4759152354  -0.000000127514 0.00001685  0.00000031  0.0000208 0.0000
 96   -473.4759152065   0.000000028952 0.00001634  0.00000030  0.0000209 0.0000
 97   -473.4759151765   0.000000029987 0.00001611  0.00000029  0.0000210 0.0000
 98   -473.4759152069  -0.000000030428 0.00001600  0.00000028  0.0000211 0.0000
 99   -473.4759151792   0.000000027736 0.00001584  0.00000028  0.0000211 0.0000
               *** Restarting incremental Fock matrix formation ***
                                   *** Resetting DIIS ***
                 **** Energy Check signals convergence ****

               *****************************************************
               *                     SUCCESS                       *
               *           SCF CONVERGED AFTER 100 CYCLES          *
               *****************************************************


----------------
TOTAL SCF ENERGY
----------------

Total Energy       :         -473.47591519 Eh          -12883.93466 eV

Components:
Nuclear Repulsion  :            0.00000000 Eh               0.00000 eV
Electronic Energy  :         -473.47591519 Eh          -12883.93466 eV
One Electron Energy:         -815.49361309 Eh          -22190.70937 eV
Two Electron Energy:          342.01769790 Eh            9306.77471 eV

Virial components:
Potential Energy   :         -664.11158920 Eh          -18071.39507 eV
Kinetic Energy     :          190.63567401 Eh            5187.46042 eV
Virial Ratio       :            3.48366901


---------------
SCF CONVERGENCE
---------------

  Last Energy change         ...   -6.4827e-09  Tolerance :   1.0000e-08
  Last MAX-Density change    ...    1.0228e-05  Tolerance :   1.0000e-07
  Last RMS-Density change    ...    1.7700e-07  Tolerance :   5.0000e-09
  Last DIIS Error            ...    2.1218e-05  Tolerance :   5.0000e-07

             **** THE GBW FILE WAS UPDATED (58_Ce.gbw) ****
             **** DENSITY FILE WAS UPDATED (58_Ce.scfp) ****
             **** ENERGY FILE WAS UPDATED (58_Ce.en.tmp) ****
----------------------
UHF SPIN CONTAMINATION
----------------------

Expectation value of <S**2>     :     2.003097
Ideal value S*(S+1) for S=1.0   :     2.000000
Deviation                       :     0.003097

             **** THE GBW FILE WAS UPDATED (58_Ce.gbw) ****
             **** DENSITY FILE WAS UPDATED (58_Ce.scfp) ****
----------------
ORBITAL ENERGIES
----------------
                 SPIN UP ORBITALS
  NO   OCC          E(Eh)            E(eV) 
   0   1.0000     -11.987585      -326.1988 
   1   1.0000      -8.766844      -238.5579 
   2   1.0000      -8.761947      -238.4247 
   3   1.0000      -8.752211      -238.1598 
   4   1.0000      -4.612022      -125.4995 
   5   1.0000      -4.611510      -125.4856 
   6   1.0000      -4.597466      -125.1034 
   7   1.0000      -4.575836      -124.5148 
   8   1.0000      -4.522380      -123.0602 
   9   1.0000      -1.787639       -48.6441 
  10   1.0000      -0.986568       -26.8459 
  11   1.0000      -0.981881       -26.7183 
  12   1.0000      -0.972560       -26.4647 
  13   1.0000      -0.327678        -8.9166 
  14   1.0000      -0.326351        -8.8805 
  15   1.0000      -0.171635        -4.6704 
  16   0.0000       0.025308         0.6887 
  17   0.0000       0.026145         0.7114 
  18   0.0000       0.027596         0.7509 
  19   0.0000       0.053928         1.4675 
  20   0.0000       0.075624         2.0578 
  21   0.0000       0.076560         2.0833 
  22   0.0000       0.078163         2.1269 
  23   0.0000       0.078570         2.1380 
  24   0.0000       0.079555         2.1648 
  25   0.0000       0.198423         5.3994 
  26   0.0000       0.199686         5.4337 
  27   0.0000       0.202005         5.4968 
  28   0.0000       0.298616         8.1258 
  29   0.0000       0.350509         9.5378 
  30   0.0000       0.351677         9.5696 
  31   0.0000       0.353497         9.6191 
  32   0.0000       0.354000         9.6328 
  33   0.0000       0.354712         9.6522 
  34   0.0000       0.359030         9.7697 
  35   0.0000       0.362484         9.8637 
  36   0.0000       0.370563        10.0835 
  37   0.0000       0.378986        10.3127 
  38   0.0000       0.380286        10.3481 
  39   0.0000       0.450272        12.2525 
  40   0.0000       0.450395        12.2559 
  41   0.0000       0.545776        14.8513 
  42   0.0000       0.550935        14.9917 
  43   0.0000       0.564533        15.3617 
  44   0.0000       0.581775        15.8309 
  45   0.0000       0.584759        15.9121 
  46   0.0000       0.858650        23.3651 
  47   0.0000       0.861721        23.4486 
  48   0.0000       0.867624        23.6092 
  49   0.0000       1.285527        34.9810 
  50   0.0000       1.285845        34.9896 
  51   0.0000       1.353167        36.8215 
  52   0.0000       1.355450        36.8837 
  53   0.0000       1.364399        37.1272 
  54   0.0000       1.373947        37.3870 
  55   0.0000       1.375665        37.4337 
  56   0.0000       1.480440        40.2848 
  57   0.0000       1.483568        40.3699 
  58   0.0000       1.485137        40.4126 
  59   0.0000       1.486406        40.4472 
  60   0.0000       1.487566        40.4787 
  61   0.0000       1.517953        41.3056 
  62   0.0000       1.518693        41.3257 
  63   0.0000       1.520053        41.3628 
  64   0.0000       1.521058        41.3901 
  65   0.0000       1.523049        41.4443 
  66   0.0000       1.523065        41.4447 
  67   0.0000       1.523805        41.4648 
  68   0.0000       1.525817        41.5196 
  69   0.0000       1.530710        41.6527 
  70   0.0000       1.567182        42.6452 
  71   0.0000       3.081909        83.8630 
  72   0.0000       3.089305        84.0643 
  73   0.0000       3.103792        84.4585 
  74   0.0000       3.195127        86.9438 
  75   0.0000       3.196000        86.9676 
  76   0.0000       3.246553        88.3432 
  77   0.0000       3.248927        88.4078 
  78   0.0000       3.261533        88.7508 
  79   0.0000       3.273670        89.0811 
  80   0.0000       3.276003        89.1446 
  81   0.0000       5.419083       147.4607 
  82   0.0000       5.419967       147.4848 
  83   0.0000       5.431257       147.7920 
  84   0.0000       5.437368       147.9583 
  85   0.0000       5.439962       148.0289 
  86   0.0000       5.694818       154.9639 
  87   0.0000       5.698192       155.0557 
  88   0.0000       5.706925       155.2933 
  89   0.0000       5.726505       155.8261 
  90   0.0000       5.743476       156.2879 
  91   0.0000       5.746001       156.3566 
  92   0.0000       5.757565       156.6713 
  93   0.0000       5.765282       156.8813 
  94   0.0000       5.792461       157.6209 
  95   0.0000       7.286940       198.2877 
  96   0.0000       7.574817       206.1212 
  97   0.0000       7.576562       206.1687 
  98   0.0000       7.608881       207.0482 
  99   0.0000       7.611597       207.1221 
 100   0.0000       7.629759       207.6163 
 101   0.0000       7.646444       208.0703 
 102   0.0000       7.649723       208.1595 
 103   0.0000      10.953691       298.0651 
 104   0.0000      10.967723       298.4469 
 105   0.0000      10.995267       299.1964 
 106   0.0000      17.012341       462.9293 
 107   0.0000      17.015736       463.0217 
 108   0.0000      17.035383       463.5563 
 109   0.0000      17.044893       463.8151 
 110   0.0000      17.048795       463.9213 
 111   0.0000      55.210913      1502.3653 
 112   0.0000      55.939486      1522.1908 
 113   0.0000      55.952742      1522.5515 
 114   0.0000      55.978608      1523.2554 
 115   0.0000     127.188970      3460.9878 
 116   0.0000     127.201072      3461.3171 
 117   0.0000     127.224709      3461.9603 
 118   0.0000     127.437889      3467.7613 
 119   0.0000     219.081885      5961.5212 
 120   0.0000     457.186163     12440.6680 

                 SPIN DOWN ORBITALS
  NO   OCC          E(Eh)            E(eV) 
   0   1.0000     -11.888052      -323.4903 
   1   1.0000      -8.685798      -236.3526 
   2   1.0000      -8.656052      -235.5432 
   3   1.0000      -8.598464      -233.9761 
   4   1.0000      -4.479728      -121.8996 
   5   1.0000      -4.454944      -121.2252 
   6   1.0000      -4.418926      -120.2451 
   7   1.0000      -4.404643      -119.8564 
   8   1.0000      -4.400089      -119.7325 
   9   1.0000      -1.737983       -47.2929 
  10   1.0000      -0.960260       -26.1300 
  11   1.0000      -0.945361       -25.7246 
  12   1.0000      -0.917148       -24.9569 
  13   1.0000      -0.168656        -4.5893 
  14   0.0000       0.026280         0.7151 
  15   0.0000       0.026757         0.7281 
  16   0.0000       0.027776         0.7558 
  17   0.0000       0.054743         1.4896 
  18   0.0000       0.081714         2.2235 
  19   0.0000       0.084672         2.3040 
  20   0.0000       0.088347         2.4040 
  21   0.0000       0.089719         2.4414 
  22   0.0000       0.090206         2.4546 
  23   0.0000       0.201334         5.4786 
  24   0.0000       0.202789         5.5182 
  25   0.0000       0.205667         5.5965 
  26   0.0000       0.302488         8.2311 
  27   0.0000       0.357964         9.7407 
  28   0.0000       0.362109         9.8535 
  29   0.0000       0.368004        10.0139 
  30   0.0000       0.370381        10.0786 
  31   0.0000       0.371230        10.1017 
  32   0.0000       0.376427        10.2431 
  33   0.0000       0.376676        10.2499 
  34   0.0000       0.382483        10.4079 
  35   0.0000       0.385738        10.4965 
  36   0.0000       0.387243        10.5374 
  37   0.0000       0.391537        10.6543 
  38   0.0000       0.391962        10.6658 
  39   0.0000       0.578121        15.7315 
  40   0.0000       0.578674        15.7465 
  41   0.0000       0.592658        16.1270 
  42   0.0000       0.601309        16.3625 
  43   0.0000       0.605611        16.4795 
  44   0.0000       0.619992        16.8709 
  45   0.0000       0.621394        16.9090 
  46   0.0000       0.866512        23.5790 
  47   0.0000       0.871687        23.7198 
  48   0.0000       0.881907        23.9979 
  49   0.0000       1.368077        37.2273 
  50   0.0000       1.368437        37.2371 
  51   0.0000       1.377068        37.4719 
  52   0.0000       1.382302        37.6144 
  53   0.0000       1.384927        37.6858 
  54   0.0000       1.393116        37.9086 
  55   0.0000       1.393939        37.9310 
  56   0.0000       1.493661        40.6446 
  57   0.0000       1.501893        40.8686 
  58   0.0000       1.513337        41.1800 
  59   0.0000       1.518516        41.3209 
  60   0.0000       1.519458        41.3465 
  61   0.0000       1.526776        41.5457 
  62   0.0000       1.526800        41.5463 
  63   0.0000       1.530810        41.6555 
  64   0.0000       1.531830        41.6832 
  65   0.0000       1.534012        41.7426 
  66   0.0000       1.537117        41.8271 
  67   0.0000       1.537379        41.8342 
  68   0.0000       1.538439        41.8630 
  69   0.0000       1.539394        41.8890 
  70   0.0000       1.584554        43.1179 
  71   0.0000       3.098304        84.3091 
  72   0.0000       3.110719        84.6470 
  73   0.0000       3.134724        85.3002 
  74   0.0000       3.265299        88.8533 
  75   0.0000       3.265785        88.8665 
  76   0.0000       3.278666        89.2170 
  77   0.0000       3.286330        89.4256 
  78   0.0000       3.290247        89.5322 
  79   0.0000       3.301998        89.8519 
  80   0.0000       3.303194        89.8845 
  81   0.0000       5.435228       147.9001 
  82   0.0000       5.450259       148.3091 
  83   0.0000       5.471611       148.8901 
  84   0.0000       5.480674       149.1367 
  85   0.0000       5.483288       149.2078 
  86   0.0000       5.784841       157.4135 
  87   0.0000       5.784870       157.4143 
  88   0.0000       5.801313       157.8618 
  89   0.0000       5.808978       158.0703 
  90   0.0000       5.818736       158.3359 
  91   0.0000       5.835345       158.7878 
  92   0.0000       5.835980       158.8051 
  93   0.0000       5.839187       158.8923 
  94   0.0000       5.844076       159.0254 
  95   0.0000       7.319283       199.1678 
  96   0.0000       7.632488       207.6906 
  97   0.0000       7.633208       207.7102 
  98   0.0000       7.651464       208.2069 
  99   0.0000       7.662207       208.4993 
 100   0.0000       7.667704       208.6488 
 101   0.0000       7.684700       209.1113 
 102   0.0000       7.686358       209.1564 
 103   0.0000      10.979112       298.7568 
 104   0.0000      11.000063       299.3269 
 105   0.0000      11.041149       300.4450 
 106   0.0000      17.029225       463.3888 
 107   0.0000      17.048393       463.9104 
 108   0.0000      17.077659       464.7067 
 109   0.0000      17.089309       465.0238 
 110   0.0000      17.093023       465.1248 
 111   0.0000      55.237947      1503.1010 
 112   0.0000      55.956033      1522.6411 
 113   0.0000      55.973758      1523.1234 
 114   0.0000      56.008278      1524.0627 
 115   0.0000     127.195577      3461.1676 
 116   0.0000     127.209335      3461.5420 
 117   0.0000     127.236185      3462.2726 
 118   0.0000     127.439128      3467.7950 
 119   0.0000     219.088883      5961.7116 
 120   0.0000     457.188431     12440.7297 

                    ********************************
                    * MULLIKEN POPULATION ANALYSIS *
                    ********************************

--------------------------------------------
MULLIKEN ATOMIC CHARGES AND SPIN POPULATIONS
--------------------------------------------
   0 Ce:   -0.000000    2.000000
Sum of atomic charges         :   -0.0000000
Sum of atomic spin populations:    2.0000000

-----------------------------------------------------
MULLIKEN REDUCED ORBITAL CHARGES AND SPIN POPULATIONS
-----------------------------------------------------
CHARGE
  0 Ces       :     5.999196  s :     5.999196
      pz      :     3.999730  p :    11.999380
      px      :     3.999824
      py      :     3.999827
      dz2     :     2.000157  d :    10.000252
      dxz     :     2.000099
      dyz     :     2.000095
      dx2y2   :     1.999851
      dxy     :     2.000051
      f0      :     0.001380  f :     2.000620
      f+1     :     0.226987
      f-1     :     0.230299
      f+2     :     0.802571
      f-2     :     0.014388
      f+3     :     0.358031
      f-3     :     0.366964
      g0      :     0.000023  g :     0.000552
      g+1     :     0.000018
      g-1     :     0.000017
      g+2     :     0.000107
      g-2     :     0.000057
      g+3     :     0.000094
      g-3     :     0.000094
      g+4     :     0.000087
      g-4     :     0.000054

SPIN
  0 Ces       :    -0.000184  s :    -0.000184
      pz      :     0.000210  p :     0.000389
      px      :     0.000091
      py      :     0.000089
      dz2     :     0.000007  d :    -0.000267
      dxz     :    -0.000034
      dyz     :    -0.000034
      dx2y2   :    -0.000141
      dxy     :    -0.000064
      f0      :     0.001142  f :     1.999611
      f+1     :     0.226790
      f-1     :     0.230114
      f+2     :     0.802464
      f-2     :     0.014300
      f+3     :     0.357931
      f-3     :     0.366868
      g0      :     0.000002  g :     0.000450
      g+1     :     0.000006
      g-1     :     0.000006
      g+2     :     0.000095
      g-2     :     0.000042
      g+3     :     0.000087
      g-3     :     0.000088
      g+4     :     0.000073
      g-4     :     0.000051


                     *******************************
                     * LOEWDIN POPULATION ANALYSIS *
                     *******************************

-------------------------------------------
LOEWDIN ATOMIC CHARGES AND SPIN POPULATIONS
-------------------------------------------
   0 Ce:   -0.000000    2.000000

----------------------------------------------------
LOEWDIN REDUCED ORBITAL CHARGES AND SPIN POPULATIONS
----------------------------------------------------
CHARGE
  0 Ces       :     5.999196  s :     5.999196
      pz      :     3.999730  p :    11.999380
      px      :     3.999824
      py      :     3.999827
      dz2     :     2.000157  d :    10.000252
      dxz     :     2.000099
      dyz     :     2.000095
      dx2y2   :     1.999851
      dxy     :     2.000051
      f0      :     0.001380  f :     2.000620
      f+1     :     0.226987
      f-1     :     0.230299
      f+2     :     0.802571
      f-2     :     0.014388
      f+3     :     0.358031
      f-3     :     0.366964
      g0      :     0.000023  g :     0.000552
      g+1     :     0.000018
      g-1     :     0.000017
      g+2     :     0.000107
      g-2     :     0.000057
      g+3     :     0.000094
      g-3     :     0.000094
      g+4     :     0.000087
      g-4     :     0.000054

SPIN
  0 Ces       :    -0.000184  s :    -0.000184
      pz      :     0.000210  p :     0.000389
      px      :     0.000091
      py      :     0.000089
      dz2     :     0.000007  d :    -0.000267
      dxz     :    -0.000034
      dyz     :    -0.000034
      dx2y2   :    -0.000141
      dxy     :    -0.000064
      f0      :     0.001142  f :     1.999611
      f+1     :     0.226790
      f-1     :     0.230114
      f+2     :     0.802464
      f-2     :     0.014300
      f+3     :     0.357931
      f-3     :     0.366868
      g0      :     0.000002  g :     0.000450
      g+1     :     0.000006
      g-1     :     0.000006
      g+2     :     0.000095
      g-2     :     0.000042
      g+3     :     0.000087
      g-3     :     0.000088
      g+4     :     0.000073
      g-4     :     0.000051


                      *****************************
                      * MAYER POPULATION ANALYSIS *
                      *****************************

  NA   - Mulliken gross atomic population
  ZA   - Total nuclear charge
  QA   - Mulliken gross atomic charge
  VA   - Mayer's total valence
  BVA  - Mayer's bonded valence
  FA   - Mayer's free valence

  ATOM       NA         ZA         QA         VA         BVA        FA
  0 Ce    30.0000    30.0000    -0.0000     2.0062     0.0000     2.0062

  Mayer bond orders larger than 0.100000


-------
TIMINGS
-------

Total SCF time: 0 days 0 hours 4 min 26 sec 

Total time                  ....     266.760 sec
Sum of individual times     ....     264.782 sec  ( 99.3%)

Fock matrix formation       ....      45.176 sec  ( 16.9%)
Diagonalization             ....       1.051 sec  (  0.4%)
Density matrix formation    ....       0.101 sec  (  0.0%)
Population analysis         ....       0.097 sec  (  0.0%)
Initial guess               ....     216.264 sec  ( 81.1%)
Orbital Transformation      ....       0.000 sec  (  0.0%)
Orbital Orthonormalization  ....       0.000 sec  (  0.0%)
DIIS solution               ....       2.030 sec  (  0.8%)


           ************************************************************
           *        Program running with 24 parallel MPI-processes    *
           *              working on a common directory               *
           ************************************************************


------------------------------------------------------------------------------- 
                              ORCA-MATRIX DRIVEN CI                            
------------------------------------------------------------------------------- 

--------------------------------
AUTOMATIC CHOICE OF INCORE LEVEL
--------------------------------

Memory available                           ...   2500.00 MB
Memory needed for S+T                      ...     19.68 MB
Memory needed for J+K                      ...     39.49 MB
Memory needed for DIIS                     ...    275.56 MB
Memory needed for 3-ext                    ...    105.98 MB
Memory needed for 4-ext                    ...    468.09 MB
Memory needed for triples                  ...     44.16 MB
 -> Final InCoreLevel    ... 5
 -> check shows that triples correction can be computed


Wavefunction type
-----------------
Correlation treatment                      ...      CCSD     
Single excitations                         ... ON
Orbital optimization                       ... OFF
Calculation of Z vector                    ... OFF
Calculation of Brueckner orbitals          ... OFF
Perturbative triple excitations            ... ON
Calculation of F12 correction              ... OFF
Frozen core treatment                      ... chemical core (8 el)
Reference Wavefunction                     ... UHF
  Alpha-MOs occ    :     4 ...   15 ( 12 MO's/ 12 electrons)
  Beta-MOs occ     :     4 ...   13 ( 10 MO's/ 10 electrons)
  Alpha-MOs virt   :    16 ...  120 (105 MO's              )
  Beta-MOs virt    :    14 ...  120 (107 MO's              )
Number of AO's                             ...    121
Number of electrons                        ...     30
Number of correlated electrons             ...     22

Algorithmic settings
--------------------
Integral transformation                    ... AO direct full transformation
K(C) Formation                             ... FULL-MO TRAFO
Maximum number of iterations               ...        50
Convergence tolerance (max. residuum)      ... 1.000e-05
Level shift for amplitude update           ... 2.000e-01
Maximum number of DIIS vectors             ...         7
DIIS turned on at iteration                ...         0
Damping before turning on DIIS             ...     0.500
Damping after turning on DIIS              ...     0.000
Pair specific amplitude update             ... OFF
Natural orbital iterations                 ... OFF
Perturbative natural orbital generation    ... OFF
Printlevel                                 ... 2

Memory handling:
----------------
Maximum memory for working arrays          ...   2500 MB
Data storage in matrix containers          ... UNCOMPRESSED
Data type for integral storage             ... DOUBLE
In-Core Storage of quantities:
   Amplitudes+Sigma Vector      ... YES
   J+K operators                ... YES
   DIIS vectors                 ... YES
   3-external integrals         ... YES
   4-external integrals         ... YES


Initializing the integral package          ... done
Warning: reference  - re-canonicalizations have been set to INT 1 VIRT 1

--------------------------
UNRESTRICTED FOCK OPERATOR
--------------------------

<ss|ss>:         2211 b            0 skpd (  0.0%)    0.000 s ( 0.000 ms/b)
<ss|sp>:         6534 b            0 skpd (  0.0%)    0.001 s ( 0.000 ms/b)
<ss|sd>:         4356 b            0 skpd (  0.0%)    0.001 s ( 0.000 ms/b)
<ss|sf>:         3630 b            9 skpd (  0.2%)    0.001 s ( 0.000 ms/b)
<ss|sg>:         1452 b            7 skpd (  0.5%)    0.000 s ( 0.000 ms/b)
<ss|pp>:         2970 b            0 skpd (  0.0%)    0.001 s ( 0.000 ms/b)
<ss|pd>:         3564 b            0 skpd (  0.0%)    0.001 s ( 0.000 ms/b)
<ss|pf>:         2970 b            0 skpd (  0.0%)    0.002 s ( 0.001 ms/b)
<ss|pg>:         1188 b            0 skpd (  0.0%)    0.001 s ( 0.001 ms/b)
<ss|dd>:         1386 b            0 skpd (  0.0%)    0.001 s ( 0.001 ms/b)
<ss|df>:         1980 b            0 skpd (  0.0%)    0.002 s ( 0.001 ms/b)
<ss|dg>:          792 b            0 skpd (  0.0%)    0.001 s ( 0.001 ms/b)
<ss|ff>:          990 b            0 skpd (  0.0%)    0.002 s ( 0.003 ms/b)
<ss|fg>:          660 b            0 skpd (  0.0%)    0.001 s ( 0.002 ms/b)
<ss|gg>:          198 b            0 skpd (  0.0%)    0.001 s ( 0.004 ms/b)
<sp|sp>:         4950 b            2 skpd (  0.0%)    0.001 s ( 0.000 ms/b)
<sp|sd>:         6534 b           39 skpd (  0.6%)    0.002 s ( 0.000 ms/b)
<sp|sf>:         5445 b           92 skpd (  1.7%)    0.002 s ( 0.000 ms/b)
<sp|sg>:         2178 b           75 skpd (  3.4%)    0.001 s ( 0.000 ms/b)
<sp|pp>:         4455 b            0 skpd (  0.0%)    0.004 s ( 0.001 ms/b)
<sp|pd>:         5346 b            4 skpd (  0.1%)    0.004 s ( 0.001 ms/b)
<sp|pf>:         4455 b            4 skpd (  0.1%)    0.007 s ( 0.002 ms/b)
<sp|pg>:         1782 b            3 skpd (  0.2%)    0.003 s ( 0.002 ms/b)
<sp|dd>:         2079 b            0 skpd (  0.0%)    0.004 s ( 0.002 ms/b)
<sp|df>:         2970 b            4 skpd (  0.1%)    0.007 s ( 0.002 ms/b)
<sp|dg>:         1188 b            1 skpd (  0.1%)    0.004 s ( 0.003 ms/b)
<sp|ff>:         1485 b            0 skpd (  0.0%)    0.010 s ( 0.007 ms/b)
<sp|fg>:          990 b            1 skpd (  0.1%)    0.005 s ( 0.005 ms/b)
<sp|gg>:          297 b            0 skpd (  0.0%)    0.003 s ( 0.011 ms/b)
<sd|sd>:         2211 b           19 skpd (  0.9%)    0.001 s ( 0.000 ms/b)
<sd|sf>:         3630 b          101 skpd (  2.8%)    0.003 s ( 0.001 ms/b)
<sd|sg>:         1452 b           60 skpd (  4.1%)    0.001 s ( 0.001 ms/b)
<sd|pp>:         2970 b            3 skpd (  0.1%)    0.004 s ( 0.001 ms/b)
<sd|pd>:         3564 b           33 skpd (  0.9%)    0.005 s ( 0.002 ms/b)
<sd|pf>:         2970 b           34 skpd (  1.1%)    0.009 s ( 0.003 ms/b)
<sd|pg>:         1188 b           40 skpd (  3.4%)    0.004 s ( 0.004 ms/b)
<sd|dd>:         1386 b            1 skpd (  0.1%)    0.006 s ( 0.004 ms/b)
<sd|df>:         1980 b           13 skpd (  0.7%)    0.011 s ( 0.006 ms/b)
<sd|dg>:          792 b            4 skpd (  0.5%)    0.006 s ( 0.007 ms/b)
<sd|ff>:          990 b            0 skpd (  0.0%)    0.019 s ( 0.019 ms/b)
<sd|fg>:          660 b           17 skpd (  2.6%)    0.009 s ( 0.014 ms/b)
<sd|gg>:          198 b            2 skpd (  1.0%)    0.006 s ( 0.029 ms/b)
<sf|sf>:         1540 b           38 skpd (  2.5%)    0.003 s ( 0.002 ms/b)
<sf|sg>:         1210 b           95 skpd (  7.9%)    0.002 s ( 0.001 ms/b)
<sf|pp>:         2475 b           15 skpd (  0.6%)    0.008 s ( 0.003 ms/b)
<sf|pd>:         2970 b           86 skpd (  2.9%)    0.010 s ( 0.004 ms/b)
<sf|pf>:         2475 b           14 skpd (  0.6%)    0.018 s ( 0.007 ms/b)
<sf|pg>:          990 b           48 skpd (  4.8%)    0.010 s ( 0.010 ms/b)
<sf|dd>:         1155 b           16 skpd (  1.4%)    0.012 s ( 0.011 ms/b)
<sf|df>:         1650 b            3 skpd (  0.2%)    0.024 s ( 0.015 ms/b)
<sf|dg>:          660 b           23 skpd (  3.5%)    0.013 s ( 0.020 ms/b)
<sf|ff>:          825 b            0 skpd (  0.0%)    0.041 s ( 0.050 ms/b)
<sf|fg>:          550 b            0 skpd (  0.0%)    0.021 s ( 0.038 ms/b)
<sf|gg>:          165 b            5 skpd (  3.0%)    0.012 s ( 0.072 ms/b)
<sg|sg>:          253 b           25 skpd (  9.9%)    0.000 s ( 0.001 ms/b)
<sg|pp>:          990 b           12 skpd (  1.2%)    0.005 s ( 0.005 ms/b)
<sg|pd>:         1188 b           67 skpd (  5.6%)    0.006 s ( 0.006 ms/b)
<sg|pf>:          990 b           61 skpd (  6.2%)    0.011 s ( 0.011 ms/b)
<sg|pg>:          396 b           35 skpd (  8.8%)    0.006 s ( 0.016 ms/b)
<sg|dd>:          462 b           12 skpd (  2.6%)    0.007 s ( 0.016 ms/b)
<sg|df>:          660 b           34 skpd (  5.2%)    0.015 s ( 0.024 ms/b)
<sg|dg>:          264 b           11 skpd (  4.2%)    0.008 s ( 0.033 ms/b)
<sg|ff>:          330 b            0 skpd (  0.0%)    0.025 s ( 0.076 ms/b)
<sg|fg>:          220 b           13 skpd (  5.9%)    0.012 s ( 0.057 ms/b)
<sg|gg>:           66 b            3 skpd (  4.5%)    0.006 s ( 0.101 ms/b)
<pp|pp>:         1035 b            0 skpd (  0.0%)    0.005 s ( 0.005 ms/b)
<pp|pd>:         2430 b            0 skpd (  0.0%)    0.007 s ( 0.003 ms/b)
<pp|pf>:         2025 b            0 skpd (  0.0%)    0.011 s ( 0.006 ms/b)
<pp|pg>:          810 b            0 skpd (  0.0%)    0.006 s ( 0.007 ms/b)
<pp|dd>:          945 b            0 skpd (  0.0%)    0.007 s ( 0.008 ms/b)
<pp|df>:         1350 b            0 skpd (  0.0%)    0.014 s ( 0.011 ms/b)
<pp|dg>:          540 b            0 skpd (  0.0%)    0.007 s ( 0.014 ms/b)
<pp|ff>:          675 b            0 skpd (  0.0%)    0.022 s ( 0.033 ms/b)
<pp|fg>:          450 b            0 skpd (  0.0%)    0.012 s ( 0.026 ms/b)
<pp|gg>:          135 b            0 skpd (  0.0%)    0.007 s ( 0.050 ms/b)
<pd|pd>:         1485 b            0 skpd (  0.0%)    0.013 s ( 0.009 ms/b)
<pd|pf>:         2430 b            0 skpd (  0.0%)    0.024 s ( 0.010 ms/b)
<pd|pg>:          972 b            0 skpd (  0.0%)    0.013 s ( 0.014 ms/b)
<pd|dd>:         1134 b            0 skpd (  0.0%)    0.016 s ( 0.014 ms/b)
<pd|df>:         1620 b            0 skpd (  0.0%)    0.032 s ( 0.020 ms/b)
<pd|dg>:          648 b            0 skpd (  0.0%)    0.017 s ( 0.027 ms/b)
<pd|ff>:          810 b            0 skpd (  0.0%)    0.053 s ( 0.065 ms/b)
<pd|fg>:          540 b            0 skpd (  0.0%)    0.028 s ( 0.052 ms/b)
<pd|gg>:          162 b            0 skpd (  0.0%)    0.016 s ( 0.100 ms/b)
<pf|pf>:         1035 b            0 skpd (  0.0%)    0.039 s ( 0.038 ms/b)
<pf|pg>:          810 b            0 skpd (  0.0%)    0.025 s ( 0.031 ms/b)
<pf|dd>:          945 b            0 skpd (  0.0%)    0.029 s ( 0.031 ms/b)
<pf|df>:         1350 b            0 skpd (  0.0%)    0.059 s ( 0.043 ms/b)
<pf|dg>:          540 b            0 skpd (  0.0%)    0.032 s ( 0.060 ms/b)
<pf|ff>:          675 b            0 skpd (  0.0%)    0.097 s ( 0.144 ms/b)
<pf|fg>:          450 b            0 skpd (  0.0%)    0.053 s ( 0.117 ms/b)
<pf|gg>:          135 b            0 skpd (  0.0%)    0.028 s ( 0.210 ms/b)
<pg|pg>:          171 b            0 skpd (  0.0%)    0.012 s ( 0.068 ms/b)
<pg|dd>:          378 b            0 skpd (  0.0%)    0.018 s ( 0.047 ms/b)
<pg|df>:          540 b            0 skpd (  0.0%)    0.035 s ( 0.064 ms/b)
<pg|dg>:          216 b            0 skpd (  0.0%)    0.018 s ( 0.086 ms/b)
<pg|ff>:          270 b            0 skpd (  0.0%)    0.057 s ( 0.211 ms/b)
<pg|fg>:          180 b            0 skpd (  0.0%)    0.030 s ( 0.168 ms/b)
<pg|gg>:           54 b            0 skpd (  0.0%)    0.016 s ( 0.298 ms/b)
<dd|dd>:          231 b            0 skpd (  0.0%)    0.013 s ( 0.057 ms/b)
<dd|df>:          630 b            0 skpd (  0.0%)    0.027 s ( 0.043 ms/b)
<dd|dg>:          252 b            0 skpd (  0.0%)    0.015 s ( 0.059 ms/b)
<dd|ff>:          315 b            0 skpd (  0.0%)    0.045 s ( 0.143 ms/b)
<dd|fg>:          210 b            0 skpd (  0.0%)    0.025 s ( 0.117 ms/b)
<dd|gg>:           63 b            0 skpd (  0.0%)    0.013 s ( 0.214 ms/b)
<df|df>:          465 b            0 skpd (  0.0%)    0.069 s ( 0.148 ms/b)
<df|dg>:          360 b            0 skpd (  0.0%)    0.038 s ( 0.106 ms/b)
<df|ff>:          450 b            0 skpd (  0.0%)    0.118 s ( 0.262 ms/b)
<df|fg>:          300 b            0 skpd (  0.0%)    0.062 s ( 0.208 ms/b)
<df|gg>:           90 b            0 skpd (  0.0%)    0.034 s ( 0.383 ms/b)
<dg|dg>:           78 b            0 skpd (  0.0%)    0.015 s ( 0.194 ms/b)
<dg|ff>:          180 b            0 skpd (  0.0%)    0.063 s ( 0.350 ms/b)
<dg|fg>:          120 b            0 skpd (  0.0%)    0.033 s ( 0.273 ms/b)
<dg|gg>:           36 b            0 skpd (  0.0%)    0.018 s ( 0.498 ms/b)
<ff|ff>:          120 b            0 skpd (  0.0%)    0.135 s ( 1.124 ms/b)
<ff|fg>:          150 b            0 skpd (  0.0%)    0.069 s ( 0.460 ms/b)
<ff|gg>:           45 b            0 skpd (  0.0%)    0.037 s ( 0.815 ms/b)
<fg|fg>:           55 b            0 skpd (  0.0%)    0.040 s ( 0.736 ms/b)
<fg|gg>:           30 b            0 skpd (  0.0%)    0.027 s ( 0.905 ms/b)
<gg|gg>:            6 b            0 skpd (  0.0%)    0.011 s ( 1.834 ms/b)
Recanonicalizing the internal orbitals
Recanonicalizing the virtual orbitals
Time needed for Fock operator              ...            2.263 sec
Reference energy                           ...   -473.475915191
Warning: for UHF the TrafoType has to be JK
Warning: for UHF the K(C)-option cannot be MO but must be AOX

-------------------------------
PARTIAL EXCHANGE TRANSFORMATION
-------------------------------

Transformation type                        ... two-operators
Generation of integrals (i,mue|j,nue)      ... ON
Generation of integrals (mue,kappa|nue,tau)... ON
Generation of integrals (i,mue|a,nue)      ... ON
Dimension of the basis                     ...  121
Number of internal alpha-MOs               ...   12 (   4-  15)
Number of internal beta-MOs                ...   10 (   4-  13)
Number of external alpha-MOs               ...  105 (  16- 120)
Number of external beta-MOs                ...  107 (  14- 120)
Pair cutoff                                ... 0.000e+00 Eh
Number of AO pairs in the trafo            ... 7381
Total Number of distinct AO pairs          ... 7381
Memory devoted for trafo                   ... 2500.0 MB 
Max. Number of MO pairs treated together   ... 22380      
Number Format for Storage                  ... Double (8 Byte)
Integral package used                      ... LIBINT

Starting integral evaluation:
    ... done with AO integral generation
Closing buffer AOK[aa] ( 0.00 GB; CompressionRatio= 0.99)
Closing buffer AOK[bb] ( 0.00 GB; CompressionRatio= 0.99)
Closing buffer AOK[ab] ( 0.00 GB; CompressionRatio= 0.99)
Closing buffer AOK[ba] ( 0.00 GB; CompressionRatio= 0.99)
Collecting buffer AOK 
Closing buffer IAAO1[aa] ( 0.00 GB; CompressionRatio= 1.00)
Closing buffer IAAO1[bb] ( 0.00 GB; CompressionRatio= 1.00)
Closing buffer IAAO1[ab] ( 0.00 GB; CompressionRatio= 1.00)
Closing buffer IAAO1[ba] ( 0.00 GB; CompressionRatio= 1.00)
Closing buffer IAAO2[aa] ( 0.00 GB; CompressionRatio= 1.00)
Closing buffer IAAO2[bb] ( 0.00 GB; CompressionRatio= 1.00)
Closing buffer IAAO2[ab] ( 0.00 GB; CompressionRatio= 1.00)
Closing buffer IAAO2[ba] ( 0.00 GB; CompressionRatio= 1.00)
Collecting buffer IAAO 
Closing buffer PRQS    ( 0.01 GB; CompressionRatio= 1.00)
Collecting buffer PRQS 
Number of alpha/alpha MO pairs in trafo    ...   78
Number of beta /beta  MO pairs in trafo    ...   55
Number of alpha/ beta MO pairs in trafo    ...  120
------------------------
SORTING OF (i,mue|j,nue)
------------------------

SORTING OF ALPHA/ALPHA PAIRS
IBATCH = 1 of  1
Closing buffer KAO[aa] ( 0.00 GB; CompressionRatio= 1.00)
Collecting buffer KAO 
SORTING OF BETA /BETA  PAIRS
IBATCH = 1 of  1
Closing buffer KAO[bb] ( 0.00 GB; CompressionRatio= 1.00)
Collecting buffer KAO 
SORTING OF ALPHA/BETA  PAIRS
IBATCH = 1 of  1
Closing buffer KAO[ab] ( 0.00 GB; CompressionRatio= 0.999897558477)
Collecting buffer KAO[ab] 
------------------------
SORTING OF (i,mue|a,nue)
------------------------

Number of alpha/alpha (i,a) pairs in trafo  ... 1260
Number of beta /beta  (i,a) pairs in trafo  ... 1070
Number of alpha/ beta (i,a) pairs in trafo  ... 1284
Number of beta /alpha (i,a) pairs in trafo  ... 1050
Setting up the alpha/alpha list             ... done
Setting up the beta /beta  list             ... done
Setting up the alpha/beta  list             ... done
Setting up the beta /alpha list             ... done
    ... Now sorting (i,mue|a,nue)integrals
    ... Integrals (i,b|a,c) will be made on the fly
SORTING OF ALPHA/ALPHA PAIRS
IBATCH = 1 of  1
Closing buffer IPAQ[aa]  0.00 GB; CompressionRatio= 1.00)
SORTING OF BETA /BETA  PAIRS
IBATCH = 1 of  1
Closing buffer IPAQ[bb]( 0.00 GB; CompressionRatio= 1.00)
SORTING OF ALPHA/BETA  PAIRS (NMatSort_ab=54)
IBATCH = 1 of  1
Closing buffer IPAQ[ab]( 0.00 GB; CompressionRatio= 1.00)
SORTING OF BETA/ALPHA  PAIRS
IBATCH = 1 of  1
Closing buffer IPAQ[ba]( 0.00 GB; CompressionRatio= 1.00)
N(AO-Batches) Done                         ...     10890 
N(AO-Batches) Skipped                      ...         0 
N(IJ)-pairs Skipped                        ...         0 
TOTAL TIME for half transformation         ...    13.307 sec
AO-integral generation                     ...     0.206 sec
Half transformation                        ...     1.555 sec
K-integral sorting                         ...     3.063 sec
<ss|**>: 
------------------------------
PARTIAL COULOMB TRANSFORMATION
------------------------------

Transformation type                        ... two-operators
Dimension of the basis                     ...  121
Number of internal alpha-MOs               ...   12 (4-15)
Number of internal beta-MOs                ...   10 (4-13)
Pair cutoff                                ... 0.000e+00 Eh
Number of AO pairs included in the trafo   ... 7381
Total Number of distinct AO pairs          ... 7381
Memory devoted for trafo                   ... 2500.0 MB 
Max. Number of MO pairs treated together   ... 44395      
Max. Number of MOs treated per batch       ...  366      
Number Format for Storage                  ... Double (8 Byte)
AO-integral source                         ... DIRECT
Integral package used                      ... LIBINT

Starting integral evaluation:
       37026 b        0 skpd     0.009 s (  0.000 ms/b)
<sp|**>:        55539 b        0 skpd     0.061 s (  0.001 ms/b)
<sd|**>:        37026 b        0 skpd     0.106 s (  0.003 ms/b)
<sf|**>:        30855 b        0 skpd     0.141 s (  0.005 ms/b)
<sg|**>:        12342 b        0 skpd     0.076 s (  0.006 ms/b)
<pp|**>:        25245 b        0 skpd     0.124 s (  0.005 ms/b)
<pd|**>:        30294 b        0 skpd     0.212 s (  0.007 ms/b)
<pf|**>:        25245 b        0 skpd     0.402 s (  0.016 ms/b)
<pg|**>:        10098 b        0 skpd     0.232 s (  0.023 ms/b)
<dd|**>:        11781 b        0 skpd     0.245 s (  0.021 ms/b)
<df|**>:        16830 b        0 skpd     0.522 s (  0.031 ms/b)
<dg|**>:         6732 b        0 skpd     0.282 s (  0.042 ms/b)
<ff|**>:         8415 b        0 skpd     0.812 s (  0.097 ms/b)
<fg|**>:         5610 b        0 skpd     0.457 s (  0.082 ms/b)
<gg|**>:         1683 b        0 skpd     0.250 s (  0.148 ms/b)
Closing buffer AOJ[aa] ( 0.00 GB; CompressionRatio= 0.98)
Closing buffer AOJ[bb] ( 0.00 GB; CompressionRatio= 0.00)
Collecting buffer AOJ 
    ... done with AO integral generation
Number of Alpha-MO pairs included          ...   78
Number of Beta-MO pairs included           ...   55
    ... Now sorting integrals
SORTING ALPHA/ALPHA PAIRS
IBATCH = 1 of  1
Closing buffer JAO[aa] ( 0.00 GB; CompressionRatio= 1.00)
SORTING BETA/BETA PAIRS
IBATCH = 1 of  1
Closing buffer JAO[bb] ( 0.00 GB; CompressionRatio= 1.00)
Collecting buffer JAO 
TOTAL TIME for half transformation         ...     4.251 sec
AO-integral generation                     ...     3.350 sec
Half transformation                        ...     0.600 sec
J-integral sorting                         ...     0.152 sec

-------------------------- SECOND HALF TRANSFORMATION -------------------------
Formation of (ij|kl),(ij|ka), (ij|ab)      ... ok (     0.236 sec)
Formation of (ik|jl),(ik|ja), (ia|jb)      ... ok (     0.407 sec)


-----------------------
SPIN UNRESTRICTED GUESS
-----------------------

Entering MDCI_UHF_Guess, Tailored=0
Spin-components of the MP2 energy:
EMP2(aa)=     -0.186681634
EMP2(bb)=     -0.158700549
EMP2(ab)=     -0.595104735

Initial guess performed in     0.069 sec
E(0)                                       ...   -473.475915191
E(MP2)                                     ...     -0.940486918
Initial E(tot)                             ...   -474.416402110
<T|T>                                      ...      0.184520825
Number of pairs included                   ... 231

------------------------------------------------
                  UHF COUPLED CLUSTER ITERATIONS
------------------------------------------------

Number of amplitudes to be optimized       ...      1970737

Iter       E(tot)           E(Corr)          Delta-E          Residual     Time      <S|S>**1/2
  0   -474.416402112     -0.940486921     -0.000000003      0.033810153    3.73      0.000033128
                           *** Turning on DIIS ***
  1   -474.320339647     -0.844424456      0.096062465      0.007929177    3.71      0.053350957
  2   -474.343720527     -0.867805336     -0.023380880      0.007522021    3.73      0.068070021
  3   -474.348048298     -0.872133107     -0.004327771      0.003565227    3.73      0.090636320
  4   -474.349950693     -0.874035502     -0.001902394      0.001504901    3.76      0.104632810
  5   -474.350318965     -0.874403774     -0.000368273      0.000678330    3.77      0.110879806
  6   -474.350486543     -0.874571352     -0.000167577      0.000475673    3.82      0.114187348
  7   -474.350512798     -0.874597607     -0.000026255      0.000425984    3.86      0.115019413
  8   -474.350516068     -0.874600877     -0.000003270      0.000354059    3.80      0.115398839
  9   -474.350520697     -0.874605506     -0.000004629      0.000294168    3.78      0.115358828
 10   -474.350515353     -0.874600162      0.000005344      0.000251218    3.85      0.115202054
 11   -474.350517880     -0.874602689     -0.000002527      0.000207316    3.87      0.115256504
 12   -474.350520118     -0.874604927     -0.000002238      0.000150574    3.79      0.115409000
 13   -474.350524267     -0.874609076     -0.000004149      0.000092909    3.81      0.115756491
 14   -474.350526675     -0.874611484     -0.000002408      0.000062375    3.78      0.116119044
 15   -474.350529363     -0.874614172     -0.000002688      0.000058904    3.77      0.116264328
 16   -474.350531089     -0.874615898     -0.000001726      0.000057401    3.79      0.116290464
 17   -474.350531652     -0.874616461     -0.000000563      0.000055676    3.74      0.116291515
 18   -474.350531215     -0.874616024      0.000000437      0.000053263    3.83      0.116296899
 19   -474.350530102     -0.874614911      0.000001114      0.000049681    3.81      0.116348655
 20   -474.350531038     -0.874615847     -0.000000936      0.000046367    3.79      0.116427201
 21   -474.350532474     -0.874617283     -0.000001437      0.000044614    3.79      0.116471740
 22   -474.350533547     -0.874618356     -0.000001073      0.000042475    3.84      0.116517235
 23   -474.350532671     -0.874617480      0.000000876      0.000040233    3.84      0.116560055
 24   -474.350531537     -0.874616346      0.000001134      0.000038893    3.87      0.116600567
 25   -474.350531525     -0.874616334      0.000000012      0.000037722    3.79      0.116645807
 26   -474.350532346     -0.874617155     -0.000000821      0.000036648    3.79      0.116699824
 27   -474.350533069     -0.874617878     -0.000000723      0.000036109    3.80      0.116725809
 28   -474.350533203     -0.874618012     -0.000000135      0.000035592    3.79      0.116747640
 29   -474.350532782     -0.874617591      0.000000421      0.000035216    3.77      0.116766060
 30   -474.350532461     -0.874617270      0.000000322      0.000034712    3.77      0.116793066
 31   -474.350532497     -0.874617306     -0.000000036      0.000034332    3.76      0.116821245
 32   -474.350532868     -0.874617677     -0.000000371      0.000033648    3.77      0.116872065
 33   -474.350533047     -0.874617856     -0.000000179      0.000033256    3.79      0.116905146
 34   -474.350532909     -0.874617718      0.000000138      0.000032871    3.82      0.116937862
 35   -474.350532675     -0.874617484      0.000000234      0.000032602    3.75      0.116964534
 36   -474.350532656     -0.874617465      0.000000019      0.000032484    3.81      0.116978145
 37   -474.350532677     -0.874617486     -0.000000022      0.000032495    3.82      0.116978375
 38   -474.350532528     -0.874617337      0.000000149      0.000032280    3.83      0.116989079
 39   -474.350532528     -0.874617337     -0.000000000      0.000032165    3.82      0.116997935
 40   -474.350532584     -0.874617393     -0.000000056      0.000032097    3.81      0.117004402
 41   -474.350532610     -0.874617419     -0.000000025      0.000032075    3.84      0.117007181
 42   -474.350532629     -0.874617438     -0.000000019      0.000032110    3.86      0.117003774
 43   -474.350532598     -0.874617407      0.000000031      0.000032080    3.83      0.117007208
 44   -474.350532577     -0.874617386      0.000000020      0.000032007    3.78      0.117017227
 45   -474.350532482     -0.874617291      0.000000096      0.000031987    3.80      0.117011503
 46   -474.350532190     -0.874616999      0.000000292      0.000031705    3.82      0.117001649
 47   -474.350532231     -0.874617040     -0.000000041      0.000030563    3.79      0.117046315
 48   -474.350532675     -0.874617484     -0.000000444      0.000028935    3.79      0.117044427
 49   -474.350533443     -0.874618251     -0.000000768      0.000027330    3.80      0.117042233
               --- The Coupled-Cluster iterations have NOT converged ---

-------------------------   --------------------
FINAL SINGLE POINT ENERGY      -473.475915185674   (Wavefunction not fully converged!)
-------------------------   --------------------



     ------------------------------------------------------------------------------
                                      ERROR
     This wavefunction IS NOT FULLY CONVERGED! 
     You can't use it for properties or numerical calculations !
     Aborting the run ...
     Please restart calculation (with larger maxiter/different convergence flags)
     ------------------------------------------------------------------------------


