
                                 *****************
                                 * O   R   C   A *
                                 *****************

           --- An Ab Initio, DFT and Semiempirical electronic structure package ---

                  #######################################################
                  #                        -***-                        #
                  #          Department of theory and spectroscopy      #
                  #               Directorship: Frank Neese             #
                  #        Max Planck Institute fuer Kohlenforschung    #
                  #                Kaiser Wilhelm Platz 1               #
                  #                 D-45470 Muelheim/Ruhr               #
                  #                      Germany                        #
                  #                                                     #
                  #                  All rights reserved                #
                  #                        -***-                        #
                  #######################################################


                         Program Version 4.2.0 -  RELEASE  -


 With contributions from (in alphabetic order):
   Daniel Aravena         : Magnetic Suceptibility
   Michael Atanasov       : Ab Initio Ligand Field Theory (pilot matlab implementation)
   Alexander A. Auer      : GIAO ZORA, VPT2
   Ute Becker             : Parallelization
   Giovanni Bistoni       : ED, misc. LED, open-shell LED, HFLED
   Martin Brehm           : Molecular dynamics
   Dmytro Bykov           : SCF Hessian
   Vijay G. Chilkuri      : MRCI spin determinant printing, contributions to CSF-ICE
   Dipayan Datta          : RHF DLPNO-CCSD density
   Achintya Kumar Dutta   : EOM-CC, STEOM-CC
   Dmitry Ganyushin       : Spin-Orbit,Spin-Spin,Magnetic field MRCI
   Miquel Garcia          : C-PCM Hessian, Gaussian charge scheme
   Yang Guo               : DLPNO-NEVPT2, CIM, IAO-localization
   Andreas Hansen         : Spin unrestricted coupled pair/coupled cluster methods
   Benjamin Helmich-Paris : CASSCF linear response (MC-RPA)
   Lee Huntington         : MR-EOM, pCC
   Robert Izsak           : Overlap fitted RIJCOSX, COSX-SCS-MP3, EOM
   Christian Kollmar      : KDIIS, OOCD, Brueckner-CCSD(T), CCSD density
   Simone Kossmann        : Meta GGA functionals, TD-DFT gradient, OOMP2, MP2 Hessian
   Martin Krupicka        : AUTO-CI
   Lucas Lang             : DCDCAS
   Dagmar Lenk            : GEPOL surface, SMD
   Dimitrios Liakos       : Extrapolation schemes; Compound Job, initial MDCI parallelization
   Dimitrios Manganas     : Further ROCIS development; embedding schemes
   Dimitrios Pantazis     : SARC Basis sets
   Taras Petrenko         : DFT Hessian,TD-DFT gradient, ASA, ECA, R-Raman, ABS, FL, XAS/XES, NRVS
   Peter Pinski           : DLPNO-MP2, DLPNO-MP2 Gradient
   Christoph Reimann      : Effective Core Potentials
   Marius Retegan         : Local ZFS, SOC
   Christoph Riplinger    : Optimizer, TS searches, QM/MM, DLPNO-CCSD(T), (RO)-DLPNO pert. Triples
   Tobias Risthaus        : Range-separated hybrids, TD-DFT gradient, RPA, STAB
   Michael Roemelt        : Original ROCIS implementation
   Masaaki Saitow         : Open-shell DLPNO-CCSD energy and density
   Barbara Sandhoefer     : DKH picture change effects
   Avijit Sen             : IP-ROCIS
   Kantharuban Sivalingam : CASSCF convergence, NEVPT2, FIC-MRCI
   Bernardo de Souza      : ESD, SOC TD-DFT
   Georgi Stoychev        : AutoAux, RI-MP2 NMR
   Willem Van den Heuvel  : Paramagnetic NMR
   Boris Wezisla          : Elementary symmetry handling
   Frank Wennmohs         : Technical directorship


 We gratefully acknowledge several colleagues who have allowed us to
 interface, adapt or use parts of their codes:
   Stefan Grimme, W. Hujo, H. Kruse,             : VdW corrections, initial TS optimization,
                  C. Bannwarth                     DFT functionals, gCP, sTDA/sTD-DF
   Ed Valeev, F. Pavosevic, A. Kumar             : LibInt (2-el integral package), F12 methods
   Garnet Chan, S. Sharma, J. Yang, R. Olivares  : DMRG
   Ulf Ekstrom                                   : XCFun DFT Library
   Mihaly Kallay                                 : mrcc  (arbitrary order and MRCC methods)
   Andreas Klamt, Michael Diedenhofen            : otool_cosmo (COSMO solvation model)
   Jiri Pittner, Ondrej Demel                    : Mk-CCSD
   Frank Weinhold                                : gennbo (NPA and NBO analysis)
   Christopher J. Cramer and Donald G. Truhlar   : smd solvation model
   Lars Goerigk                                  : TD-DFT with DH, B97 family of functionals
   V. Asgeirsson, H. Jonsson                     : NEB implementation
   FAccTs GmbH                                   : IRC, NEB, NEB-TS, Multilevel, MM, QM/MM, CI optimization
   S Lehtola, MJT Oliveira, MAL Marques          : LibXC Library


 Your calculation uses the libint2 library for the computation of 2-el integrals
 For citations please refer to: http://libint.valeyev.net

 Your ORCA version has been built with support for libXC version: 4.2.3
 For citations please refer to: https://tddft.org/programs/libxc/

 This ORCA versions uses:
   CBLAS   interface :  Fast vector & matrix operations
   LAPACKE interface :  Fast linear algebra routines
   SCALAPACK package :  Parallel linear algebra routines


----- Orbital basis set information -----
Your calculation utilizes the basis: def2-SVP
   F. Weigend and R. Ahlrichs, Phys. Chem. Chem. Phys. 7, 3297 (2005).

----- AuxJ basis set information -----
Your calculation utilizes the auxiliary basis: def2/J
   F. Weigend, Phys. Chem. Chem. Phys. 8, 1057 (2006).

================================================================================
                                        WARNINGS
                       Please study these warnings very carefully!
================================================================================


INFO   : the flag for use of LIBINT has been found!

================================================================================
                                       INPUT FILE
================================================================================
NAME = 60_Nd_atom60.inp
|  1> # input to generate an atomic fitting density for Nd
|  2> # this file is use internally by ORCA
|  3> #
|  4> # atomic ground state (S=5): 1s2 2s2 2p6 3s2 3p6 4s2 3d10 4p6 5s2 4d10 5p6 6s2 4f4 
|  5> #
|  6> ! RHF AllowRHF def2-SVP def2/J  NoMulliken NoLoewdin NoMayer NoPrintMOs 
|  7> 
|  8> %output print[p_atomdensfit] 2 end
|  9> 
| 10> %scf
| 11>   guess hcore
| 12>   maxiter 1000
| 13>   maxdisk 500000
| 14>   SCFMode Conventional
| 15>   lshift 1.000000
| 16>   hftyp rohf
| 17>   rohf_case sahf
| 18>   rohf_numop   3
| 19>   rohf_norb[1] 1,7
| 20>   rohf_nel[1]  2,4
| 21> end
| 22> 
| 23> %basis
| 24>   NewECP 60
| 25>     N_core 28
| 26>     lmax h
| 27>     s 1
| 28>       1      21.3522670000    574.3709800000  2
| 29>     p 1
| 30>       1      16.1192650000    280.9464400000  2
| 31>     d 1
| 32>       1      14.4941030000    138.6706270000  2
| 33>     f 1
| 34>       1      23.1838600000    -47.5226680000  2
| 35>     g 1
| 36>       1      18.3441740000    -23.3445870000  2
| 37>     h 1
| 38>       1       1.0000000000      0.0000000000  2
| 39>   end
| 40>   NewGTO 60
| 41>     s 6 
| 42>      1  171860.7221400000      0.0008190289
| 43>      2   25925.9180100000      0.0067992000
| 44>      3    6016.0985654000      0.0289974829
| 45>      4    1702.8784861000      0.1339898474
| 46>      5     555.8199149600      0.2553557341
| 47>      6     185.4567124200      0.6868930997
| 48>     s 1 
| 49>      1      40.3877648750      1.0000000000
| 50>     s 1 
| 51>      1      26.4194754880      1.0000000000
| 52>     s 1 
| 53>      1      13.1660991550      1.0000000000
| 54>     s 1 
| 55>      1       3.4442716980      1.0000000000
| 56>     s 1 
| 57>      1       1.8593113583      1.0000000000
| 58>     s 1 
| 59>      1       0.7373404929      1.0000000000
| 60>     s 1 
| 61>      1       0.3351660283      1.0000000000
| 62>     s 1 
| 63>      1       0.0761020737      1.0000000000
| 64>     s 1 
| 65>      1       0.0376654529      1.0000000000
| 66>     s 1 
| 67>      1       0.0154030948      1.0000000000
| 68>     p 9 
| 69>      1    3786.1487024000      0.0000271600
| 70>      2    1039.4322349000      0.0002226770
| 71>      3     360.7847545400      0.0008215067
| 72>      4     128.0533319900      0.0039514428
| 73>      5      33.6135520070     -0.0477367260
| 74>      6      28.4302039810      0.1482190057
| 75>      7      13.2074525300     -0.5538153577
| 76>      8       7.4494413405      0.2714700461
| 77>      9       3.7965193662      1.0529782441
| 78>     p 3 
| 79>      1      27.2052116630      0.1769692403
| 80>      2      11.9895428520     -0.7973312314
| 81>      3       7.4580175765     -0.3479039794
| 82>     p 1 
| 83>      1       1.9452689295      1.0000000000
| 84>     p 1 
| 85>      1       0.8968465871      1.0000000000
| 86>     p 1 
| 87>      1       0.4207559471      1.0000000000
| 88>     p 1 
| 89>      1       0.1894014503      1.0000000000
| 90>     p 1 
| 91>      1       0.0670000000      1.0000000000
| 92>     p 1 
| 93>      1       0.0300000000      1.0000000000
| 94>     d 6 
| 95>      1     599.7196245900      0.0003376015
| 96>      2     186.4920104700      0.0031566893
| 97>      3      78.4592433960      0.0062190952
| 98>      4      45.0794088820      0.0314416793
| 99>      5      12.0961274250     -0.1992026728
|100>      6       7.2614876487      1.1654638343
|101>     d 1 
|102>      1       3.5030249905      1.0000000000
|103>     d 1 
|104>      1       1.6774413779      1.0000000000
|105>     d 1 
|106>      1       0.7466754086      1.0000000000
|107>     d 1 
|108>      1       0.2340389646      1.0000000000
|109>     d 1 
|110>      1       0.0777556876      1.0000000000
|111>     f 6 
|112>      1     157.1291812400      0.0018584968
|113>      2      58.6638759860      0.0189885651
|114>      3      27.2342185220      0.0912404307
|115>      4      13.3058624640      0.2163278332
|116>      5       6.7268799586      0.3738802044
|117>      6       3.3797927635      0.4930882406
|118>     f 1 
|119>      1       1.6770056817      1.0000000000
|120>     f 1 
|121>      1       0.8361371026      1.0000000000
|122>     f 1 
|123>      1       0.4053742373      1.0000000000
|124>     f 1 
|125>      1       0.1713058593      1.0000000000
|126>   end
|127>   NewAuxGTO 60
|128>     S 1
|129>      1 1310.72 1.0
|130>     S 1
|131>      1  655.36 1.0
|132>     S 1
|133>      1  327.68 1.0
|134>     S 1
|135>      1  163.84 1.0
|136>     S 1
|137>      1   81.82 1.0
|138>     S 1
|139>      1   40.96 1.0
|140>     S 1
|141>      1   20.48 1.0
|142>     S 1
|143>      1   10.24 1.0
|144>     S 1
|145>      1    5.12 1.0
|146>     S 1
|147>      1    2.56 1.0
|148>     S 1
|149>      1    1.28 1.0
|150>     S 1
|151>      1    0.64 1.0
|152>     S 1
|153>      1    0.32 1.0
|154>     S 1
|155>      1    0.16 1.0
|156>     S 1
|157>      1    0.08 1.0
|158>     S 1
|159>      1    0.04 1.0
|160>     S 1
|161>      1    0.02 1.0
|162>     S 1
|163>      1    0.01 1.0
|164>   end
|165> end
|166> 
|167> * xyz 0 5
|168> 60  0.0 0.0 0.0
|169> *
|170> 
|171> 
|172>                          ****END OF INPUT****
================================================================================

                       ****************************
                       * Single Point Calculation *
                       ****************************

---------------------------------
CARTESIAN COORDINATES (ANGSTROEM)
---------------------------------
  Nd     0.000000    0.000000    0.000000

----------------------------
CARTESIAN COORDINATES (A.U.)
----------------------------
  NO LB      ZA    FRAG     MASS         X           Y           Z
   0 Nd   32.0000*   0   144.240    0.000000    0.000000    0.000000
* core charge reduced due to ECP

--------------------------------
INTERNAL COORDINATES (ANGSTROEM)
--------------------------------
 Nd     0   0   0     0.000000000000     0.00000000     0.00000000

---------------------------
INTERNAL COORDINATES (A.U.)
---------------------------
 Nd     0   0   0     0.000000000000     0.00000000     0.00000000

---------------------
BASIS SET INFORMATION
---------------------
There are 1 groups of distinct atoms

 Group   1 Type Nd  : 16s18p11d10f contracted to 11s8p6d5f pattern {61111111111/93111111/611111/61111}

Atom   0Nd   basis set group =>   1
---------------------------------
AUXILIARY/J BASIS SET INFORMATION
---------------------------------
There are 1 groups of distinct atoms

 Group   1 Type Nd  : 18s contracted to 18s pattern {111111111111111111}

Atom   0Nd   basis set group =>   1
-------------------------
ECP PARAMETER INFORMATION
-------------------------

 Group 1, Type Nd ECP (replacing 28 core electrons, lmax=5)

Atom   0Nd   ECP group =>   1

------------------------------------------------------------------------------
                           ORCA GTO INTEGRAL CALCULATION
------------------------------------------------------------------------------

                         BASIS SET STATISTICS AND STARTUP INFO

 # of primitive gaussian shells          ...   55
 # of primitive gaussian functions       ...  195
 # of contracted shells                  ...   30
 # of contracted basis functions         ...  100
 Highest angular momentum                ...    3
 Maximum contraction depth               ...    9
 Integral package used                   ... LIBINT
 Integral threshhold            Thresh   ...  1.000e-10
 Primitive cut-off              TCut     ...  1.000e-11
 Storage cut-off                TCutStore... -1.000e+00
 Buffer length                           ... 1048576 integrals/buffer
 Generate file with integrals 4 distinct ...false


------------------------------ INTEGRAL EVALUATION ----------------------------


 * One electron integrals 

   ECP integrals                         ... done
 Pre-screening matrix                    ... done
 Shell pair data                         ... done (   0.000 sec)
 Statistics run                          ... done
 Maximum amount of storage needed        ...   151 MB
 Maximum amount of storage dedicated     ... 500000 MB
 Beginning two electron integral evaluation:
 Starting repulsion integrals
  <ss|ss>  ...         2211 b.         0 skpd (  0.0%)     0.000 s. (  0.000 ms/b)
  <ss|sp>  ...         5808 b.         0 skpd (  0.0%)     0.001 s. (  0.000 ms/b)
  <ss|sd>  ...         4356 b.         0 skpd (  0.0%)     0.002 s. (  0.001 ms/b)
  <ss|sf>  ...         3630 b.         0 skpd (  0.0%)     0.003 s. (  0.001 ms/b)
  <ss|pp>  ...         2376 b.         0 skpd (  0.0%)     0.003 s. (  0.001 ms/b)
  <ss|pd>  ...         3168 b.         0 skpd (  0.0%)     0.004 s. (  0.001 ms/b)
  <ss|pf>  ...         2640 b.         0 skpd (  0.0%)     0.005 s. (  0.002 ms/b)
  <ss|dd>  ...         1386 b.         0 skpd (  0.0%)     0.003 s. (  0.002 ms/b)
  <ss|df>  ...         1980 b.         0 skpd (  0.0%)     0.006 s. (  0.003 ms/b)
  <ss|ff>  ...          990 b.         0 skpd (  0.0%)     0.005 s. (  0.005 ms/b)
  <sp|sp>  ...         3916 b.         0 skpd (  0.0%)     0.004 s. (  0.001 ms/b)
  <sp|sd>  ...         5808 b.         0 skpd (  0.0%)     0.007 s. (  0.001 ms/b)
  <sp|sf>  ...         4838 b.         2 skpd (  0.0%)     0.010 s. (  0.002 ms/b)
  <sp|pp>  ...         3168 b.         0 skpd (  0.0%)     0.009 s. (  0.003 ms/b)
  <sp|pd>  ...         4224 b.         0 skpd (  0.0%)     0.015 s. (  0.003 ms/b)
  <sp|pf>  ...         3520 b.         0 skpd (  0.0%)     0.021 s. (  0.006 ms/b)
  <sp|dd>  ...         1848 b.         0 skpd (  0.0%)     0.017 s. (  0.009 ms/b)
  <sp|df>  ...         2640 b.         0 skpd (  0.0%)     0.022 s. (  0.008 ms/b)
  <sp|ff>  ...         1320 b.         0 skpd (  0.0%)     0.021 s. (  0.016 ms/b)
  <sd|sd>  ...         2209 b.         2 skpd (  0.1%)     0.004 s. (  0.002 ms/b)
  <sd|sf>  ...         3619 b.        11 skpd (  0.3%)     0.012 s. (  0.003 ms/b)
  <sd|pp>  ...         2376 b.         0 skpd (  0.0%)     0.011 s. (  0.005 ms/b)
  <sd|pd>  ...         3168 b.         0 skpd (  0.0%)     0.026 s. (  0.008 ms/b)
  <sd|pf>  ...         2640 b.         0 skpd (  0.0%)     0.029 s. (  0.011 ms/b)
  <sd|dd>  ...         1386 b.         0 skpd (  0.0%)     0.016 s. (  0.011 ms/b)
  <sd|df>  ...         1980 b.         0 skpd (  0.0%)     0.037 s. (  0.018 ms/b)
  <sd|ff>  ...          990 b.         0 skpd (  0.0%)     0.038 s. (  0.038 ms/b)
  <sf|sf>  ...         1527 b.        13 skpd (  0.8%)     0.018 s. (  0.012 ms/b)
  <sf|pp>  ...         1980 b.         0 skpd (  0.0%)     0.021 s. (  0.011 ms/b)
  <sf|pd>  ...         2640 b.         0 skpd (  0.0%)     0.038 s. (  0.014 ms/b)
  <sf|pf>  ...         2200 b.         0 skpd (  0.0%)     0.057 s. (  0.026 ms/b)
  <sf|dd>  ...         1155 b.         0 skpd (  0.0%)     0.031 s. (  0.027 ms/b)
  <sf|df>  ...         1650 b.         0 skpd (  0.0%)     0.082 s. (  0.050 ms/b)
  <sf|ff>  ...          825 b.         0 skpd (  0.0%)     0.081 s. (  0.099 ms/b)
  <pp|pp>  ...          666 b.         0 skpd (  0.0%)     0.009 s. (  0.013 ms/b)
  <pp|pd>  ...         1728 b.         0 skpd (  0.0%)     0.024 s. (  0.014 ms/b)
  <pp|pf>  ...         1440 b.         0 skpd (  0.0%)     0.042 s. (  0.029 ms/b)
  <pp|dd>  ...          756 b.         0 skpd (  0.0%)     0.019 s. (  0.025 ms/b)
  <pp|df>  ...         1080 b.         0 skpd (  0.0%)     0.044 s. (  0.040 ms/b)
  <pp|ff>  ...          540 b.         0 skpd (  0.0%)     0.045 s. (  0.084 ms/b)
  <pd|pd>  ...         1176 b.         0 skpd (  0.0%)     0.029 s. (  0.025 ms/b)
  <pd|pf>  ...         1920 b.         0 skpd (  0.0%)     0.081 s. (  0.042 ms/b)
  <pd|dd>  ...         1008 b.         0 skpd (  0.0%)     0.041 s. (  0.040 ms/b)
  <pd|df>  ...         1440 b.         0 skpd (  0.0%)     0.106 s. (  0.074 ms/b)
  <pd|ff>  ...          720 b.         0 skpd (  0.0%)     0.108 s. (  0.151 ms/b)
  <pf|pf>  ...          820 b.         0 skpd (  0.0%)     0.079 s. (  0.096 ms/b)
  <pf|dd>  ...          840 b.         0 skpd (  0.0%)     0.070 s. (  0.084 ms/b)
  <pf|df>  ...         1200 b.         0 skpd (  0.0%)     0.196 s. (  0.163 ms/b)
  <pf|ff>  ...          600 b.         0 skpd (  0.0%)     0.206 s. (  0.343 ms/b)
  <dd|dd>  ...          231 b.         0 skpd (  0.0%)     0.027 s. (  0.119 ms/b)
  <dd|df>  ...          630 b.         0 skpd (  0.0%)     0.091 s. (  0.145 ms/b)
  <dd|ff>  ...          315 b.         0 skpd (  0.0%)     0.099 s. (  0.314 ms/b)
  <df|df>  ...          465 b.         0 skpd (  0.0%)     0.140 s. (  0.302 ms/b)
  <df|ff>  ...          450 b.         0 skpd (  0.0%)     0.254 s. (  0.565 ms/b)
  <ff|ff>  ...          120 b.         0 skpd (  0.0%)     0.188 s. (  1.565 ms/b)


                                      INTEGRAL STATISTICS

Integral type statistics:
 Number of integrals retained            ...   12752713 
 One   Center Integrals retained         ...   12752713 (100.0%)
 Two   Center Integrals retained         ...          0 (  0.0%)
 Three Center Integrals retained         ...          0 (  0.0%)
 Four  Center Integrals retained         ...          0 (  0.0%)

Storage statistics:
 Number of char integrals                ...          0 (  0.0%)
 Number of short int integrals           ...          0 (  0.0%)
 Number of double/float integrals        ...   12752713 (100.0%)
 Amount of memory used                   ...        158 MB
 Amount of memory estimated              ...        151 MB ( 95.6%)

Prescreening statistics:
 Total number of shell quadruples        ...     108345 
 Number of skipped shell quadruples      ...         47 (  0.0%)
 # of negligible batches done            ...          0 (  0.0%)

Timings:
 Total evaluation time               ...     3.021 sec (   0.050 min)
 One electron matrix time            ...     0.071 sec (   0.001 min) =  2.4%
 Schwartz matrix evaluation time     ...     0.214 sec (   0.004 min) =  7.1%
 Statistics run                      ...     0.091 sec (   0.002 min) =  3.0%
 Repulsion integral time             ...     2.561 sec (   0.043 min) = 84.8%

-------------------------------------------------------------------------------
                                 ORCA SCF
-------------------------------------------------------------------------------

------------
SCF SETTINGS
------------
Hamiltonian:
 Ab initio Hamiltonian  Method          .... Hartree-Fock(GTOs)


General Settings:
 Integral files         IntName         .... 60_Nd_atom60
 Hartree-Fock type      HFTyp           .... ROHF
 Total Charge           Charge          ....    0
 Multiplicity           Mult            ....    5
 Number of Electrons    NEL             ....   32
 Basis Dimension        Dim             ....  100
 Nuclear Repulsion      ENuc            ....      0.0000000000 Eh

Convergence Acceleration:
 DIIS                   CNVDIIS         .... on
   Start iteration      DIISMaxIt       ....    12
   Startup error        DIISStart       ....  0.200000
   # of expansion vecs  DIISMaxEq       ....     5
   Bias factor          DIISBfac        ....   1.050
   Max. coefficient     DIISMaxC        ....  10.000
 Newton-Raphson         CNVNR           .... off
 SOSCF                  CNVSOSCF        .... off
 Level Shifting         CNVShift        .... on
   Level shift para.    LevelShift      ....    1.0000
   Turn off err/grad.   ShiftErr        ....    0.0010
 Zerner damping         CNVZerner       .... off
 Static damping         CNVDamp         .... on
   Fraction old density DampFac         ....    0.7000
   Max. Damping (<1)    DampMax         ....    0.9800
   Min. Damping (>=0)   DampMin         ....    0.0000
   Turn off err/grad.   DampErr         ....    0.1000
 Fernandez-Rico         CNVRico         .... off

SCF Procedure:
 Maximum # iterations   MaxIter         ....  1000
 SCF integral mode      SCFMode         .... Conventional
 Integral Threshold     Thresh          ....  1.000e-10 Eh
 Primitive CutOff       TCut            ....  1.000e-11 Eh
 Integral Buffer length BufferLength    .... 1048576
 Integral index format  IndFormat       ....     0
 Integral value format  ValFormat       ....     0
 Integral Storage       Thresh          ....  1.000e-10 Eh

Convergence Tolerance:
 Convergence Check Mode ConvCheckMode   .... Total+1el-Energy
 Convergence forced     ConvForced      .... 0
 Energy Change          TolE            ....  1.000e-06 Eh
 1-El. energy change                    ....  1.000e-03 Eh
 DIIS Error             TolErr          ....  1.000e-06


Diagonalization of the overlap matrix:
Smallest eigenvalue                        ... 1.404e-03
Time for diagonalization                   ...    0.001 sec
Threshold for overlap eigenvalues          ... 1.000e-08
Number of eigenvalues below threshold      ... 0
Time for construction of square roots      ...    0.002 sec
Total time needed                          ...    0.004 sec

--------------------
INITIAL GUESS: HCORE
--------------------
AVERAGE-CONFIGURATION (SAHF) CASE FOUND

-------------------
FINAL ROHF SETTINGS
-------------------
Number of operators             ... 3
  operator   0:  13 orbitals  26 electrons n(mue)= 2.000
  operator   1:   1 orbitals   2 electrons n(mue)= 2.000
  operator   2:   7 orbitals   4 electrons n(mue)= 0.571
Vector coupling coefficients a and b (Zerner convention):
   1.000    1.000    1.000           1.000    1.000    1.000 
   1.000    1.000    1.000           1.000    1.000    1.000 
   1.000    1.000    0.875           1.000    1.000    1.750 

                      -----------------
                      INTIAL GUESS DONE 
                      -----------------

 InCore treatment chosen:
   Memory dedicated               ...    1024 MB
   Memory needed                  ...    158 MB
   Number of tiny    integrals    ...       0
   Number of small   integrals    ...       0
   Number of regular integrals    ... 12752713

--------------
SCF ITERATIONS
--------------
ITER       Energy         Delta-E        Max-DP      RMS-DP      [F,P]     Damp
  0   -439.4275025280   0.000000000000 6.95006115  0.10040835  4.7510969 0.7000
  1   -510.7635103339 -71.336007805872 8.80215671  0.09010611  1.4393868 0.7000
  2   -526.6197207258 -15.856210391915 4.00645834  0.05072433  0.6962483 0.7000
  3   -537.1602561138 -10.540535387976 2.88906042  0.03647938  0.7473036 0.7000
  4   -544.8146071775  -7.654351063751 2.58070134  0.02778295  0.5452590 0.7000
  5   -550.6255367339  -5.810929556344 1.80658302  0.01953066  0.3157146 0.7000
                            ****Activating DIIS****
  6   -553.1790601925  -2.553523458626 1.26467927  0.01370922  0.1419360 0.7000
  7   -554.8933748809  -1.714314688396 2.95109055  0.03207019  0.0636934 0.0000
  8   -558.8600010634  -3.966626182502 0.01438720  0.00019103  0.1267436 0.7000
  9   -558.8270373768   0.032963686542 0.00371855  0.00004609  0.1422218 0.7000
 10   -558.8377783017  -0.010740924834 0.00250076  0.00003041  0.1348516 0.7000
 11   -558.8367840203   0.000994281365 0.00987416  0.00015791  0.1349029 0.7000
 12   -558.8582509153  -0.021466894984 0.06402533  0.00091303  0.1256858 0.7000
 13   -558.9719825555  -0.113731640247 0.23151500  0.00399438  0.0590717 0.0000
 14   -559.0718937987  -0.099911243130 0.01810972  0.00028719  0.0482593 0.0000
 15   -559.0772677597  -0.005373961084 0.03069111  0.00056039  0.0331774 0.0000
 16   -559.0897062145  -0.012438454773 0.08316874  0.00125814  0.0297037 0.0000
 17   -559.1122030999  -0.022496885368 0.04413011  0.00065326  0.0250591 0.0000
 18   -559.1225983604  -0.010395260493 0.08464231  0.00139287  0.0218303 0.0000
 19   -559.1400245699  -0.017426209528 0.07475031  0.00129890  0.0174359 0.0000
 20   -559.1518882409  -0.011863670969 0.08882436  0.00103722  0.0163133 0.0000
 21   -559.1587600408  -0.006871799885 0.07649757  0.00078604  0.0153294 0.0000
 22   -559.1630114894  -0.004251448653 0.06405594  0.00060483  0.0145369 0.0000
 23   -559.1656579280  -0.002646438595 0.04850315  0.00044745  0.0139426 0.0000
 24   -559.1673543826  -0.001696454613 0.03633961  0.00033424  0.0135109 0.0000
 25   -559.1685434083  -0.001189025632 0.03804927  0.00035266  0.0131854 0.0000
 26   -559.1698588562  -0.001315447955 0.04807042  0.00044743  0.0129031 0.0000
 27   -559.1715016214  -0.001642765220 0.07923080  0.00074435  0.0128647 0.0000
 28   -559.1741605157  -0.002658894304 0.13536061  0.00130718  0.0127328 0.0000
 29   -559.1785897108  -0.004429195071 0.22718116  0.00244524  0.0122753 0.0000
 30   -559.1856773168  -0.007087605985 0.32168552  0.00332736  0.0107594 0.0000
 31   -559.1911488357  -0.005471518881 0.22739413  0.00220524  0.0098733 0.0000
 32   -559.1919720627  -0.000823227018 0.16949364  0.00170150  0.0093969 0.0000
 33   -559.1917281803   0.000243882351 0.06734380  0.00070271  0.0090167 0.0000
 34   -559.1915377388   0.000190441550 0.08691321  0.00093040  0.0088855 0.0000
 35   -559.1911816758   0.000356063035 0.08081094  0.00088621  0.0087233 0.0000
 36   -559.1906998184   0.000481857394 0.03702723  0.00042007  0.0085848 0.0000
 37   -559.1905281961   0.000171622265 0.03761113  0.00040555  0.0085280 0.0000
 38   -559.1911263102  -0.000598114072 0.00960848  0.00010224  0.0086086 0.0000
 39   -559.1913326565  -0.000206346356 0.01312276  0.00014493  0.0086350 0.0000
 40   -559.1918595600  -0.000526903470 0.01703234  0.00018062  0.0086921 0.0000
 41   -559.1922704037  -0.000410843694 0.00902295  0.00009570  0.0087467 0.0000
 42   -559.1924779502  -0.000207546510 0.00923966  0.00009771  0.0087759 0.0000
 43   -559.1926648610  -0.000186910845 0.00885788  0.00009339  0.0088035 0.0000
 44   -559.1928577160  -0.000192854930 0.00991805  0.00010445  0.0088315 0.0000
 45   -559.1930967043  -0.000238988281 0.00991989  0.00010431  0.0088654 0.0000
 46   -559.1933272080  -0.000230503698 0.00835991  0.00008783  0.0088992 0.0000
 47   -559.1935152634  -0.000188055487 0.00788677  0.00008274  0.0089276 0.0000
 48   -559.1936871103  -0.000171846880 0.00799602  0.00008377  0.0089541 0.0000
 49   -559.1938609962  -0.000173885906 0.00824086  0.00008622  0.0089813 0.0000
 50   -559.1940416608  -0.000180664624 0.00797786  0.00008338  0.0090098 0.0000
 51   -559.1942156825  -0.000174021613 0.00743587  0.00007765  0.0090376 0.0000
 52   -559.1943762653  -0.000160582862 0.00721665  0.00007529  0.0090637 0.0000
 53   -559.1945305363  -0.000154270972 0.00721723  0.00007522  0.0090891 0.0000
 54   -559.1946839730  -0.000153436661 0.00718540  0.00007482  0.0091147 0.0000
 55   -559.1948363311  -0.000152358192 0.00697982  0.00007262  0.0091404 0.0000
 56   -559.1949838683  -0.000147537134 0.00673822  0.00007005  0.0091656 0.0000
 57   -559.1951257465  -0.000141878212 0.00661011  0.00006867  0.0091901 0.0000
 58   -559.1952643815  -0.000138634963 0.00654187  0.00006791  0.0092143 0.0000
 59   -559.1954011749  -0.000136793446 0.00644316  0.00006684  0.0092385 0.0000
 60   -559.1955356369  -0.000134461994 0.00629543  0.00006526  0.0092625 0.0000
 61   -559.1956668278  -0.000131190863 0.00615386  0.00006376  0.0092861 0.0000
 62   -559.1957949159  -0.000128088117 0.00605076  0.00006266  0.0093094 0.0000
 63   -559.1959207380  -0.000125822095 0.00596053  0.00006169  0.0093325 0.0000
 64   -559.1960446211  -0.000123883130 0.00585686  0.00006059  0.0093554 0.0000
 65   -559.1961663570  -0.000121735867 0.00574270  0.00005938  0.0093781 0.0000
 66   -559.1962857873  -0.000119430363 0.00563631  0.00005826  0.0094006 0.0000
 67   -559.1964031162  -0.000117328847 0.00554237  0.00005727  0.0094229 0.0000
 68   -559.1965186388  -0.000115522608 0.00545075  0.00005630  0.0094450 0.0000
 69   -559.1966324443  -0.000113805481 0.00535521  0.00005530  0.0094669 0.0000
 70   -559.1967444939  -0.000112049646 0.00525904  0.00005430  0.0094887 0.0000
 71   -559.1968548138  -0.000110319911 0.00516740  0.00005334  0.0095102 0.0000
 72   -559.1969635314  -0.000108717528 0.00508000  0.00005243  0.0095317 0.0000
 73   -559.1970707652  -0.000107233854 0.00499342  0.00005153  0.0095529 0.0000
 74   -559.1971765624  -0.000105797163 0.00490656  0.00005064  0.0095740 0.0000
 75   -559.1972809459  -0.000104383554 0.00482096  0.00004975  0.0095950 0.0000
 76   -559.1973839689  -0.000103022993 0.00473781  0.00004890  0.0096158 0.0000
 77   -559.1974857073  -0.000101738375 0.00465655  0.00004807  0.0096365 0.0000
 78   -559.1975862234  -0.000100516073 0.00457617  0.00004724  0.0096570 0.0000
 79   -559.1976855569  -0.000099333525 0.00449660  0.00004643  0.0096775 0.0000
 80   -559.1977837449  -0.000098188013 0.00441836  0.00004564  0.0096978 0.0000
 81   -559.1978808344  -0.000097089480 0.00434168  0.00004486  0.0097179 0.0000
 82   -559.1979768753  -0.000096040878 0.00426624  0.00004410  0.0097380 0.0000
 83   -559.1980719100  -0.000095034736 0.00419179  0.00004335  0.0097579 0.0000
 84   -559.1981659741  -0.000094064153 0.00411838  0.00004261  0.0097778 0.0000
 85   -559.1982591032  -0.000093129076 0.00404615  0.00004189  0.0097975 0.0000
 86   -559.1983513350  -0.000092231730 0.00397510  0.00004118  0.0098172 0.0000
 87   -559.1984427061  -0.000091371144 0.00390512  0.00004049  0.0098367 0.0000
 88   -559.1985332499  -0.000090543813 0.00383614  0.00003980  0.0098561 0.0000
 89   -559.1986229973  -0.000089747352 0.00376820  0.00003913  0.0098755 0.0000
 90   -559.1987119787  -0.000088981456 0.00370131  0.00003847  0.0098948 0.0000
 91   -559.1988002247  -0.000088245996 0.00363545  0.00003782  0.0099140 0.0000
 92   -559.1988877644  -0.000087539709 0.00357060  0.00003719  0.0099331 0.0000
 93   -559.1989746253  -0.000086860866 0.00350671  0.00003657  0.0099521 0.0000
 94   -559.1990608336  -0.000086208319 0.00344381  0.00003595  0.0099711 0.0000
 95   -559.1991464151  -0.000085581505 0.00338188  0.00003535  0.0099899 0.0000
 96   -559.1992313949  -0.000084979764 0.00332091  0.00003477  0.0100088 0.0000
 97   -559.1993157970  -0.000084402120 0.00326089  0.00003419  0.0100275 0.0000
 98   -559.1993996446  -0.000083847564 0.00320181  0.00003362  0.0100462 0.0000
 99   -559.1994829599  -0.000083315332 0.00314365  0.00003307  0.0100649 0.0000
100   -559.1995657647  -0.000082804812 0.00308641  0.00003252  0.0100834 0.0000
101   -559.1996480801  -0.000082315354 0.00303009  0.00003199  0.0101020 0.0000
102   -559.1997299263  -0.000081846223 0.00297466  0.00003146  0.0101204 0.0000
103   -559.1998113230  -0.000081396730 0.00292013  0.00003095  0.0101389 0.0000
104   -559.1998922893  -0.000080966290 0.00286648  0.00003045  0.0101573 0.0000
105   -559.1999728437  -0.000080554352 0.00281371  0.00002996  0.0101756 0.0000
106   -559.2000530040  -0.000080160368 0.00276180  0.00002948  0.0101939 0.0000
107   -559.2001327878  -0.000079783784 0.00271075  0.00002900  0.0102122 0.0000
108   -559.2002122119  -0.000079424084 0.00266055  0.00002854  0.0102304 0.0000
109   -559.2002912927  -0.000079080792 0.00261118  0.00002809  0.0102486 0.0000
110   -559.2003700461  -0.000078753458 0.00256265  0.00002765  0.0102668 0.0000
111   -559.2004484878  -0.000078441641 0.00251494  0.00002721  0.0102849 0.0000
112   -559.2005266327  -0.000078144909 0.00247046  0.00002679  0.0103030 0.0000
113   -559.2006044956  -0.000077862865 0.00242858  0.00002638  0.0103211 0.0000
114   -559.2006820907  -0.000077595124 0.00238746  0.00002597  0.0103391 0.0000
115   -559.2007594320  -0.000077341332 0.00234710  0.00002558  0.0103572 0.0000
116   -559.2008365331  -0.000077101132 0.00230748  0.00002519  0.0103752 0.0000
117   -559.2009134073  -0.000076874197 0.00226861  0.00002482  0.0103932 0.0000
118   -559.2009900676  -0.000076660211 0.00223046  0.00002445  0.0104112 0.0000
119   -559.2010665264  -0.000076458876 0.00219304  0.00002409  0.0104292 0.0000
120   -559.2011427963  -0.000076269907 0.00215633  0.00002374  0.0104471 0.0000
121   -559.2012188894  -0.000076093033 0.00212031  0.00002340  0.0104651 0.0000
122   -559.2012948174  -0.000075928000 0.00208500  0.00002307  0.0104830 0.0000
123   -559.2013705919  -0.000075774564 0.00205036  0.00002274  0.0105010 0.0000
124   -559.2014462244  -0.000075632493 0.00201640  0.00002243  0.0105189 0.0000
125   -559.2015217260  -0.000075501576 0.00198310  0.00002212  0.0105368 0.0000
126   -559.2015971076  -0.000075381597 0.00195046  0.00002182  0.0105547 0.0000
127   -559.2016723800  -0.000075272373 0.00191847  0.00002153  0.0105727 0.0000
128   -559.2017475537  -0.000075173712 0.00188711  0.00002124  0.0105906 0.0000
129   -559.2018226391  -0.000075085450 0.00185638  0.00002097  0.0106085 0.0000
130   -559.2018976466  -0.000075007421 0.00182627  0.00002070  0.0106264 0.0000
131   -559.2019725860  -0.000074939474 0.00179677  0.00002044  0.0106444 0.0000
132   -559.2020474675  -0.000074881472 0.00176787  0.00002019  0.0106623 0.0000
133   -559.2021223008  -0.000074833278 0.00173956  0.00001995  0.0106802 0.0000
134   -559.2021970956  -0.000074794774 0.00171184  0.00001971  0.0106982 0.0000
135   -559.2022718614  -0.000074765844 0.00168469  0.00001948  0.0107161 0.0000
136   -559.2023466078  -0.000074746382 0.00165810  0.00001926  0.0107341 0.0000
137   -559.2024213441  -0.000074736295 0.00163208  0.00001905  0.0107520 0.0000
138   -559.2024960796  -0.000074735495 0.00160660  0.00001884  0.0107700 0.0000
139   -559.2025708235  -0.000074743900 0.00158166  0.00001864  0.0107880 0.0000
140   -559.2026455849  -0.000074761436 0.00155725  0.00001844  0.0108060 0.0000
141   -559.2027203729  -0.000074788040 0.00153336  0.00001826  0.0108240 0.0000
142   -559.2027951966  -0.000074823658 0.00150999  0.00001808  0.0108420 0.0000
143   -559.2028700648  -0.000074868233 0.00148712  0.00001790  0.0108600 0.0000
144   -559.2029449866  -0.000074921725 0.00146475  0.00001774  0.0108780 0.0000
145   -559.2030199707  -0.000074984096 0.00144287  0.00001758  0.0108961 0.0000
146   -559.2030950260  -0.000075055317 0.00142147  0.00001742  0.0109142 0.0000
147   -559.2031701613  -0.000075135363 0.00140055  0.00001728  0.0109322 0.0000
148   -559.2032453856  -0.000075224217 0.00138009  0.00001714  0.0109503 0.0000
149   -559.2033207074  -0.000075321869 0.00136008  0.00001700  0.0109684 0.0000
150   -559.2033961357  -0.000075428310 0.00134053  0.00001687  0.0109865 0.0000
151   -559.2034716793  -0.000075543544 0.00132143  0.00001675  0.0110046 0.0000
152   -559.2035473469  -0.000075667575 0.00130275  0.00001663  0.0110228 0.0000
153   -559.2036231473  -0.000075800416 0.00128451  0.00001652  0.0110409 0.0000
154   -559.2036990894  -0.000075942085 0.00126669  0.00001642  0.0110591 0.0000
155   -559.2037751820  -0.000076092604 0.00124928  0.00001632  0.0110772 0.0000
156   -559.2038514340  -0.000076252002 0.00123228  0.00001622  0.0110954 0.0000
157   -559.2039278543  -0.000076420315 0.00121568  0.00001613  0.0111136 0.0000
158   -559.2040044519  -0.000076597579 0.00119947  0.00001605  0.0111318 0.0000
159   -559.2040812357  -0.000076783840 0.00118365  0.00001597  0.0111500 0.0000
160   -559.2041582148  -0.000076979146 0.00116821  0.00001590  0.0111682 0.0000
161   -559.2042353984  -0.000077183557 0.00115315  0.00001583  0.0111864 0.0000
162   -559.2043127955  -0.000077397129 0.00113845  0.00001577  0.0112047 0.0000
163   -559.2043904155  -0.000077619928 0.00112411  0.00001571  0.0112420 0.0000
164   -559.2044682675  -0.000077852024 0.00111014  0.00001566  0.0112939 0.0000
165   -559.2045463610  -0.000078093495 0.00109651  0.00001561  0.0113454 0.0000
166   -559.2046247054  -0.000078344422 0.00108323  0.00001557  0.0113966 0.0000
167   -559.2047033103  -0.000078604888 0.00107028  0.00001553  0.0114474 0.0000
168   -559.2047821853  -0.000078874988 0.00105767  0.00001550  0.0114978 0.0000
169   -559.2048613401  -0.000079154814 0.00104539  0.00001547  0.0115478 0.0000
170   -559.2049407846  -0.000079444476 0.00103343  0.00001544  0.0115973 0.0000
171   -559.2050205286  -0.000079744077 0.00102179  0.00001542  0.0116464 0.0000
172   -559.2051005824  -0.000080053731 0.00101046  0.00001541  0.0116949 0.0000
173   -559.2051809559  -0.000080373557 0.00099943  0.00001539  0.0117430 0.0000
174   -559.2052616596  -0.000080703678 0.00098871  0.00001539  0.0117905 0.0000
175   -559.2053427038  -0.000081044227 0.00097829  0.00001538  0.0118374 0.0000
176   -559.2054240992  -0.000081395341 0.00096817  0.00001538  0.0118838 0.0000
177   -559.2055058563  -0.000081757162 0.00095833  0.00001539  0.0119295 0.0000
178   -559.2055879862  -0.000082129841 0.00094878  0.00001540  0.0119745 0.0000
179   -559.2056704997  -0.000082513529 0.00093951  0.00001541  0.0120189 0.0000
180   -559.2057534081  -0.000082908393 0.00093051  0.00001543  0.0120625 0.0000
181   -559.2058367227  -0.000083314603 0.00092179  0.00001545  0.0121054 0.0000
182   -559.2059204550  -0.000083732330 0.00091334  0.00001547  0.0121475 0.0000
183   -559.2060046168  -0.000084161765 0.00090515  0.00001550  0.0121888 0.0000
184   -559.2060892199  -0.000084603094 0.00089723  0.00001553  0.0122292 0.0000
185   -559.2061742764  -0.000085056522 0.00088956  0.00001557  0.0122687 0.0000
186   -559.2062597987  -0.000085522249 0.00088215  0.00001561  0.0123073 0.0000
187   -559.2063457992  -0.000086000503 0.00087499  0.00001565  0.0123449 0.0000
188   -559.2064322907  -0.000086491500 0.00086808  0.00001570  0.0123814 0.0000
189   -559.2065192861  -0.000086995479 0.00086142  0.00001575  0.0124169 0.0000
190   -559.2066067988  -0.000087512684 0.00085500  0.00001580  0.0124513 0.0000
191   -559.2066948422  -0.000088043371 0.00084882  0.00001586  0.0124845 0.0000
192   -559.2067834300  -0.000088587803 0.00084288  0.00001592  0.0125165 0.0000
193   -559.2068725763  -0.000089146263 0.00085314  0.00001599  0.0125473 0.0000
194   -559.2069622953  -0.000089719032 0.00086749  0.00001605  0.0125767 0.0000
195   -559.2070526017  -0.000090306417 0.00088207  0.00001613  0.0126048 0.0000
196   -559.2071435104  -0.000090908729 0.00089691  0.00001620  0.0126315 0.0000
197   -559.2072350367  -0.000091526298 0.00091200  0.00001628  0.0126566 0.0000
198   -559.2073271962  -0.000092159465 0.00092736  0.00001636  0.0126803 0.0000
199   -559.2074200048  -0.000092808587 0.00094298  0.00001645  0.0127023 0.0000
200   -559.2075134788  -0.000093474038 0.00095888  0.00001654  0.0127227 0.0000
201   -559.2076076350  -0.000094156208 0.00097506  0.00001663  0.0127414 0.0000
202   -559.2077024905  -0.000094855501 0.00099153  0.00001673  0.0127583 0.0000
203   -559.2077980629  -0.000095572350 0.00100830  0.00001683  0.0127734 0.0000
204   -559.2078943701  -0.000096307195 0.00102537  0.00001693  0.0127866 0.0000
205   -559.2079914306  -0.000097060506 0.00104276  0.00001704  0.0127978 0.0000
206   -559.2080892634  -0.000097832774 0.00106048  0.00001715  0.0128069 0.0000
207   -559.2081878879  -0.000098624505 0.00107852  0.00001727  0.0128140 0.0000
208   -559.2082873241  -0.000099436243 0.00109691  0.00001739  0.0128189 0.0000
209   -559.2083875927  -0.000100268550 0.00111566  0.00001751  0.0128216 0.0000
210   -559.2084887147  -0.000101122015 0.00113476  0.00001764  0.0128220 0.0000
211   -559.2085907119  -0.000101997261 0.00115425  0.00001777  0.0128200 0.0000
212   -559.2086936069  -0.000102894943 0.00117412  0.00001790  0.0128155 0.0000
213   -559.2087974226  -0.000103815746 0.00119439  0.00001804  0.0128086 0.0000
214   -559.2089021830  -0.000104760390 0.00121507  0.00001819  0.0127992 0.0000
215   -559.2090079127  -0.000105729641 0.00123618  0.00001834  0.0127871 0.0000
216   -559.2091146370  -0.000106724297 0.00125773  0.00001849  0.0127724 0.0000
217   -559.2092223822  -0.000107745208 0.00127974  0.00001865  0.0127549 0.0000
218   -559.2093311754  -0.000108793263 0.00130222  0.00001881  0.0127347 0.0000
219   -559.2094410448  -0.000109869413 0.00132520  0.00001898  0.0127117 0.0000
220   -559.2095520195  -0.000110974652 0.00134868  0.00001915  0.0126858 0.0000
221   -559.2096641295  -0.000112110042 0.00137269  0.00001933  0.0126570 0.0000
222   -559.2097774062  -0.000113276701 0.00139725  0.00001951  0.0126253 0.0000
223   -559.2098918821  -0.000114475832 0.00142238  0.00001970  0.0125906 0.0000
224   -559.2100075908  -0.000115708693 0.00144810  0.00001990  0.0125530 0.0000
225   -559.2101245674  -0.000116976637 0.00147444  0.00002010  0.0125123 0.0000
226   -559.2102428485  -0.000118281109 0.00150143  0.00002031  0.0124687 0.0000
227   -559.2103624722  -0.000119623650 0.00152909  0.00002052  0.0124220 0.0000
228   -559.2104834781  -0.000121005900 0.00155745  0.00002074  0.0123723 0.0000
229   -559.2106059077  -0.000122429636 0.00158655  0.00002097  0.0123323 0.0000
230   -559.2107298044  -0.000123896751 0.00161642  0.00002121  0.0123446 0.0000
231   -559.2108552137  -0.000125409293 0.00164710  0.00002145  0.0123567 0.0000
232   -559.2109821832  -0.000126969469 0.00167863  0.00002170  0.0123685 0.0000
233   -559.2111107629  -0.000128579659 0.00171105  0.00002196  0.0123799 0.0000
234   -559.2112410053  -0.000130242451 0.00174442  0.00002223  0.0123911 0.0000
235   -559.2113729660  -0.000131960656 0.00177877  0.00002251  0.0124019 0.0000
236   -559.2115067033  -0.000133737324 0.00181418  0.00002280  0.0124123 0.0000
237   -559.2116422791  -0.000135575797 0.00185069  0.00002309  0.0124224 0.0000
238   -559.2117797588  -0.000137479722 0.00188838  0.00002340  0.0124321 0.0000
239   -559.2119192119  -0.000139453111 0.00192733  0.00002373  0.0124414 0.0000
240   -559.2120607123  -0.000141500373 0.00196761  0.00002406  0.0124503 0.0000
241   -559.2122043387  -0.000143626372 0.00200932  0.00002441  0.0124587 0.0000
242   -559.2123501752  -0.000145836501 0.00205255  0.00002477  0.0124668 0.0000
243   -559.2124983119  -0.000148136744 0.00209742  0.00002515  0.0124743 0.0000
244   -559.2126488457  -0.000150533775 0.00214405  0.00002554  0.0124813 0.0000
245   -559.2128018807  -0.000153035056 0.00219258  0.00002596  0.0124878 0.0000
246   -559.2129575297  -0.000155648968 0.00224318  0.00002639  0.0124938 0.0000
247   -559.2131159147  -0.000158384962 0.00229602  0.00002685  0.0124992 0.0000
248   -559.2132771684  -0.000161253741 0.00235130  0.00002732  0.0125040 0.0000
249   -559.2134414359  -0.000164267483 0.00240926  0.00002783  0.0125082 0.0000
250   -559.2136088760  -0.000167440113 0.00247016  0.00002836  0.0125118 0.0000
251   -559.2137796637  -0.000170787651 0.00253431  0.00002892  0.0125146 0.0000
252   -559.2139539923  -0.000174328614 0.00260206  0.00002952  0.0125167 0.0000
253   -559.2141320768  -0.000178084567 0.00267385  0.00003016  0.0125180 0.0000
254   -559.2143141576  -0.000182080790 0.00275017  0.00003084  0.0125185 0.0000
255   -559.2145005048  -0.000186347129 0.00283160  0.00003157  0.0125181 0.0000
256   -559.2146914239  -0.000190919142 0.00291885  0.00003235  0.0125168 0.0000
257   -559.2148872635  -0.000195839560 0.00301278  0.00003320  0.0125145 0.0000
258   -559.2150884237  -0.000201160253 0.00311445  0.00003413  0.0125112 0.0000
259   -559.2152953686  -0.000206944896 0.00322516  0.00003514  0.0125066 0.0000
260   -559.2155086412  -0.000213272625 0.00334657  0.00003626  0.0125008 0.0000
261   -559.2157288844  -0.000220243139 0.00348077  0.00003751  0.0124937 0.0000
262   -559.2159568684  -0.000227984031 0.00363050  0.00003890  0.0124850 0.0000
263   -559.2161935298  -0.000236661432 0.00379941  0.00004049  0.0124747 0.0000
264   -559.2164400258  -0.000246496007 0.00399242  0.00004231  0.0124626 0.0000
265   -559.2166978134  -0.000257787537 0.00421641  0.00004443  0.0124483 0.0000
266   -559.2169687675  -0.000270954094 0.00448127  0.00004696  0.0124317 0.0000
267   -559.2172553641  -0.000286596618 0.00480170  0.00005003  0.0125032 0.0000
268   -559.2175609743  -0.000305610216 0.00520054  0.00005388  0.0125934 0.0000
269   -559.2178903599  -0.000329385634 0.00571508  0.00005887  0.0126812 0.0000
270   -559.2182505561  -0.000360196160 0.00641017  0.00006564  0.0127666 0.0000
271   -559.2186525512  -0.000401995079 0.00740752  0.00007538  0.0128498 0.0000
272   -559.2191147585  -0.000462207302 0.00895909  0.00009059  0.0129308 0.0000
273   -559.2196709688  -0.000556210312 0.01165695  0.00011708  0.0130096 0.0000
274   -559.2203911445  -0.000720175693 0.01714799  0.00017103  0.0130843 0.0000
275   -559.2214460742  -0.001054929737 0.03114025  0.00030870  0.0131458 0.0000
276   -559.2233585245  -0.001912450254 0.07747282  0.00077473  0.0131394 0.0000
277   -559.2281791160  -0.004820591509 0.16895084  0.00205558  0.0126533 0.0000
278   -559.2400409098  -0.011861793801 0.05830181  0.00110753  0.0100010 0.0000
279   -559.2443725295  -0.004331619684 0.01413207  0.00029442  0.0078378 0.0000
280   -559.2452876660  -0.000915136488 0.03116277  0.00063251  0.0068940 0.0000
281   -559.2465641544  -0.001276488426 0.02056089  0.00041827  0.0053883 0.0000
282   -559.2471392116  -0.000575057215 0.01445835  0.00014482  0.0042513 0.0000
283   -559.2473605511  -0.000221339495 0.01264547  0.00011569  0.0039925 0.0000
284   -559.2475270274  -0.000166476324 0.01274416  0.00012100  0.0039200 0.0000
285   -559.2476817278  -0.000154700410 0.01141105  0.00010955  0.0039008 0.0000
286   -559.2478156557  -0.000133927860 0.00916925  0.00009223  0.0038848 0.0000
287   -559.2479236910  -0.000108035301 0.00669636  0.00007164  0.0038833 0.0000
288   -559.2480066889  -0.000082997858 0.00444971  0.00005221  0.0038891 0.0000
289   -559.2480681399  -0.000061451058 0.00331756  0.00003940  0.0038991 0.0000
290   -559.2481158978  -0.000047757898 0.00294309  0.00003398  0.0039104 0.0000
291   -559.2481580369  -0.000042139103 0.00277140  0.00003139  0.0039219 0.0000
292   -559.2481976075  -0.000039570569 0.00264551  0.00002951  0.0039336 0.0000
293   -559.2482353480  -0.000037740558 0.00250133  0.00002754  0.0039454 0.0000
294   -559.2482710878  -0.000035739734 0.00234331  0.00002553  0.0039572 0.0000
295   -559.2483046951  -0.000033607296 0.00219285  0.00002369  0.0039690 0.0000
296   -559.2483363119  -0.000031616823 0.00205722  0.00002209  0.0039806 0.0000
297   -559.2483661660  -0.000029854098 0.00193638  0.00002070  0.0039921 0.0000
298   -559.2483944755  -0.000028309500 0.00182805  0.00001948  0.0040036 0.0000
299   -559.2484214222  -0.000026946704 0.00173023  0.00001841  0.0040149 0.0000
300   -559.2484471575  -0.000025735282 0.00164147  0.00001746  0.0040262 0.0000
301   -559.2484718108  -0.000024653303 0.00156057  0.00001661  0.0040374 0.0000
302   -559.2484954936  -0.000023682865 0.00148645  0.00001585  0.0040485 0.0000
303   -559.2485183019  -0.000022808257 0.00141819  0.00001516  0.0040596 0.0000
304   -559.2485403175  -0.000022015617 0.00135497  0.00001454  0.0040706 0.0000
305   -559.2485616108  -0.000021293235 0.00129616  0.00001397  0.0040816 0.0000
306   -559.2485822423  -0.000020631569 0.00124123  0.00001344  0.0040925 0.0000
307   -559.2486022652  -0.000020022884 0.00118973  0.00001296  0.0041034 0.0000
308   -559.2486217260  -0.000019460815 0.00114132  0.00001251  0.0041143 0.0000
309   -559.2486406661  -0.000018940036 0.00109568  0.00001209  0.0041251 0.0000
310   -559.2486591221  -0.000018456022 0.00105254  0.00001171  0.0041358 0.0000
311   -559.2486771270  -0.000018004911 0.00101167  0.00001134  0.0041466 0.0000
312   -559.2486947104  -0.000017583399 0.00097289  0.00001101  0.0041572 0.0000
313   -559.2487118990  -0.000017188633 0.00093602  0.00001069  0.0041679 0.0000
314   -559.2487287172  -0.000016818142 0.00090090  0.00001039  0.0041785 0.0000
315   -559.2487451869  -0.000016469769 0.00086741  0.00001011  0.0041890 0.0000
316   -559.2487613285  -0.000016141615 0.00083542  0.00000984  0.0041995 0.0000
317   -559.2487771606  -0.000015832017 0.00080484  0.00000959  0.0042100 0.0000
318   -559.2487927001  -0.000015539489 0.00077556  0.00000936  0.0042204 0.0000
319   -559.2488079628  -0.000015262715 0.00074750  0.00000913  0.0042308 0.0000
320   -559.2488229633  -0.000015000522 0.00072059  0.00000892  0.0042411 0.0000
321   -559.2488377151  -0.000014751852 0.00069476  0.00000872  0.0042514 0.0000
322   -559.2488522309  -0.000014515756 0.00066993  0.00000852  0.0042616 0.0000
323   -559.2488665223  -0.000014291383 0.00064607  0.00000834  0.0042718 0.0000
324   -559.2488806002  -0.000014077950 0.00062310  0.00000817  0.0042819 0.0000
325   -559.2488944750  -0.000013874760 0.00060099  0.00000800  0.0042919 0.0000
326   -559.2489081562  -0.000013681166 0.00057969  0.00000784  0.0043019 0.0000
327   -559.2489216527  -0.000013496587 0.00055916  0.00000769  0.0043119 0.0000
328   -559.2489349732  -0.000013320488 0.00053936  0.00000755  0.0043218 0.0000
329   -559.2489481256  -0.000013152374 0.00052025  0.00000741  0.0043316 0.0000
330   -559.2489611174  -0.000012991797 0.00050180  0.00000728  0.0043414 0.0000
331   -559.2489739557  -0.000012838343 0.00048398  0.00000715  0.0043511 0.0000
332   -559.2489866474  -0.000012691628 0.00046676  0.00000703  0.0043607 0.0000
333   -559.2489991987  -0.000012551294 0.00045012  0.00000692  0.0043703 0.0000
334   -559.2490116157  -0.000012417020 0.00043403  0.00000681  0.0043798 0.0000
335   -559.2490239042  -0.000012288498 0.00041846  0.00000671  0.0043893 0.0000
336   -559.2490360696  -0.000012165445 0.00040339  0.00000661  0.0043986 0.0000
337   -559.2490481172  -0.000012047601 0.00038881  0.00000651  0.0044080 0.0000
338   -559.2490600520  -0.000011934723 0.00037469  0.00000642  0.0044172 0.0000
339   -559.2490718785  -0.000011826578 0.00036102  0.00000633  0.0044264 0.0000
340   -559.2490836015  -0.000011722958 0.00034777  0.00000625  0.0044355 0.0000
341   -559.2490952252  -0.000011623665 0.00033493  0.00000617  0.0044446 0.0000
342   -559.2491067537  -0.000011528508 0.00032248  0.00000609  0.0044535 0.0000
343   -559.2491181910  -0.000011437318 0.00031042  0.00000601  0.0044624 0.0000
344   -559.2491295409  -0.000011349930 0.00029872  0.00000594  0.0044713 0.0000
345   -559.2491408071  -0.000011266189 0.00029376  0.00000588  0.0044800 0.0000
346   -559.2491519931  -0.000011185953 0.00029040  0.00000581  0.0044887 0.0000
347   -559.2491631021  -0.000011109087 0.00028714  0.00000575  0.0044974 0.0000
348   -559.2491741376  -0.000011035465 0.00028398  0.00000569  0.0045059 0.0000
349   -559.2491851026  -0.000010964965 0.00028091  0.00000564  0.0045144 0.0000
350   -559.2491960000  -0.000010897474 0.00027792  0.00000558  0.0045228 0.0000
351   -559.2492068329  -0.000010832887 0.00027503  0.00000553  0.0045311 0.0000
352   -559.2492176040  -0.000010771104 0.00027221  0.00000548  0.0045393 0.0000
353   -559.2492283161  -0.000010712030 0.00026948  0.00000543  0.0045475 0.0000
354   -559.2492389716  -0.000010655575 0.00026682  0.00000539  0.0045556 0.0000
355   -559.2492495733  -0.000010601656 0.00026424  0.00000535  0.0045636 0.0000
356   -559.2492601235  -0.000010550191 0.00026173  0.00000531  0.0045715 0.0000
357   -559.2492706246  -0.000010501107 0.00025929  0.00000527  0.0045794 0.0000
358   -559.2492810789  -0.000010454333 0.00025692  0.00000523  0.0045871 0.0000
359   -559.2492914887  -0.000010409798 0.00025462  0.00000519  0.0045948 0.0000
360   -559.2493018562  -0.000010367443 0.00025238  0.00000516  0.0046024 0.0000
361   -559.2493121834  -0.000010327202 0.00025020  0.00000513  0.0046100 0.0000
362   -559.2493224724  -0.000010289022 0.00024808  0.00000510  0.0046174 0.0000
363   -559.2493327252  -0.000010252850 0.00024603  0.00000507  0.0046248 0.0000
364   -559.2493429439  -0.000010218629 0.00024403  0.00000504  0.0046321 0.0000
365   -559.2493531302  -0.000010186316 0.00024209  0.00000502  0.0046393 0.0000
366   -559.2493632861  -0.000010155863 0.00024020  0.00000499  0.0046465 0.0000
367   -559.2493734133  -0.000010127225 0.00023836  0.00000497  0.0046535 0.0000
368   -559.2493835136  -0.000010100363 0.00023657  0.00000495  0.0046605 0.0000
369   -559.2493935889  -0.000010075237 0.00023484  0.00000492  0.0046674 0.0000
370   -559.2494036407  -0.000010051810 0.00023315  0.00000491  0.0046742 0.0000
371   -559.2494136707  -0.000010030048 0.00023151  0.00000489  0.0046809 0.0000
372   -559.2494236807  -0.000010009918 0.00022992  0.00000487  0.0046875 0.0000
373   -559.2494336720  -0.000009991388 0.00022837  0.00000485  0.0046941 0.0000
374   -559.2494436465  -0.000009974427 0.00022686  0.00000484  0.0047006 0.0000
375   -559.2494536055  -0.000009959012 0.00022540  0.00000482  0.0047070 0.0000
376   -559.2494635506  -0.000009945109 0.00022398  0.00000481  0.0047133 0.0000
377   -559.2494734833  -0.000009932701 0.00022260  0.00000480  0.0047195 0.0000
378   -559.2494834051  -0.000009921763 0.00022126  0.00000479  0.0047256 0.0000
379   -559.2494933173  -0.000009912270 0.00021995  0.00000478  0.0047317 0.0000
380   -559.2495032215  -0.000009904204 0.00021869  0.00000477  0.0047377 0.0000
381   -559.2495131191  -0.000009897545 0.00021746  0.00000476  0.0047435 0.0000
382   -559.2495230114  -0.000009892276 0.00021627  0.00000475  0.0047493 0.0000
383   -559.2495328997  -0.000009888377 0.00021511  0.00000474  0.0047551 0.0000
384   -559.2495427856  -0.000009885836 0.00021399  0.00000474  0.0047607 0.0000
385   -559.2495526702  -0.000009884638 0.00021290  0.00000473  0.0047662 0.0000
386   -559.2495625550  -0.000009884766 0.00021184  0.00000473  0.0047717 0.0000
387   -559.2495724412  -0.000009886214 0.00021082  0.00000472  0.0047771 0.0000
388   -559.2495823301  -0.000009888963 0.00020983  0.00000472  0.0047824 0.0000
389   -559.2495922232  -0.000009893007 0.00020887  0.00000472  0.0047876 0.0000
390   -559.2496021215  -0.000009898336 0.00020793  0.00000472  0.0047927 0.0000
391   -559.2496120264  -0.000009904939 0.00020703  0.00000471  0.0047977 0.0000
392   -559.2496219392  -0.000009912812 0.00020616  0.00000471  0.0048027 0.0000
393   -559.2496318612  -0.000009921943 0.00020531  0.00000471  0.0048076 0.0000
394   -559.2496417935  -0.000009932332 0.00020450  0.00000471  0.0048123 0.0000
395   -559.2496517375  -0.000009943969 0.00020371  0.00000472  0.0048170 0.0000
396   -559.2496616943  -0.000009956847 0.00020294  0.00000472  0.0048216 0.0000
397   -559.2496716653  -0.000009970968 0.00020221  0.00000472  0.0048261 0.0000
398   -559.2496816516  -0.000009986328 0.00020150  0.00000472  0.0048306 0.0000
399   -559.2496916545  -0.000010002920 0.00020081  0.00000473  0.0048349 0.0000
400   -559.2497016753  -0.000010020746 0.00020015  0.00000473  0.0048392 0.0000
401   -559.2497117151  -0.000010039803 0.00019951  0.00000474  0.0048433 0.0000
402   -559.2497217752  -0.000010060091 0.00019890  0.00000474  0.0048474 0.0000
403   -559.2497318568  -0.000010081610 0.00019831  0.00000475  0.0048514 0.0000
404   -559.2497419612  -0.000010104362 0.00019774  0.00000475  0.0048553 0.0000
405   -559.2497520895  -0.000010128342 0.00019720  0.00000476  0.0048591 0.0000
406   -559.2497622431  -0.000010153561 0.00019668  0.00000477  0.0048628 0.0000
407   -559.2497724231  -0.000010180015 0.00019618  0.00000477  0.0048665 0.0000
408   -559.2497826308  -0.000010207706 0.00019570  0.00000478  0.0048700 0.0000
409   -559.2497928674  -0.000010236641 0.00019524  0.00000479  0.0048735 0.0000
410   -559.2498031342  -0.000010266821 0.00019625  0.00000480  0.0048769 0.0000
411   -559.2498134325  -0.000010298249 0.00019730  0.00000481  0.0048801 0.0000
412   -559.2498237634  -0.000010330932 0.00019836  0.00000482  0.0048833 0.0000
413   -559.2498341283  -0.000010364872 0.00019945  0.00000483  0.0048864 0.0000
414   -559.2498445284  -0.000010400077 0.00020054  0.00000484  0.0048894 0.0000
415   -559.2498549649  -0.000010436550 0.00020166  0.00000486  0.0048923 0.0000
416   -559.2498654392  -0.000010474294 0.00020278  0.00000487  0.0048952 0.0000
417   -559.2498759525  -0.000010513319 0.00020393  0.00000488  0.0048979 0.0000
418   -559.2498865062  -0.000010553629 0.00020509  0.00000490  0.0049005 0.0000
419   -559.2498971014  -0.000010595232 0.00020627  0.00000491  0.0049031 0.0000
420   -559.2499077395  -0.000010638129 0.00020747  0.00000492  0.0049055 0.0000
421   -559.2499184219  -0.000010682332 0.00020869  0.00000494  0.0049079 0.0000
422   -559.2499291497  -0.000010727843 0.00020992  0.00000495  0.0049102 0.0000
423   -559.2499399244  -0.000010774668 0.00021117  0.00000497  0.0049124 0.0000
424   -559.2499507472  -0.000010822817 0.00021244  0.00000499  0.0049144 0.0000
425   -559.2499616195  -0.000010872292 0.00021373  0.00000500  0.0049164 0.0000
426   -559.2499725426  -0.000010923099 0.00021503  0.00000502  0.0049183 0.0000
427   -559.2499835178  -0.000010975245 0.00021636  0.00000504  0.0049201 0.0000
428   -559.2499945466  -0.000011028733 0.00021771  0.00000506  0.0049218 0.0000
429   -559.2500056301  -0.000011083569 0.00021907  0.00000507  0.0049234 0.0000
430   -559.2500167699  -0.000011139756 0.00022045  0.00000509  0.0049249 0.0000
431   -559.2500279672  -0.000011197298 0.00022186  0.00000511  0.0049263 0.0000
432   -559.2500392234  -0.000011256201 0.00022328  0.00000513  0.0049276 0.0000
433   -559.2500505398  -0.000011316461 0.00022472  0.00000515  0.0049288 0.0000
434   -559.2500619179  -0.000011378086 0.00022619  0.00000517  0.0049299 0.0000
435   -559.2500733590  -0.000011441072 0.00022767  0.00000520  0.0049309 0.0000
436   -559.2500848644  -0.000011505418 0.00022918  0.00000522  0.0049318 0.0000
437   -559.2500964355  -0.000011571127 0.00023070  0.00000524  0.0049326 0.0000
438   -559.2501080737  -0.000011638196 0.00023224  0.00000526  0.0049333 0.0000
439   -559.2501197804  -0.000011706617 0.00023381  0.00000529  0.0049339 0.0000
440   -559.2501315567  -0.000011776389 0.00023539  0.00000531  0.0049344 0.0000
441   -559.2501434043  -0.000011847505 0.00023699  0.00000533  0.0049347 0.0000
442   -559.2501553242  -0.000011919956 0.00023862  0.00000536  0.0049350 0.0000
443   -559.2501673179  -0.000011993734 0.00024026  0.00000538  0.0049352 0.0000
444   -559.2501793868  -0.000012068825 0.00024192  0.00000541  0.0049352 0.0000
445   -559.2501915320  -0.000012145221 0.00024361  0.00000543  0.0049352 0.0000
446   -559.2502037549  -0.000012222901 0.00024531  0.00000546  0.0049350 0.0000
447   -559.2502160567  -0.000012301855 0.00024703  0.00000549  0.0049348 0.0000
448   -559.2502284388  -0.000012382057 0.00024876  0.00000551  0.0049344 0.0000
449   -559.2502409023  -0.000012463496 0.00025052  0.00000554  0.0049339 0.0000
450   -559.2502534484  -0.000012546139 0.00025229  0.00000557  0.0049333 0.0000
451   -559.2502660784  -0.000012629964 0.00025408  0.00000559  0.0049326 0.0000
452   -559.2502787933  -0.000012714945 0.00025589  0.00000562  0.0049317 0.0000
453   -559.2502915944  -0.000012801054 0.00025771  0.00000565  0.0049308 0.0000
454   -559.2503044827  -0.000012888253 0.00025955  0.00000568  0.0049297 0.0000
455   -559.2503174592  -0.000012976512 0.00026140  0.00000571  0.0049285 0.0000
456   -559.2503305250  -0.000013065793 0.00026327  0.00000574  0.0049272 0.0000
457   -559.2503436810  -0.000013156055 0.00026515  0.00000577  0.0049258 0.0000
458   -559.2503569283  -0.000013247257 0.00026704  0.00000580  0.0049243 0.0000
459   -559.2503702676  -0.000013339355 0.00026894  0.00000583  0.0049226 0.0000
460   -559.2503836999  -0.000013432304 0.00027085  0.00000585  0.0049208 0.0000
461   -559.2503972260  -0.000013526051 0.00027277  0.00000588  0.0049189 0.0000
462   -559.2504108465  -0.000013620551 0.00027470  0.00000591  0.0049169 0.0000
463   -559.2504245623  -0.000013715748 0.00027664  0.00000594  0.0049147 0.0000
464   -559.2504383739  -0.000013811586 0.00027858  0.00000597  0.0049125 0.0000
465   -559.2504522819  -0.000013908014 0.00028053  0.00000600  0.0049100 0.0000
466   -559.2504662868  -0.000014004966 0.00028249  0.00000603  0.0049075 0.0000
467   -559.2504803892  -0.000014102394 0.00028445  0.00000606  0.0049048 0.0000
468   -559.2504945895  -0.000014200227 0.00028640  0.00000610  0.0049021 0.0000
469   -559.2505088879  -0.000014298409 0.00028837  0.00000612  0.0048991 0.0000
470   -559.2505232848  -0.000014396877 0.00029033  0.00000615  0.0048961 0.0000
471   -559.2505377803  -0.000014495573 0.00029228  0.00000618  0.0048929 0.0000
472   -559.2505523748  -0.000014594426 0.00029424  0.00000621  0.0048896 0.0000
473   -559.2505670681  -0.000014693384 0.00029619  0.00000624  0.0048861 0.0000
474   -559.2505818605  -0.000014792380 0.00029814  0.00000627  0.0048825 0.0000
475   -559.2505967519  -0.000014891350 0.00030009  0.00000630  0.0048788 0.0000
476   -559.2506117421  -0.000014990239 0.00030202  0.00000633  0.0048750 0.0000
477   -559.2506268311  -0.000015088990 0.00030395  0.00000636  0.0048710 0.0000
478   -559.2506420186  -0.000015187541 0.00030587  0.00000639  0.0048669 0.0000
479   -559.2506573045  -0.000015285838 0.00030779  0.00000642  0.0048626 0.0000
480   -559.2506726883  -0.000015383832 0.00030969  0.00000644  0.0048582 0.0000
481   -559.2506881698  -0.000015481469 0.00031158  0.00000647  0.0048537 0.0000
482   -559.2507037485  -0.000015578700 0.00031346  0.00000650  0.0048491 0.0000
483   -559.2507194240  -0.000015675483 0.00031532  0.00000653  0.0048443 0.0000
484   -559.2507351957  -0.000015771775 0.00031718  0.00000655  0.0048393 0.0000
485   -559.2507510633  -0.000015867533 0.00031902  0.00000658  0.0048343 0.0000
486   -559.2507670260  -0.000015962727 0.00032085  0.00000660  0.0048291 0.0000
487   -559.2507830833  -0.000016057319 0.00032266  0.00000663  0.0048237 0.0000
488   -559.2507992346  -0.000016151282 0.00032446  0.00000665  0.0048182 0.0000
489   -559.2508154792  -0.000016244592 0.00032624  0.00000668  0.0048126 0.0000
490   -559.2508318164  -0.000016337222 0.00032801  0.00000670  0.0048069 0.0000
491   -559.2508482456  -0.000016429152 0.00032977  0.00000673  0.0048010 0.0000
492   -559.2508647659  -0.000016520374 0.00033151  0.00000675  0.0047950 0.0000
493   -559.2508813768  -0.000016610867 0.00033324  0.00000677  0.0047888 0.0000
494   -559.2508980774  -0.000016700623 0.00033495  0.00000680  0.0047825 0.0000
495   -559.2509148671  -0.000016789634 0.00033664  0.00000682  0.0047761 0.0000
496   -559.2509317450  -0.000016877899 0.00033832  0.00000684  0.0047695 0.0000
497   -559.2509487104  -0.000016965412 0.00033999  0.00000686  0.0047628 0.0000
498   -559.2509657625  -0.000017052174 0.00034165  0.00000689  0.0047560 0.0000
499   -559.2509829007  -0.000017138187 0.00034329  0.00000691  0.0047490 0.0000
500   -559.2510001242  -0.000017223456 0.00034492  0.00000693  0.0047419 0.0000
501   -559.2510174322  -0.000017307986 0.00034653  0.00000695  0.0047346 0.0000
502   -559.2510348239  -0.000017391781 0.00034814  0.00000697  0.0047273 0.0000
503   -559.2510522988  -0.000017474853 0.00034973  0.00000699  0.0047198 0.0000
504   -559.2510698560  -0.000017557207 0.00035131  0.00000701  0.0047121 0.0000
505   -559.2510874949  -0.000017638852 0.00035288  0.00000703  0.0047044 0.0000
506   -559.2511052147  -0.000017719801 0.00035443  0.00000705  0.0046965 0.0000
507   -559.2511230147  -0.000017800055 0.00035598  0.00000707  0.0046884 0.0000
508   -559.2511408943  -0.000017879630 0.00035752  0.00000708  0.0046803 0.0000
509   -559.2511588529  -0.000017958531 0.00035905  0.00000710  0.0046720 0.0000
510   -559.2511768896  -0.000018036766 0.00036057  0.00000712  0.0046635 0.0000
511   -559.2511950040  -0.000018114344 0.00036208  0.00000714  0.0046550 0.0000
512   -559.2512131953  -0.000018191264 0.00036358  0.00000716  0.0046463 0.0000
513   -559.2512314628  -0.000018267536 0.00036508  0.00000717  0.0046375 0.0000
514   -559.2512498059  -0.000018343162 0.00036657  0.00000719  0.0046285 0.0000
515   -559.2512682241  -0.000018418138 0.00036805  0.00000721  0.0046195 0.0000
516   -559.2512867166  -0.000018492469 0.00036952  0.00000723  0.0046103 0.0000
517   -559.2513052827  -0.000018566148 0.00037098  0.00000724  0.0046010 0.0000
518   -559.2513239219  -0.000018639174 0.00037244  0.00000726  0.0045915 0.0000
519   -559.2513426334  -0.000018711535 0.00037389  0.00000728  0.0045819 0.0000
520   -559.2513614166  -0.000018783225 0.00037534  0.00000729  0.0045722 0.0000
521   -559.2513802709  -0.000018854231 0.00037677  0.00000731  0.0045624 0.0000
522   -559.2513991954  -0.000018924535 0.00037820  0.00000732  0.0045524 0.0000
523   -559.2514181895  -0.000018994127 0.00037962  0.00000734  0.0045424 0.0000
524   -559.2514372525  -0.000019062980 0.00038103  0.00000736  0.0045322 0.0000
525   -559.2514563836  -0.000019131076 0.00038244  0.00000737  0.0045219 0.0000
526   -559.2514755820  -0.000019198388 0.00038384  0.00000739  0.0045114 0.0000
527   -559.2514948469  -0.000019264886 0.00038522  0.00000740  0.0045008 0.0000
528   -559.2515141774  -0.000019330541 0.00038660  0.00000742  0.0044902 0.0000
529   -559.2515335727  -0.000019395321 0.00038797  0.00000743  0.0044793 0.0000
530   -559.2515530319  -0.000019459182 0.00038933  0.00000745  0.0044684 0.0000
531   -559.2515725540  -0.000019522089 0.00039068  0.00000746  0.0044574 0.0000
532   -559.2515921380  -0.000019583997 0.00039201  0.00000747  0.0044462 0.0000
533   -559.2516117829  -0.000019644860 0.00039333  0.00000749  0.0044349 0.0000
534   -559.2516314875  -0.000019704627 0.00039464  0.00000750  0.0044235 0.0000
535   -559.2516512507  -0.000019763247 0.00039593  0.00000751  0.0044120 0.0000
536   -559.2516710714  -0.000019820660 0.00039721  0.00000753  0.0044004 0.0000
537   -559.2516909482  -0.000019876813 0.00039847  0.00000754  0.0043886 0.0000
538   -559.2517108798  -0.000019931638 0.00039972  0.00000755  0.0043768 0.0000
539   -559.2517308649  -0.000019985073 0.00040094  0.00000756  0.0043648 0.0000
540   -559.2517509020  -0.000020037044 0.00040214  0.00000757  0.0043527 0.0000
541   -559.2517709894  -0.000020087486 0.00040333  0.00000759  0.0043405 0.0000
542   -559.2517911258  -0.000020136319 0.00040448  0.00000760  0.0043282 0.0000
543   -559.2518113092  -0.000020183465 0.00040562  0.00000761  0.0043158 0.0000
544   -559.2518315381  -0.000020228846 0.00040673  0.00000762  0.0043033 0.0000
545   -559.2518518104  -0.000020272372 0.00040780  0.00000762  0.0042907 0.0000
546   -559.2518721244  -0.000020313959 0.00040885  0.00000763  0.0042779 0.0000
547   -559.2518924779  -0.000020353515 0.00040987  0.00000764  0.0042651 0.0000
548   -559.2519128689  -0.000020390949 0.00041086  0.00000765  0.0042522 0.0000
549   -559.2519332950  -0.000020426162 0.00041180  0.00000766  0.0042391 0.0000
550   -559.2519537541  -0.000020459057 0.00041271  0.00000766  0.0042260 0.0000
551   -559.2519742436  -0.000020489533 0.00041359  0.00000767  0.0042127 0.0000
552   -559.2519947611  -0.000020517486 0.00041442  0.00000767  0.0041994 0.0000
553   -559.2520153039  -0.000020542807 0.00041520  0.00000768  0.0041860 0.0000
554   -559.2520358693  -0.000020565393 0.00041594  0.00000768  0.0041725 0.0000
555   -559.2520564544  -0.000020585130 0.00041663  0.00000768  0.0041589 0.0000
556   -559.2520770563  -0.000020601910 0.00041727  0.00000768  0.0041452 0.0000
557   -559.2520976720  -0.000020615617 0.00041786  0.00000768  0.0041314 0.0000
558   -559.2521182981  -0.000020626143 0.00041839  0.00000768  0.0041175 0.0000
559   -559.2521389315  -0.000020633365 0.00041886  0.00000768  0.0041036 0.0000
560   -559.2521595686  -0.000020637176 0.00041927  0.00000768  0.0040895 0.0000
561   -559.2521802061  -0.000020637456 0.00041962  0.00000767  0.0040754 0.0000
562   -559.2522008402  -0.000020634094 0.00041990  0.00000767  0.0040613 0.0000
563   -559.2522214672  -0.000020626973 0.00042011  0.00000766  0.0040470 0.0000
564   -559.2522420831  -0.000020615981 0.00042025  0.00000766  0.0040327 0.0000
565   -559.2522626842  -0.000020601011 0.00042032  0.00000765  0.0040183 0.0000
566   -559.2522832661  -0.000020581949 0.00042032  0.00000764  0.0040038 0.0000
567   -559.2523038248  -0.000020558694 0.00042023  0.00000763  0.0039893 0.0000
568   -559.2523243559  -0.000020531141 0.00042006  0.00000761  0.0039748 0.0000
569   -559.2523448551  -0.000020499195 0.00041981  0.00000760  0.0039601 0.0000
570   -559.2523653179  -0.000020462757 0.00041948  0.00000758  0.0039455 0.0000
571   -559.2523857396  -0.000020421745 0.00041905  0.00000757  0.0039308 0.0000
572   -559.2524061157  -0.000020376071 0.00041854  0.00000755  0.0039160 0.0000
573   -559.2524264414  -0.000020325666 0.00041793  0.00000753  0.0039012 0.0000
574   -559.2524467118  -0.000020270458 0.00041723  0.00000751  0.0038863 0.0000
575   -559.2524669222  -0.000020210386 0.00041644  0.00000749  0.0038715 0.0000
576   -559.2524870676  -0.000020145404 0.00041555  0.00000746  0.0038566 0.0000
577   -559.2525071431  -0.000020075464 0.00041456  0.00000744  0.0038416 0.0000
578   -559.2525271436  -0.000020000540 0.00041347  0.00000741  0.0038267 0.0000
579   -559.2525470642  -0.000019920609 0.00041228  0.00000738  0.0038117 0.0000
580   -559.2525668999  -0.000019835662 0.00041099  0.00000735  0.0037967 0.0000
581   -559.2525866456  -0.000019745704 0.00040960  0.00000731  0.0037817 0.0000
582   -559.2526062964  -0.000019650748 0.00040811  0.00000728  0.0037667 0.0000
583   -559.2526258472  -0.000019550825 0.00040651  0.00000724  0.0037517 0.0000
584   -559.2526452932  -0.000019445978 0.00040482  0.00000721  0.0037367 0.0000
585   -559.2526646294  -0.000019336263 0.00040302  0.00000717  0.0037217 0.0000
586   -559.2526838512  -0.000019221750 0.00040113  0.00000713  0.0037067 0.0000
587   -559.2527029537  -0.000019102525 0.00039914  0.00000708  0.0036917 0.0000
588   -559.2527219324  -0.000018978686 0.00039705  0.00000704  0.0036767 0.0000
589   -559.2527407827  -0.000018850349 0.00039486  0.00000699  0.0036617 0.0000
590   -559.2527595004  -0.000018717643 0.00039259  0.00000695  0.0036468 0.0000
591   -559.2527780811  -0.000018580712 0.00039022  0.00000690  0.0036319 0.0000
592   -559.2527965208  -0.000018439707 0.00038777  0.00000685  0.0036170 0.0000
593   -559.2528148156  -0.000018294807 0.00038524  0.00000680  0.0036021 0.0000
594   -559.2528329618  -0.000018146190 0.00038262  0.00000675  0.0035872 0.0000
595   -559.2528509558  -0.000017994053 0.00037993  0.00000669  0.0035724 0.0000
596   -559.2528687944  -0.000017838607 0.00037716  0.00000664  0.0035576 0.0000
597   -559.2528864745  -0.000017680067 0.00037433  0.00000658  0.0035429 0.0000
598   -559.2529039932  -0.000017518669 0.00037143  0.00000653  0.0035282 0.0000
599   -559.2529213478  -0.000017354644 0.00036847  0.00000647  0.0035135 0.0000
600   -559.2529385361  -0.000017188245 0.00036546  0.00000641  0.0034989 0.0000
601   -559.2529555558  -0.000017019725 0.00036240  0.00000635  0.0034843 0.0000
602   -559.2529724051  -0.000016849348 0.00035930  0.00000630  0.0034697 0.0000
603   -559.2529890825  -0.000016677376 0.00035615  0.00000624  0.0034552 0.0000
604   -559.2530055866  -0.000016504088 0.00035298  0.00000618  0.0034407 0.0000
605   -559.2530219164  -0.000016329751 0.00034977  0.00000611  0.0034262 0.0000
606   -559.2530380710  -0.000016154651 0.00034655  0.00000605  0.0034118 0.0000
607   -559.2530540501  -0.000015979062 0.00034331  0.00000599  0.0033974 0.0000
608   -559.2530698533  -0.000015803267 0.00034006  0.00000593  0.0033830 0.0000
609   -559.2530854809  -0.000015627544 0.00033680  0.00000587  0.0033687 0.0000
610   -559.2531009331  -0.000015452178 0.00033355  0.00000581  0.0033543 0.0000
611   -559.2531162105  -0.000015277444 0.00033030  0.00000575  0.0033400 0.0000
612   -559.2531313141  -0.000015103618 0.00032707  0.00000569  0.0033258 0.0000
613   -559.2531462451  -0.000014930978 0.00032386  0.00000563  0.0033115 0.0000
614   -559.2531610049  -0.000014759792 0.00032067  0.00000557  0.0032972 0.0000
615   -559.2531755952  -0.000014590336 0.00031752  0.00000552  0.0032830 0.0000
616   -559.2531900181  -0.000014422869 0.00031440  0.00000546  0.0032687 0.0000
617   -559.2532042758  -0.000014257661 0.00031133  0.00000540  0.0032631 0.0000
618   -559.2532183707  -0.000014094972 0.00030831  0.00000535  0.0032579 0.0000
619   -559.2532323058  -0.000013935057 0.00030534  0.00000529  0.0032523 0.0000
620   -559.2532460840  -0.000013778179 0.00030243  0.00000524  0.0032463 0.0000
621   -559.2532597086  -0.000013624595 0.00029960  0.00000519  0.0032399 0.0000
622   -559.2532731831  -0.000013474555 0.00029683  0.00000514  0.0032331 0.0000
623   -559.2532865114  -0.000013328326 0.00029415  0.00000509  0.0032259 0.0000
624   -559.2532996976  -0.000013186159 0.00029155  0.00000504  0.0032182 0.0000
625   -559.2533127459  -0.000013048321 0.00028905  0.00000499  0.0032102 0.0000
626   -559.2533256610  -0.000012915082 0.00028664  0.00000495  0.0032016 0.0000
627   -559.2533384477  -0.000012786716 0.00028434  0.00000491  0.0031926 0.0000
628   -559.2533511112  -0.000012663511 0.00028216  0.00000487  0.0031831 0.0000
629   -559.2533636570  -0.000012545766 0.00028010  0.00000483  0.0031732 0.0000
630   -559.2533760908  -0.000012433797 0.00027816  0.00000480  0.0031627 0.0000
631   -559.2533884187  -0.000012327938 0.00027637  0.00000476  0.0031516 0.0000
632   -559.2534006473  -0.000012228552 0.00027473  0.00000473  0.0031400 0.0000
633   -559.2534127833  -0.000012136027 0.00027324  0.00000471  0.0031279 0.0000
634   -559.2534248341  -0.000012050795 0.00027193  0.00000468  0.0031151 0.0000
635   -559.2534368074  -0.000011973327 0.00027080  0.00000466  0.0031017 0.0000
636   -559.2534487116  -0.000011904150 0.00026988  0.00000464  0.0030877 0.0000
637   -559.2534605554  -0.000011843859 0.00026916  0.00000463  0.0030730 0.0000
638   -559.2534723486  -0.000011793128 0.00026869  0.00000462  0.0030576 0.0000
639   -559.2534841013  -0.000011752731 0.00026847  0.00000461  0.0030414 0.0000
640   -559.2534958249  -0.000011723560 0.00026853  0.00000461  0.0030245 0.0000
641   -559.2535075315  -0.000011706660 0.00026890  0.00000462  0.0030068 0.0000
642   -559.2535192348  -0.000011703261 0.00026963  0.00000463  0.0029881 0.0000
643   -559.2535309496  -0.000011714823 0.00027074  0.00000464  0.0029686 0.0000
644   -559.2535426927  -0.000011743105 0.00027230  0.00000467  0.0029481 0.0000
645   -559.2535544830  -0.000011790240 0.00027437  0.00000470  0.0029265 0.0000
646   -559.2535663418  -0.000011858855 0.00027703  0.00000475  0.0029038 0.0000
647   -559.2535782940  -0.000011952215 0.00028037  0.00000480  0.0028799 0.0000
648   -559.2535903685  -0.000012074447 0.00028453  0.00000487  0.0028547 0.0000
649   -559.2536025993  -0.000012230848 0.00028967  0.00000496  0.0028281 0.0000
650   -559.2536150276  -0.000012428329 0.00029603  0.00000507  0.0027999 0.0000
651   -559.2536277038  -0.000012676115 0.00030389  0.00000520  0.0027699 0.0000
652   -559.2536406905  -0.000012986773 0.00031370  0.00000536  0.0027379 0.0000
653   -559.2536540685  -0.000013377924 0.00032607  0.00000557  0.0027036 0.0000
654   -559.2536679435  -0.000013875030 0.00034192  0.00000584  0.0026666 0.0000
655   -559.2536824598  -0.000014516291 0.00036272  0.00000620  0.0026264 0.0000
656   -559.2536978213  -0.000015361560 0.00039086  0.00000667  0.0025823 0.0000
657   -559.2537143311  -0.000016509775 0.00043060  0.00000735  0.0025332 0.0000
658   -559.2537324666  -0.000018135493 0.00049009  0.00000836  0.0025324 0.0000
659   -559.2537530395  -0.000020572919 0.00058672  0.00001000  0.0025281 0.0000
660   -559.2537775721  -0.000024532537 0.00076311  0.00001300  0.0025411 0.0000
661   -559.2538093194  -0.000031747350 0.00114537  0.00001948  0.0026213 0.0000
662   -559.2538566211  -0.000047301642 0.00221369  0.00003757  0.0027282 0.0000
663   -559.2539468177  -0.000090196684 0.00625875  0.00010566  0.0028822 0.0000
664   -559.2541926132  -0.000245795497 0.01711485  0.00028597  0.0033966 0.0000
665   -559.2547867842  -0.000594170919 0.02365514  0.00039407  0.0033572 0.0000
666   -559.2553806149  -0.000593830744 0.00053119  0.00000794  0.0009931 0.0000
667   -559.2553735966   0.000007018342 0.00009684  0.00000211  0.0010193 0.0000
668   -559.2553763316  -0.000002735073 0.00041383  0.00000646  0.0010171 0.0000
669   -559.2553695952   0.000006736407 0.00015543  0.00000234  0.0010365 0.0000
670   -559.2553672823   0.000002312908 0.00042213  0.00000737  0.0010438 0.0000
671   -559.2553759499  -0.000008667598 0.00020145  0.00000345  0.0010240 0.0000
672   -559.2553799132  -0.000003963304 0.00021092  0.00000468  0.0010147 0.0000
673   -559.2553856219  -0.000005708669 0.00019377  0.00000433  0.0010046 0.0000
674   -559.2553907934  -0.000005171529 0.00010938  0.00000223  0.0009954 0.0000
675   -559.2553933928  -0.000002599347 0.00003723  0.00000063  0.0009913 0.0000
                 **** Energy Check signals convergence ****

               *****************************************************
               *                     SUCCESS                       *
               *           SCF CONVERGED AFTER 676 CYCLES          *
               *****************************************************


----------------
TOTAL SCF ENERGY
----------------

Total Energy       :         -559.25539406 Eh          -15218.11295 eV

Components:
Nuclear Repulsion  :            0.00000000 Eh               0.00000 eV
Electronic Energy  :         -559.25539406 Eh          -15218.11295 eV
One Electron Energy:         -975.32126797 Eh          -26539.84096 eV
Two Electron Energy:          416.06587390 Eh           11321.72801 eV

Virial components:
Potential Energy   :         -804.38350848 Eh          -21888.38805 eV
Kinetic Energy     :          245.12811442 Eh            6670.27510 eV
Virial Ratio       :            3.28148205


---------------
SCF CONVERGENCE
---------------

  Last Energy change         ...   -6.7143e-07  Tolerance :   1.0000e-06
  Last MAX-Density change    ...    5.0524e-05  Tolerance :   1.0000e-05
  Last RMS-Density change    ...    1.0133e-06  Tolerance :   1.0000e-06
  Last DIIS Error            ...    9.9060e-04  Tolerance :   1.0000e-06

             **** THE GBW FILE WAS UPDATED (60_Nd_atom60.gbw) ****
             **** DENSITY FILE WAS UPDATED (60_Nd_atom60.scfp) ****
[...]
  BAS[ATNO][ 36].a[ 35] =        11.989542852000;     BAS[ATNO][ 36].d[ 35] =        -0.000000000721;
  BAS[ATNO][ 36].a[ 36] =         1.945268929500;     BAS[ATNO][ 36].d[ 36] =         0.000000028718;
  BAS[ATNO][ 36].a[ 37] =         1.945268929500;     BAS[ATNO][ 36].d[ 37] =        -0.000000012041;
  BAS[ATNO][ 36].a[ 38] =         1.945268929500;     BAS[ATNO][ 36].d[ 38] =         0.000000029197;
  BAS[ATNO][ 36].a[ 39] =       599.719624590000;     BAS[ATNO][ 36].d[ 39] =         0.000520502099;
  BAS[ATNO][ 36].a[ 40] =       186.492010470000;     BAS[ATNO][ 36].d[ 40] =         0.004866872356;
  BAS[ATNO][ 36].a[ 41] =        78.459243396000;     BAS[ATNO][ 36].d[ 41] =         0.009588381888;
  BAS[ATNO][ 36].a[ 42] =        45.079408882000;     BAS[ATNO][ 36].d[ 42] =         0.048475673492;
  BAS[ATNO][ 36].a[ 43] =        12.096127425000;     BAS[ATNO][ 36].d[ 43] =        -0.307123663253;
  BAS[ATNO][ 36].a[ 44] =         7.261487648700;     BAS[ATNO][ 36].d[ 44] =         1.796871081840;
  BAS[ATNO][ 36].a[ 45] =       599.719624590000;     BAS[ATNO][ 36].d[ 45] =        -0.000351546785;
  BAS[ATNO][ 36].a[ 46] =       186.492010470000;     BAS[ATNO][ 36].d[ 46] =        -0.003287082478;
  BAS[ATNO][ 36].a[ 47] =        78.459243396000;     BAS[ATNO][ 36].d[ 47] =        -0.006475986997;
  BAS[ATNO][ 36].a[ 48] =        45.079408882000;     BAS[ATNO][ 36].d[ 48] =        -0.032740438886;
  BAS[ATNO][ 36].a[ 49] =        12.096127425000;     BAS[ATNO][ 36].d[ 49] =         0.207431125817;
  BAS[ATNO][ 36].a[ 50] =         7.261487648700;     BAS[ATNO][ 36].d[ 50] =        -1.213605579931;
  BAS[ATNO][ 36].a[ 51] =       599.719624590000;     BAS[ATNO][ 36].d[ 51] =         0.000184680563;
  BAS[ATNO][ 36].a[ 52] =       186.492010470000;     BAS[ATNO][ 36].d[ 52] =         0.001726826326;
  BAS[ATNO][ 36].a[ 53] =        78.459243396000;     BAS[ATNO][ 36].d[ 53] =         0.003402076129;
  BAS[ATNO][ 36].a[ 54] =        45.079408882000;     BAS[ATNO][ 36].d[ 54] =         0.017199766713;

  // Basis function  38 L = p
  InitBFNGauss(BAS[ATNO][ 37]);
  BAS[ATNO][ 37].l  = 1;
  BAS[ATNO][ 37].ng = 55;
  BAS[ATNO][ 37].a[  0] =      1702.878486100000;     BAS[ATNO][ 37].d[  0] =         0.000000000010;
  BAS[ATNO][ 37].a[  1] =       555.819914960000;     BAS[ATNO][ 37].d[  1] =         0.000000000032;
  BAS[ATNO][ 37].a[  2] =       185.456712420000;     BAS[ATNO][ 37].d[  2] =         0.000000000149;
  BAS[ATNO][ 37].a[  3] =        40.387764875000;     BAS[ATNO][ 37].d[  3] =         0.000000013271;
  BAS[ATNO][ 37].a[  4] =        26.419475488000;     BAS[ATNO][ 37].d[  4] =        -0.000000038751;
  BAS[ATNO][ 37].a[  5] =        13.166099155000;     BAS[ATNO][ 37].d[  5] =         0.000000051668;
  BAS[ATNO][ 37].a[  6] =         3.444271698000;     BAS[ATNO][ 37].d[  6] =        -0.000000094016;
  BAS[ATNO][ 37].a[  7] =         1.859311358300;     BAS[ATNO][ 37].d[  7] =         0.000000122899;
  BAS[ATNO][ 37].a[  8] =      3786.148702400000;     BAS[ATNO][ 37].d[  8] =        -0.000050253277;
  BAS[ATNO][ 37].a[  9] =      1039.432234900000;     BAS[ATNO][ 37].d[  9] =        -0.000412012114;
  BAS[ATNO][ 37].a[ 10] =       360.784754540000;     BAS[ATNO][ 37].d[ 10] =        -0.001520007508;
  BAS[ATNO][ 37].a[ 11] =       128.053331990000;     BAS[ATNO][ 37].d[ 11] =        -0.007311227923;
  BAS[ATNO][ 37].a[ 12] =        33.613552007000;     BAS[ATNO][ 37].d[ 12] =         0.088325733603;
  BAS[ATNO][ 37].a[ 13] =        28.430203981000;     BAS[ATNO][ 37].d[ 13] =        -0.274244874111;
  BAS[ATNO][ 37].a[ 14] =        13.207452530000;     BAS[ATNO][ 37].d[ 14] =         1.024706800157;
  BAS[ATNO][ 37].a[ 15] =         7.449441340500;     BAS[ATNO][ 37].d[ 15] =        -0.502292322540;
  BAS[ATNO][ 37].a[ 16] =         3.796519366200;     BAS[ATNO][ 37].d[ 16] =        -1.948291884912;
  BAS[ATNO][ 37].a[ 17] =      3786.148702400000;     BAS[ATNO][ 37].d[ 17] =         0.000033254266;
  BAS[ATNO][ 37].a[ 18] =      1039.432234900000;     BAS[ATNO][ 37].d[ 18] =         0.000272642128;
  BAS[ATNO][ 37].a[ 19] =       360.784754540000;     BAS[ATNO][ 37].d[ 19] =         0.001005839557;
  BAS[ATNO][ 37].a[ 20] =       128.053331990000;     BAS[ATNO][ 37].d[ 20] =         0.004838082849;
  BAS[ATNO][ 37].a[ 21] =        33.613552007000;     BAS[ATNO][ 37].d[ 21] =        -0.058448077576;
  BAS[ATNO][ 37].a[ 22] =        28.430203981000;     BAS[ATNO][ 37].d[ 22] =         0.181476960597;
  BAS[ATNO][ 37].a[ 23] =        13.207452530000;     BAS[ATNO][ 37].d[ 23] =        -0.678082593881;
  BAS[ATNO][ 37].a[ 24] =         7.449441340500;     BAS[ATNO][ 37].d[ 24] =         0.332383547081;
  BAS[ATNO][ 37].a[ 25] =         3.796519366200;     BAS[ATNO][ 37].d[ 25] =         1.289249583155;
  BAS[ATNO][ 37].a[ 26] =      3786.148702400000;     BAS[ATNO][ 37].d[ 26] =         0.000043818494;
  BAS[ATNO][ 37].a[ 27] =      1039.432234900000;     BAS[ATNO][ 37].d[ 27] =         0.000359255180;
  BAS[ATNO][ 37].a[ 28] =       360.784754540000;     BAS[ATNO][ 37].d[ 28] =         0.001325375039;
  BAS[ATNO][ 37].a[ 29] =       128.053331990000;     BAS[ATNO][ 37].d[ 29] =         0.006375046797;
  BAS[ATNO][ 37].a[ 30] =        33.613552007000;     BAS[ATNO][ 37].d[ 30] =        -0.077015884471;
  BAS[ATNO][ 37].a[ 31] =        28.430203981000;     BAS[ATNO][ 37].d[ 31] =         0.239128628540;
  BAS[ATNO][ 37].a[ 32] =        13.207452530000;     BAS[ATNO][ 37].d[ 32] =        -0.893496123021;
  BAS[ATNO][ 37].a[ 33] =         7.449441340500;     BAS[ATNO][ 37].d[ 33] =         0.437975275215;
  BAS[ATNO][ 37].a[ 34] =         3.796519366200;     BAS[ATNO][ 37].d[ 34] =         1.698818867422;
  BAS[ATNO][ 37].a[ 35] =        27.205211663000;     BAS[ATNO][ 37].d[ 35] =        -0.131465480151;
  BAS[ATNO][ 37].a[ 36] =        11.989542852000;     BAS[ATNO][ 37].d[ 36] =         0.592314986479;
  BAS[ATNO][ 37].a[ 37] =         7.458017576500;     BAS[ATNO][ 37].d[ 37] =         0.258448098781;
  BAS[ATNO][ 37].a[ 38] =        27.205211663000;     BAS[ATNO][ 37].d[ 38] =         0.086994438041;
  BAS[ATNO][ 37].a[ 39] =        11.989542852000;     BAS[ATNO][ 37].d[ 39] =        -0.391951631203;
  BAS[ATNO][ 37].a[ 40] =         7.458017576500;     BAS[ATNO][ 37].d[ 40] =        -0.171022439430;
  BAS[ATNO][ 37].a[ 41] =        27.205211663000;     BAS[ATNO][ 37].d[ 41] =         0.114634386272;
  BAS[ATNO][ 37].a[ 42] =        11.989542852000;     BAS[ATNO][ 37].d[ 42] =        -0.516482843076;
  BAS[ATNO][ 37].a[ 43] =         7.458017576500;     BAS[ATNO][ 37].d[ 43] =        -0.225359837068;
  BAS[ATNO][ 37].a[ 44] =         1.945268929500;     BAS[ATNO][ 37].d[ 44] =         2.265205863409;
  BAS[ATNO][ 37].a[ 45] =         1.945268929500;     BAS[ATNO][ 37].d[ 45] =        -1.498969254900;
  BAS[ATNO][ 37].a[ 46] =         1.945268929500;     BAS[ATNO][ 37].d[ 46] =        -1.975121871525;
  BAS[ATNO][ 37].a[ 47] =         0.896846587100;     BAS[ATNO][ 37].d[ 47] =        -1.565593220238;
  BAS[ATNO][ 37].a[ 48] =         0.896846587100;     BAS[ATNO][ 37].d[ 48] =         1.036017143882;
  BAS[ATNO][ 37].a[ 49] =         0.896846587100;     BAS[ATNO][ 37].d[ 49] =         1.365070124942;
  BAS[ATNO][ 37].a[ 50] =         0.420755947100;     BAS[ATNO][ 37].d[ 50] =         0.913312901884;
  BAS[ATNO][ 37].a[ 51] =         0.420755947100;     BAS[ATNO][ 37].d[ 51] =        -0.604381142936;
  BAS[ATNO][ 37].a[ 52] =         0.420755947100;     BAS[ATNO][ 37].d[ 52] =        -0.796313619282;
  BAS[ATNO][ 37].a[ 53] =         0.189401450300;     BAS[ATNO][ 37].d[ 53] =        -0.405798858938;
  BAS[ATNO][ 37].a[ 54] =         0.189401450300;     BAS[ATNO][ 37].d[ 54] =         0.268536968892;

-------------------------------------------
RADIAL EXPECTATION VALUES <R**-3> TO <R**3>
-------------------------------------------
   0 :     0.000000     3.403757     1.752245     0.619794     0.416509     0.303287
   1 :     6.801081     3.119457     1.670602     0.660941     0.479853     0.381641
   2 :     6.800505     3.119209     1.670517     0.660991     0.479941     0.381762
   3 :     6.797564     3.118074     1.670146     0.661198     0.480293     0.382259
   4 :     6.228661     2.880221     1.580572     0.719601     0.584889     2.674239
   5 :     6.233709     2.882359     1.581354     0.719006     0.583661     2.663668
   6 :     6.234130     2.882537     1.581418     0.718958     0.583563     2.662835
   7 :     6.230401     2.881150     1.580962     0.719252     0.584126     2.667348
   8 :     6.231465     2.881618     1.581135     0.719118     0.583849     2.664957
   9 :     0.000000     0.817032     0.782856     1.503538     2.534036     4.717061
  10 :     1.020887     0.643908     0.682414     1.760929     3.519733     7.865712
  11 :     0.000000     0.116740     0.268995     4.478216    22.834075   129.469948
  12 :     0.000000     0.021977     0.117701     9.770065   102.244986  1123.089065
  13 :     0.000000     0.122440     0.251806     5.755251    43.407558   400.824217
  14 :     0.000000     0.565086     0.579896     2.469053    10.098455    67.315118
  15 :     0.000000     2.430419     1.218340     1.243714     2.772882    13.409254
  16 :     0.000000   199.758295     6.138576     0.409422     0.387055     1.382521
  17 :     0.000000  1507.771143    25.062479     0.128141     0.085229     0.288980
  18 :     0.000000   124.895870     6.330862     0.245361     0.122912     0.335266
  19 :     0.000000  1406.889887    19.059484     0.140214     0.056064     0.153495
  20 :     1.018648     0.642784     0.681742     1.763167     3.530562     7.911905
  21 :     1.010414     0.638951     0.679718     1.767371     3.542804     7.924255
  22 :     4.939044     2.172186     1.272919     1.059825     1.512445    19.952007
  23 :     0.076487     0.073601     0.211571     5.680580    35.980381   248.939675
  24 :     0.076119     0.073341     0.211223     5.688803    36.079771   249.919662
  25 :     4.721261     2.091315     1.242235     1.103623     1.670036    23.659787
  26 :     4.715277     2.088991     1.241292     1.105269     1.676845    23.803517
  27 :     4.735004     2.096537     1.244273     1.100584     1.659079    23.399390
  28 :     4.740852     2.098771     1.245153     1.099225     1.654057    23.276423
  29 :     0.028453     0.040045     0.168118     6.739979    49.240824   384.436400
  30 :     0.175007     0.163430     0.330676     3.718250    15.908405   376.571575
  31 :     0.176995     0.164403     0.331576     3.710073    15.844858   376.845323
  32 :     0.176438     0.164067     0.331290     3.712453    15.862561   377.405434
  33 :     0.175724     0.163590     0.330821     3.717334    15.901337   378.702125
  34 :     0.175412     0.163436     0.330715     3.718072    15.906738   378.865768
  35 :     0.067471     0.064059     0.188031     6.896709    54.895809   477.144842
  36 :     0.067619     0.064172     0.188182     6.892984    54.850135   476.698065
  37 :     0.097205     0.087814     0.223869     5.900377    42.108057   344.500628
  38 :     0.346081     0.254194     0.384687     3.720867    17.457232   467.102457
  39 :     0.347467     0.254756     0.384999     3.718652    17.430084   467.207695
  40 :     0.347720     0.254922     0.385060     3.718439    17.436571   466.603820
  41 :     0.350212     0.256372     0.386356     3.707573    17.345412   464.757293
  42 :     0.350401     0.256411     0.386330     3.708027    17.348961   464.855003
  43 :     1.353741     0.688100     0.601819     2.641994     8.809958   230.887433
  44 :     1.297500     0.663457     0.589624     2.677437     8.986780   236.339983
  45 :     0.359327     0.214921     0.333209     3.681260    14.516328   417.743512
  46 :     0.386308     0.227241     0.338240     3.686842    14.604443   422.107595
  47 :     0.386529     0.227334     0.338283     3.686721    14.603778   422.098269
  48 :     0.379814     0.224544     0.337088     3.688298    14.606318   422.102932
  49 :     0.381214     0.225120     0.337338     3.687828    14.604464   422.060227
  50 :     2.779296     1.271905     0.846536     2.311359     8.005253   226.992461
  51 :     2.817622     1.289750     0.856108     2.279739     7.842799   221.973498
  52 :     0.420284     0.272844     0.389228     3.701293    18.225580   115.290752
  53 :     0.411799     0.268018     0.385345     3.728028    18.361608   115.344968
  54 :     0.414999     0.269869     0.386835     3.716901    18.289417   115.038412
  55 :     1.495228     0.682368     0.586918     2.508789     7.688308   190.353371
  56 :     1.527661     0.697724     0.594697     2.480645     7.515654   183.972421
  57 :     1.527688     0.697736     0.594702     2.480651     7.515749   183.978646
  58 :     1.520010     0.694834     0.593580     2.482526     7.524170   184.244402
  59 :     1.521575     0.695422     0.593803     2.482239     7.523241   184.225160
  60 :     2.166406     0.942985     0.690192     2.350671     7.076900   174.100449
  61 :     2.177507     0.947424     0.692021     2.347548     7.063992   173.739432
  62 :     1.278430     0.678667     0.640076     2.260064     6.893502   135.538371
  63 :     1.278485     0.678469     0.639918     2.260846     6.897290   135.745892
  64 :     1.275815     0.679019     0.640397     2.258674     6.889620   135.015180
  65 :     1.281395     0.679769     0.640777     2.256636     6.871152   135.110827
  66 :     1.250826     0.678101     0.639975     2.263798     6.962247   133.029238
  67 :     1.472071     0.756392     0.681862     2.178745     6.949141    33.039812
  68 :     1.472012     0.756379     0.681869     2.178614     6.949267    33.058061
  69 :     1.479721     0.759923     0.683779     2.172255     6.908310    32.750231
  70 :     2.631953     1.167076     0.831739     1.790939     4.236852    87.503984
  71 :     2.688374     1.189713     0.840961     1.775359     4.176619    86.038235
  72 :     2.688159     1.189634     0.840932     1.775398     4.176769    86.042348
  73 :     2.685820     1.188685     0.840532     1.776236     4.180654    86.158735
  74 :     2.686077     1.188768     0.840556     1.776241     4.180744    86.162246
  75 :     2.903479     1.266476     0.867062     1.751321     4.105280    84.430471
  76 :     2.906978     1.267880     0.867621     1.750432     4.101730    84.336157
  77 :     3.480684     1.622652     1.061009     1.334521     2.509919    34.123130
  78 :     3.480654     1.622632     1.060998     1.334544     2.510008    34.124730
  79 :     3.482495     1.623637     1.061476     1.333663     2.506459    34.053844
  80 :     3.483207     1.623944     1.061606     1.333430     2.505483    34.033350
  81 :     3.484884     1.624551     1.061841     1.332965     2.503324    33.981829
  82 :     8.038149     2.763975     1.329234     1.191145     2.087080    35.313713
  83 :     8.140805     2.795026     1.338181     1.184614     2.069687    34.986126
  84 :     8.140726     2.795002     1.338174     1.184620     2.069710    34.986765
  85 :     8.141282     2.795156     1.338211     1.184605     2.069642    34.984363
  86 :     8.140371     2.794882     1.338133     1.184657     2.069769    34.986459
  87 :     8.256594     2.829354     1.347629     1.178724     2.054778    34.704579
  88 :     8.260286     2.830513     1.347992     1.178350     2.053568    34.677863
  89 :     6.870741     2.463625     1.311438     1.172367     2.322793     8.512505
  90 :     6.872204     2.464108     1.311611     1.172122     2.321677     8.505696
  91 :     6.880240     2.466832     1.312585     1.170831     2.316760     8.490480
  92 :    19.348304     5.017047     1.862388     0.797479     0.976306     9.813301
  93 :    19.348112     5.016998     1.862376     0.797483     0.976312     9.813310
  94 :    19.351890     5.018059     1.862669     0.797279     0.975750     9.804692
  95 :    19.351077     5.017876     1.862637     0.797263     0.975657     9.802709
  96 :    19.345549     5.016507     1.862334     0.797320     0.975589     9.798952
  97 :    67.727107    13.701393     3.319058     0.447633     0.450656     1.356034
  98 :    67.726356    13.701250     3.319035     0.447632     0.450636     1.355902
  99 :    67.724721    13.700956     3.318996     0.447609     0.450491     1.355079
Making the total density                ... o.k.
o.k.
Initializing the integrals              ... done
Making exponents                        ... done
Making rho(0)                           ... done (         0.807734692)
Integral calculation                    ... Two index integrals                     ... done
Solving the equation system             ... done
atomic density will be written to file 60_Nd_atom60.adf

-------
TIMINGS
-------

Total SCF time: 0 days 0 hours 5 min 2 sec 

Total time                  ....     302.977 sec
Sum of individual times     ....     300.259 sec  ( 99.1%)

Fock matrix formation       ....     293.847 sec  ( 97.0%)
Diagonalization             ....       3.123 sec  (  1.0%)
Density matrix formation    ....       0.142 sec  (  0.0%)
Population analysis         ....       0.000 sec  (  0.0%)
Initial guess               ....       0.001 sec  (  0.0%)
Orbital Transformation      ....       0.000 sec  (  0.0%)
Orbital Orthonormalization  ....       0.000 sec  (  0.0%)
DIIS solution               ....       3.145 sec  (  1.0%)

-------------------------   --------------------
FINAL SINGLE POINT ENERGY      -559.255394064188
-------------------------   --------------------


                            ***************************************
                            *     ORCA property calculations      *
                            ***************************************

                                    ---------------------
                                    Active property flags
                                    ---------------------
   (+) Dipole Moment


------------------------------------------------------------------------------
                       ORCA ELECTRIC PROPERTIES CALCULATION
------------------------------------------------------------------------------

Dipole Moment Calculation                       ... on
Quadrupole Moment Calculation                   ... off
Polarizability Calculation                      ... off
GBWName                                         ... 60_Nd_atom60.gbw
Electron density file                           ... 60_Nd_atom60.scfp
The origin for moment calculation is the CENTER OF MASS  = ( 0.000000,  0.000000  0.000000)

-------------
DIPOLE MOMENT
-------------
                                X             Y             Z
Electronic contribution:      0.00001       0.00000      -0.00001
Nuclear contribution   :      0.00000       0.00000       0.00000
                        -----------------------------------------
Total Dipole Moment    :      0.00001       0.00000      -0.00001
                        -----------------------------------------
Magnitude (a.u.)       :      0.00001
Magnitude (Debye)      :      0.00003



--------------------
Rotational spectrum 
--------------------
 
Rotational constants in cm-1:     0.000000     0.000000     0.000000 
Rotational constants in MHz :     0.000000     0.000000     0.000000 

 Dipole components along the rotational axes: 
x,y,z [a.u.] :     0.000006     0.000005    -0.000008 
x,y,z [Debye]:     0.000015     0.000012    -0.000019 

 

Timings for individual modules:

Sum of individual times         ...      306.341 sec (=   5.106 min)
GTO integral calculation        ...        3.330 sec (=   0.056 min)   1.1 %
SCF iterations                  ...      303.011 sec (=   5.050 min)  98.9 %
                             ****ORCA TERMINATED NORMALLY****
TOTAL RUN TIME: 0 days 0 hours 5 minutes 6 seconds 650 msec
