
                                 *****************
                                 * O   R   C   A *
                                 *****************

           --- An Ab Initio, DFT and Semiempirical electronic structure package ---

                  #######################################################
                  #                        -***-                        #
                  #          Department of theory and spectroscopy      #
                  #               Directorship: Frank Neese             #
                  #        Max Planck Institute fuer Kohlenforschung    #
                  #                Kaiser Wilhelm Platz 1               #
                  #                 D-45470 Muelheim/Ruhr               #
                  #                      Germany                        #
                  #                                                     #
                  #                  All rights reserved                #
                  #                        -***-                        #
                  #######################################################


                         Program Version 4.2.0 -  RELEASE  -


 With contributions from (in alphabetic order):
   Daniel Aravena         : Magnetic Suceptibility
   Michael Atanasov       : Ab Initio Ligand Field Theory (pilot matlab implementation)
   Alexander A. Auer      : GIAO ZORA, VPT2
   Ute Becker             : Parallelization
   Giovanni Bistoni       : ED, misc. LED, open-shell LED, HFLED
   Martin Brehm           : Molecular dynamics
   Dmytro Bykov           : SCF Hessian
   Vijay G. Chilkuri      : MRCI spin determinant printing, contributions to CSF-ICE
   Dipayan Datta          : RHF DLPNO-CCSD density
   Achintya Kumar Dutta   : EOM-CC, STEOM-CC
   Dmitry Ganyushin       : Spin-Orbit,Spin-Spin,Magnetic field MRCI
   Miquel Garcia          : C-PCM Hessian, Gaussian charge scheme
   Yang Guo               : DLPNO-NEVPT2, CIM, IAO-localization
   Andreas Hansen         : Spin unrestricted coupled pair/coupled cluster methods
   Benjamin Helmich-Paris : CASSCF linear response (MC-RPA)
   Lee Huntington         : MR-EOM, pCC
   Robert Izsak           : Overlap fitted RIJCOSX, COSX-SCS-MP3, EOM
   Christian Kollmar      : KDIIS, OOCD, Brueckner-CCSD(T), CCSD density
   Simone Kossmann        : Meta GGA functionals, TD-DFT gradient, OOMP2, MP2 Hessian
   Martin Krupicka        : AUTO-CI
   Lucas Lang             : DCDCAS
   Dagmar Lenk            : GEPOL surface, SMD
   Dimitrios Liakos       : Extrapolation schemes; Compound Job, initial MDCI parallelization
   Dimitrios Manganas     : Further ROCIS development; embedding schemes
   Dimitrios Pantazis     : SARC Basis sets
   Taras Petrenko         : DFT Hessian,TD-DFT gradient, ASA, ECA, R-Raman, ABS, FL, XAS/XES, NRVS
   Peter Pinski           : DLPNO-MP2, DLPNO-MP2 Gradient
   Christoph Reimann      : Effective Core Potentials
   Marius Retegan         : Local ZFS, SOC
   Christoph Riplinger    : Optimizer, TS searches, QM/MM, DLPNO-CCSD(T), (RO)-DLPNO pert. Triples
   Tobias Risthaus        : Range-separated hybrids, TD-DFT gradient, RPA, STAB
   Michael Roemelt        : Original ROCIS implementation
   Masaaki Saitow         : Open-shell DLPNO-CCSD energy and density
   Barbara Sandhoefer     : DKH picture change effects
   Avijit Sen             : IP-ROCIS
   Kantharuban Sivalingam : CASSCF convergence, NEVPT2, FIC-MRCI
   Bernardo de Souza      : ESD, SOC TD-DFT
   Georgi Stoychev        : AutoAux, RI-MP2 NMR
   Willem Van den Heuvel  : Paramagnetic NMR
   Boris Wezisla          : Elementary symmetry handling
   Frank Wennmohs         : Technical directorship


 We gratefully acknowledge several colleagues who have allowed us to
 interface, adapt or use parts of their codes:
   Stefan Grimme, W. Hujo, H. Kruse,             : VdW corrections, initial TS optimization,
                  C. Bannwarth                     DFT functionals, gCP, sTDA/sTD-DF
   Ed Valeev, F. Pavosevic, A. Kumar             : LibInt (2-el integral package), F12 methods
   Garnet Chan, S. Sharma, J. Yang, R. Olivares  : DMRG
   Ulf Ekstrom                                   : XCFun DFT Library
   Mihaly Kallay                                 : mrcc  (arbitrary order and MRCC methods)
   Andreas Klamt, Michael Diedenhofen            : otool_cosmo (COSMO solvation model)
   Jiri Pittner, Ondrej Demel                    : Mk-CCSD
   Frank Weinhold                                : gennbo (NPA and NBO analysis)
   Christopher J. Cramer and Donald G. Truhlar   : smd solvation model
   Lars Goerigk                                  : TD-DFT with DH, B97 family of functionals
   V. Asgeirsson, H. Jonsson                     : NEB implementation
   FAccTs GmbH                                   : IRC, NEB, NEB-TS, Multilevel, MM, QM/MM, CI optimization
   S Lehtola, MJT Oliveira, MAL Marques          : LibXC Library


 Your calculation uses the libint2 library for the computation of 2-el integrals
 For citations please refer to: http://libint.valeyev.net

 Your ORCA version has been built with support for libXC version: 4.2.3
 For citations please refer to: https://tddft.org/programs/libxc/

 This ORCA versions uses:
   CBLAS   interface :  Fast vector & matrix operations
   LAPACKE interface :  Fast linear algebra routines
   SCALAPACK package :  Parallel linear algebra routines


----- Orbital basis set information -----
Your calculation utilizes the basis: def2-QZVP
   F. Weigend and R. Ahlrichs, Phys. Chem. Chem. Phys. 7, 3297 (2005).

cite the ECPs for Pm [Def2-ECP] as follows:
Ce-Yb(ecp-28): M. Dolg, H. Stoll, H.Preuss, J. Chem. Phys., 1989, 90, 1730-1734.
Y-Cd(ecp-28), Hf-Hg(ecp-46): D. Andrae,U. Haeussermann, M. Dolg, H. Stoll, H. Preuss, Theor. Chim. Acta, 1990, 77, 123-141.
In-Sb(ecp-28), Tl-Bi(ecp-46): B. Metz, H. Stoll, M. Dolg, J. Chem. Phys., 2000, 113, 2563-2569.
Te-Xe(ecp-28), Po-Rn(ecp-46): K. A. Peterson, D. Figgen, E. Goll, H. Stoll, M. Dolg, J. Chem. Phys., 2003, 119, 11113-11123.
Rb(ecp-28), Cs(ecp-46): T. Leininger, A. Nicklass, W. Kuechle, H. Stoll, M. Dolg, A. Bergner, Chem. Phys. Lett., 1996, 255, 274-280.
Sr(ecp-28), Ba(ecp-46): M. Kaupp, P. V. Schleyer, H. Stoll and H. Preuss, J. Chem. Phys., 1991, 94, 1360-1366.
La(ecp-46): M. Dolg, H. Stoll, A. Savin, H. Preuss, Theor. Chim. Acta, 1989, 75, 173-194.
Lu(ecp-28): X. Cao, M. Dolg, J. Chem. Phys., 2001, 115, 7348-7355.

ECP parameters for Pm [Def2-ECP] have been obtained from:
TURBOMOLE (7.0.2)

================================================================================
                                        WARNINGS
                       Please study these warnings very carefully!
================================================================================


WARNING: your system is open-shell and RHF/RKS was chosen
  ===> : WILL SWITCH to UHF/UKS


WARNING: MDCI localization with Augmented Hessian Foster-Boys
  ===> : Switching off randomization!

WARNING: Post HF methods need fully converged wavefunctions
  ===> : Setting SCFConvForced true
         You can overwrite this default with %scf ConvForced false 


INFO   : the flag for use of LIBINT has been found!

================================================================================
                                       INPUT FILE
================================================================================
NAME = 61_Pm.in
|  1> #
|  2> # 61_Pm CCSD(T)/Def2-QZVP
|  3> #
|  4> ! CCSD(T) Def2-QZVP verytightscf kdiis
|  5> 
|  6> *xyz 0 6
|  7>  Pm 0.0 0.0 0.0
|  8> *
|  9> 
| 10> %maxcore 5000 
| 11> 
| 12> %pal
| 13> nprocs 24
| 14> end
| 15> 
| 16> %scf
| 17> maxiter 300
| 18> diismaxeq 40
| 19> directresetfreq 1
| 20> end
| 21> 
| 22> 
| 23>                          ****END OF INPUT****
================================================================================

                       ****************************
                       * Single Point Calculation *
                       ****************************

---------------------------------
CARTESIAN COORDINATES (ANGSTROEM)
---------------------------------
  Pm     0.000000    0.000000    0.000000

----------------------------
CARTESIAN COORDINATES (A.U.)
----------------------------
  NO LB      ZA    FRAG     MASS         X           Y           Z
   0 Pm   33.0000*   0   145.000    0.000000    0.000000    0.000000
* core charge reduced due to ECP

--------------------------------
INTERNAL COORDINATES (ANGSTROEM)
--------------------------------
 Pm     0   0   0     0.000000000000     0.00000000     0.00000000

---------------------------
INTERNAL COORDINATES (A.U.)
---------------------------
 Pm     0   0   0     0.000000000000     0.00000000     0.00000000

---------------------
BASIS SET INFORMATION
---------------------
There are 1 groups of distinct atoms

 Group   1 Type Pm  : 16s18p11d10f3g contracted to 11s8p6d5f2g pattern {61111111111/93111111/611111/61111/21}

Atom   0Pm   basis set group =>   1
-------------------------
ECP PARAMETER INFORMATION
-------------------------

 Group 1, Type Pm ECP Def2-ECP (replacing 28 core electrons, lmax=5)

Atom   0Pm   ECP group =>   1



           ************************************************************
           *        Program running with 24 parallel MPI-processes    *
           *              working on a common directory               *
           ************************************************************
------------------------------------------------------------------------------
                           ORCA GTO INTEGRAL CALCULATION
------------------------------------------------------------------------------

                         BASIS SET STATISTICS AND STARTUP INFO

 # of primitive gaussian shells          ...   58
 # of primitive gaussian functions       ...  222
 # of contracted shells                  ...   32
 # of contracted basis functions         ...  118
 Highest angular momentum                ...    4
 Maximum contraction depth               ...    9
 Integral package used                   ... LIBINT
 Integral threshhold            Thresh   ...  1.000e-12
 Primitive cut-off              TCut     ...  1.000e-14


------------------------------ INTEGRAL EVALUATION ----------------------------


 * One electron integrals 

   ECP integrals                         ... done
 Pre-screening matrix                    ... done
 Shell pair data                         ... done (   0.000 sec)



           ************************************************************
           *        Program running with 24 parallel MPI-processes    *
           *              working on a common directory               *
           ************************************************************
-------------------------------------------------------------------------------
                                 ORCA SCF
-------------------------------------------------------------------------------

------------
SCF SETTINGS
------------
Hamiltonian:
 Ab initio Hamiltonian  Method          .... Hartree-Fock(GTOs)


General Settings:
 Integral files         IntName         .... 61_Pm
 Hartree-Fock type      HFTyp           .... UHF
 Total Charge           Charge          ....    0
 Multiplicity           Mult            ....    6
 Number of Electrons    NEL             ....   33
 Basis Dimension        Dim             ....  118
 Nuclear Repulsion      ENuc            ....      0.0000000000 Eh

Convergence Acceleration:
 DIIS                   CNVDIIS         .... off
 Newton-Raphson         CNVNR           .... off
 SOSCF                  CNVSOSCF        .... off
 Level Shifting         CNVShift        .... off
 Zerner damping         CNVZerner       .... off
 Static damping         CNVDamp         .... off
 Fernandez-Rico         CNVRico         .... off

SCF Procedure:
 Maximum # iterations   MaxIter         ....   300
 SCF integral mode      SCFMode         .... Direct
   Integral package                     .... LIBINT
 Reset frequency        DirectResetFreq ....     1
 Integral Threshold     Thresh          ....  1.000e-12 Eh
 Primitive CutOff       TCut            ....  1.000e-14 Eh

Convergence Tolerance:
 Convergence Check Mode ConvCheckMode   .... Total+1el-Energy
 Convergence forced     ConvForced      .... 1
 Energy Change          TolE            ....  1.000e-09 Eh
 1-El. energy change                    ....  1.000e-06 Eh


Diagonalization of the overlap matrix:
Smallest eigenvalue                        ... 1.378e-03
Time for diagonalization                   ...    0.004 sec
Threshold for overlap eigenvalues          ... 1.000e-08
Number of eigenvalues below threshold      ... 0
Time for construction of square roots      ...    0.013 sec
Total time needed                          ...    0.017 sec

-------------------
DFT GRID GENERATION
-------------------

General Integration Accuracy     IntAcc      ...  4.340
Radial Grid Type                 RadialGrid  ... Gauss-Chebyshev
Angular Grid (max. acc.)         AngularGrid ... Lebedev-110
Angular grid pruning method      GridPruning ... 3 (G Style)
Weight generation scheme         WeightScheme... Becke
Basis function cutoff            BFCut       ...    1.0000e-12
Integration weight cutoff        WCut        ...    1.0000e-14
Grids for H and He will be reduced by one unit

# of grid points (after initial pruning)     ...   3552 (   0.0 sec)
# of grid points (after weights+screening)   ...   3552 (   0.0 sec)
Grid point division into batches done        ...    0.0 sec
Reduced shell lists constructed in    0.0 sec

Total number of grid points                  ...     3552
Total number of batches                      ...       56
Average number of points per batch           ...       63
Average number of grid points per atom       ...     3552
Average number of shells per batch           ...     6.75 (21.09%)
Average number of basis functions per batch  ...    21.75 (18.43%)
Average number of large shells per batch     ...     4.75 (70.37%)
Average number of large basis fcns per batch ...    12.25 (56.32%)
Maximum spatial batch extension              ...  24.96, 38.92, 38.92 au
Average spatial batch extension              ...   1.30,  1.85,  2.08 au

Time for grid setup =    0.062 sec

------------------------------
INITIAL GUESS: MODEL POTENTIAL
------------------------------
Loading Hartree-Fock densities                     ... done
  calling /sw/apps/orca/orca_4_2_0_linux_x86-64_openmpi314/orca 61_Pm_atom61.inp > 61_Pm_atom61.out in order to generate an atomic fitting density for atom 0 (Pm with ECP) on-the-fly... 
    atom 0 (Pm), assumed electronic state with S=6: 1s2 2s2 2p6 3s2 3p6 4s2 3d10 4p6 5s2 4d10 5p6 4f5 6s2           ... done
Calculating cut-offs                               ... done
Setting up the integral package                    ... done
Initializing the effective Hamiltonian             ... done
Starting the Coulomb interaction                   ... done (   0.0 sec)
Reading the grid                                   ... done
Mapping shells                                     ... done
Starting the XC term evaluation                    ... done (   0.0 sec)
Transforming the Hamiltonian                       ... done (   0.0 sec)
Diagonalizing the Hamiltonian                      ... done (   0.0 sec)
Back transforming the eigenvectors                 ... done (   0.0 sec)
Now organizing SCF variables                       ... done
                      ------------------
                      INITIAL GUESS DONE (  12.8 sec)
                      ------------------
--------------
SCF ITERATIONS
--------------
ITER       Energy         Delta-E        Max-DP      RMS-DP      [F,P]   Gradient Norm
                             ****Turning on KDIIS(Cayley)****
  0   -604.2252266172   0.000000000000 0.07608185  0.00170002  0.4846186   0.686988705
  1   -604.8867544244  -0.661527807172 0.05462992  0.00178774  0.4009513   0.520757551
  2   -605.4105732475  -0.523818823158 0.07431280  0.00233451  0.3091018   0.337032917
  3   -605.6557120740  -0.245138826454 0.05216319  0.00123306  0.1739042   0.137092690
  4   -605.6926252616  -0.036913187590 0.00838808  0.00023577  0.0678591   0.044694102
  5   -605.6992572446  -0.006631982986 0.02708589  0.00063643  0.0629290   0.039184697
  6   -605.6999207438  -0.000663499284 0.00817579  0.00023286  0.0354572   0.027191484
  7   -605.6958831668   0.004037577084 0.00438928  0.00013024  0.0359390   0.027478019
  8   -605.6979164707  -0.002033303916 0.00745745  0.00012833  0.0355033   0.027234804
  9   -605.6970609950   0.000855475657 0.01287160  0.00040977  0.0358993   0.027827568
 10   -605.7057370434  -0.008676048437 0.00709287  0.00020610  0.0357014   0.021912244
 11   -605.7029272702   0.002809773237 0.01452436  0.00044524  0.0391403   0.021366562
 12   -605.6932180597   0.009709210549 0.00404017  0.00012002  0.0440034   0.024357316
 13   -605.6909273797   0.002290680005 0.00071719  0.00001600  0.0451412   0.025253672
Warning: badly conditioned DIIS matrix, 1 vectors out of 15 destroyed
 14   -605.6912782957  -0.000350916035 0.11522611  0.00236343  0.0450352   0.025180780
 15   -605.7341557985  -0.042877502802 0.00460078  0.00017089  0.0243332   0.019153937
 16   -605.7350726103  -0.000916811762 0.02159303  0.00044013  0.0273942   0.015892795
Warning: badly conditioned DIIS matrix, 1 vectors out of 17 destroyed
 17   -605.7284307284   0.006641881812 0.03312782  0.00091798  0.0301322   0.017349521
 18   -605.7355192418  -0.007088513316 0.00645320  0.00017354  0.0239459   0.012341239
Warning: badly conditioned DIIS matrix, 1 vectors out of 18 destroyed
 19   -605.7347078214   0.000811420377 0.02813133  0.00071749  0.0192870   0.014652442
 20   -605.7360127015  -0.001304880133 0.01103257  0.00020299  0.0325677   0.025974212
 21   -605.7353996678   0.000613033670 0.02559171  0.00042249  0.0327854   0.026025243
 22   -605.7340981518   0.001301516009 0.00439094  0.00012658  0.0350152   0.028219437
 23   -605.7346894199  -0.000591268095 0.00632966  0.00017310  0.0349236   0.028278019
 24   -605.7337354045   0.000954015381 0.00370254  0.00007493  0.0359793   0.029194245
 25   -605.7337660247  -0.000030620147 0.01416763  0.00037349  0.0365515   0.029561616
 26   -605.7313509091   0.002415115604 0.00435415  0.00011331  0.0362043   0.030309521
 27   -605.7308867696   0.000464139524 0.01611868  0.00035968  0.0367136   0.031043994
 28   -605.7287762730   0.002110496550 0.00426800  0.00010107  0.0341770   0.029093852
 29   -605.7290304175  -0.000254144460 0.00762247  0.00017915  0.0335212   0.028687194
 30   -605.7282395156   0.000790901865 0.00435651  0.00012105  0.0324444   0.027792183
 31   -605.7284958151  -0.000256299442 0.00306991  0.00006708  0.0312533   0.026756164
 32   -605.7280038676   0.000491947467 0.00257184  0.00006077  0.0313314   0.026864035
 33   -605.7279158376   0.000088030026 0.00322320  0.00006147  0.0312041   0.026796428
 34   -605.7274228198   0.000493017760 0.00289775  0.00007301  0.0313770   0.026954522
 35   -605.7274882853  -0.000065465540 0.00907121  0.00017074  0.0315369   0.027218319
 36   -605.7265814158   0.000906869555 0.00492119  0.00011912  0.0311655   0.026485842
 37   -605.7272548986  -0.000673482814 0.01486362  0.00028235  0.0308617   0.025857234
 38   -605.7297031708  -0.002448272204 0.00029875  0.00000695  0.0306168   0.025439297
Warning: badly conditioned DIIS matrix, 1 vectors out of 37 destroyed
Warning: badly conditioned DIIS matrix, 1 vectors out of 36 destroyed
Warning: badly conditioned DIIS matrix, 1 vectors out of 35 destroyed
Warning: badly conditioned DIIS matrix, 1 vectors out of 34 destroyed
 39   -605.7296594960   0.000043674791 0.03603354  0.00061625  0.0306388   0.025454752
 40   -605.7348744365  -0.005214940532 0.00213127  0.00006029  0.0329277   0.028527633
Warning: badly conditioned DIIS matrix, 1 vectors out of 35 destroyed
Warning: badly conditioned DIIS matrix, 1 vectors out of 34 destroyed
Warning: badly conditioned DIIS matrix, 1 vectors out of 33 destroyed
 41   -605.7345956421   0.000278794402 0.03054146  0.00069097  0.0327835   0.028312219
Warning: badly conditioned DIIS matrix, 1 vectors out of 33 destroyed
Warning: badly conditioned DIIS matrix, 1 vectors out of 32 destroyed
 42   -605.7388661229  -0.004270480755 0.08288650  0.00140791  0.0238362   0.024675969
 43   -605.7528836857  -0.014017562822 0.01215865  0.00026450  0.0341442   0.010854295
 44   -605.7527548987   0.000128787016 0.01454175  0.00033383  0.0339548   0.011557410
 45   -605.7541477030  -0.001392804332 0.00590363  0.00010439  0.0330564   0.011800191
Warning: badly conditioned DIIS matrix, 1 vectors out of 35 destroyed
Warning: badly conditioned DIIS matrix, 1 vectors out of 34 destroyed
Warning: badly conditioned DIIS matrix, 1 vectors out of 33 destroyed
 46   -605.7532893862   0.000858316866 0.05649372  0.00119070  0.0328362   0.011960824
 47   -605.7612873474  -0.007997961213 0.02846383  0.00054366  0.0384562   0.015498838
Warning: badly conditioned DIIS matrix, 1 vectors out of 34 destroyed
 48   -605.7648622468  -0.003574899464 0.05654458  0.00100394  0.0348355   0.014547481
 49   -605.7710419370  -0.006179690130 0.00598869  0.00012238  0.0292071   0.016058660
 50   -605.7706872293   0.000354707630 0.04610335  0.00091359  0.0299996   0.016059616
Warning: badly conditioned DIIS matrix, 1 vectors out of 36 destroyed
Warning: badly conditioned DIIS matrix, 1 vectors out of 35 destroyed
Warning: badly conditioned DIIS matrix, 1 vectors out of 34 destroyed
 51   -605.7735743826  -0.002887153256 0.06190159  0.00124065  0.0245289   0.014428870
 52   -605.7769342847  -0.003359902085 0.04112164  0.00089024  0.0126189   0.014645087
Warning: badly conditioned DIIS matrix, 1 vectors out of 35 destroyed
 53   -605.7757181090   0.001216175734 0.00709201  0.00016804  0.0149373   0.006360967
 54   -605.7758108824  -0.000092773444 0.00107816  0.00002532  0.0149522   0.006295107
 55   -605.7757835169   0.000027365535 0.02411939  0.00051880  0.0149066   0.006223962
 56   -605.7748222007   0.000961316188 0.00442426  0.00007622  0.0172135   0.006751089
 57   -605.7744482779   0.000373922809 0.02851060  0.00045136  0.0179767   0.007028695
 58   -605.7767683606  -0.002320082739 0.06376299  0.00125773  0.0107467   0.005264938
 59   -605.7777162036  -0.000947842971 0.03877381  0.00072217  0.0079475   0.004650418
 60   -605.7746944111   0.003021792506 0.01315236  0.00035988  0.0190378   0.009232062
 61   -605.7766320429  -0.001937631789 0.00708402  0.00014643  0.0122340   0.006399142
 62   -605.7766655571  -0.000033514217 0.01044079  0.00028313  0.0131736   0.006567248
 63   -605.7773488746  -0.000683317547 0.00648402  0.00013382  0.0087235   0.005179402
 64   -605.7770305696   0.000318304981 0.00998346  0.00021787  0.0117737   0.005903214
 65   -605.7766476503   0.000382919355 0.00808588  0.00013984  0.0127837   0.006510449
 66   -605.7767242364  -0.000076586130 0.00424227  0.00007445  0.0117140   0.006451606
 67   -605.7767804957  -0.000056259307 0.00400464  0.00007551  0.0118737   0.006707175
 68   -605.7768588393  -0.000078343530 0.00713537  0.00015164  0.0122090   0.006650159
 69   -605.7769299876  -0.000071148308 0.01131379  0.00025701  0.0105482   0.005998452
 70   -605.7770749110  -0.000144923447 0.00540283  0.00008144  0.0100657   0.006542813
 71   -605.7769715073   0.000103403720 0.00796241  0.00022775  0.0097642   0.006646505
 72   -605.7762177352   0.000753772049 0.00328083  0.00009112  0.0135089   0.007042402
 73   -605.7764860232  -0.000268287951 0.00203131  0.00004645  0.0123123   0.006687715
 74   -605.7763051908   0.000180832377 0.00732367  0.00014224  0.0131443   0.006915390
 75   -605.7764855953  -0.000180404504 0.00530067  0.00014198  0.0133910   0.006368514
 76   -605.7769576696  -0.000472074319 0.01624355  0.00036952  0.0106544   0.005458812
 77   -605.7777631533  -0.000805483683 0.00248170  0.00007385  0.0059625   0.003076179
 78   -605.7777634584  -0.000000305060 0.00643882  0.00015257  0.0062552   0.003641827
 79   -605.7777675960  -0.000004137647 0.00820529  0.00020174  0.0058099   0.003742396
 80   -605.7781984454  -0.000430849398 0.00383210  0.00008398  0.0060264   0.002208494
 81   -605.7782721147  -0.000073669276 0.00703578  0.00013732  0.0060385   0.002261766
 82   -605.7782450703   0.000027044368 0.00793761  0.00012431  0.0060065   0.001976946
 83   -605.7782596882  -0.000014617870 0.00480691  0.00011813  0.0060967   0.001942041
 84   -605.7783577525  -0.000098064284 0.00415438  0.00006301  0.0060770   0.002135899
 85   -605.7782868308   0.000070921637 0.00382503  0.00009023  0.0060608   0.002110384
 86   -605.7783876771  -0.000100846287 0.00544080  0.00011170  0.0061201   0.002108656
 87   -605.7782254271   0.000162250043 0.00857192  0.00022717  0.0059869   0.001963115
 88   -605.7782517693  -0.000026342240 0.00461911  0.00009676  0.0060647   0.001777606
 89   -605.7781456966   0.000106072715 0.00827653  0.00016496  0.0059962   0.001962139
 90   -605.7781052587   0.000040437923 0.00553652  0.00008669  0.0059794   0.001757206
 91   -605.7781530047  -0.000047745956 0.00437446  0.00010020  0.0060174   0.001724633
 92   -605.7781045025   0.000048502115 0.00157586  0.00003203  0.0059839   0.001893143
 93   -605.7781213327  -0.000016830178 0.00316866  0.00006160  0.0060347   0.001717503
 94   -605.7780204497   0.000100883047 0.00121030  0.00002467  0.0060003   0.001687350
 95   -605.7780369814  -0.000016531707 0.00271059  0.00005214  0.0059837   0.001705294
 96   -605.7780423484  -0.000005367004 0.00315397  0.00005730  0.0059881   0.001868896
 97   -605.7779804880   0.000061860371 0.00017351  0.00000411  0.0059445   0.002118846
 98   -605.7779842057  -0.000003717649 0.00187946  0.00004213  0.0059472   0.002075082
 99   -605.7779260218   0.000058183858 0.00306659  0.00004837  0.0059406   0.001741732
100   -605.7779391212  -0.000013099389 0.00539311  0.00008196  0.0059297   0.001752916
101   -605.7779486731  -0.000009551959 0.00381520  0.00009924  0.0059311   0.001749111
102   -605.7779340986   0.000014574495 0.00479268  0.00008451  0.0059880   0.001595749
103   -605.7779239970   0.000010101646 0.00066694  0.00001766  0.0059333   0.001566377
104   -605.7779217577   0.000002239304 0.00168375  0.00004284  0.0059278   0.001561771
105   -605.7779072216   0.000014536094 0.00095079  0.00001861  0.0059260   0.001558493
106   -605.7779427202  -0.000035498555 0.00191202  0.00004283  0.0059503   0.001557195
107   -605.7779831599  -0.000040439736 0.00061834  0.00001256  0.0059795   0.001559473
108   -605.7779914424  -0.000008282537 0.00072157  0.00001441  0.0059802   0.001559717
109   -605.7780039228  -0.000012480402 0.00170467  0.00003234  0.0059772   0.001569403
110   -605.7780056390  -0.000001716210 0.00168609  0.00003481  0.0060064   0.001571732
111   -605.7780173546  -0.000011715594 0.00244034  0.00004891  0.0060059   0.001574528
112   -605.7780063557   0.000010998897 0.00077727  0.00001544  0.0059868   0.001573724
113   -605.7780060497   0.000000306010 0.00105002  0.00002492  0.0059859   0.001568094
114   -605.7780044915   0.000001558271 0.00234837  0.00004295  0.0059870   0.001615868
115   -605.7780480495  -0.000043558012 0.00134646  0.00002414  0.0060184   0.001604530
116   -605.7780593122  -0.000011262694 0.00144051  0.00003333  0.0060192   0.001603546
117   -605.7780918439  -0.000032531732 0.00144273  0.00002327  0.0060109   0.001586498
118   -605.7780481158   0.000043728148 0.00070361  0.00001496  0.0060007   0.001591661
119   -605.7780565900  -0.000008474265 0.00159266  0.00003205  0.0060125   0.001575936
120   -605.7780795286  -0.000022938546 0.00442151  0.00008956  0.0060258   0.001608622
121   -605.7781305864  -0.000051057818 0.00059164  0.00001411  0.0060484   0.001594040
122   -605.7781336325  -0.000003046168 0.00016379  0.00000367  0.0060514   0.001618335
123   -605.7781397379  -0.000006105372 0.00206942  0.00004229  0.0060552   0.001622043
124   -605.7780668813   0.000072856602 0.00123981  0.00002566  0.0060290   0.001566530
125   -605.7781052633  -0.000038381942 0.00236419  0.00005588  0.0060283   0.001547493
126   -605.7779798281   0.000125435200 0.00087118  0.00002379  0.0059722   0.001555603
127   -605.7779322481   0.000047579955 0.00077815  0.00001806  0.0059423   0.001539810
128   -605.7779255637   0.000006684381 0.00020629  0.00000393  0.0059331   0.001548622
129   -605.7779145283   0.000011035434 0.00225490  0.00004185  0.0059282   0.001549963
130   -605.7778097435   0.000104784782 0.00249574  0.00005417  0.0058744   0.001526005
131   -605.7776983024   0.000111441062 0.00095794  0.00002934  0.0058294   0.001544993
132   -605.7776447943   0.000053508126 0.00201735  0.00003903  0.0057961   0.001506647
133   -605.7775571906   0.000087603710 0.00331211  0.00005368  0.0057471   0.001499976
134   -605.7774495310   0.000107659562 0.00155029  0.00002401  0.0056684   0.001490268
135   -605.7774025652   0.000046965880 0.00056704  0.00000894  0.0056410   0.001485386
136   -605.7774092543  -0.000006689139 0.00119156  0.00001679  0.0056448   0.001486466
137   -605.7774011817   0.000008072609 0.00125353  0.00002034  0.0056422   0.001487110
138   -605.7774199314  -0.000018749700 0.00122980  0.00002600  0.0056496   0.001487037
139   -605.7773920147   0.000027916680 0.00044258  0.00001264  0.0056333   0.001486141
140   -605.7773783380   0.000013676713 0.00131813  0.00002091  0.0056224   0.001487599
141   -605.7773758927   0.000002445268 0.00136656  0.00002177  0.0056166   0.001508980
142   -605.7773651681   0.000010724603 0.00115163  0.00002041  0.0056134   0.001543642
143   -605.7773659047  -0.000000736588 0.00066391  0.00001866  0.0056054   0.001515445
144   -605.7773267104   0.000039194339 0.00099446  0.00001770  0.0055924   0.001528885
145   -605.7773652118  -0.000038501414 0.00217217  0.00004016  0.0056040   0.001514963
146   -605.7772514596   0.000113752222 0.00061902  0.00001155  0.0055523   0.001522599
147   -605.7772665662  -0.000015106574 0.00104706  0.00002328  0.0055649   0.001516033
148   -605.7772791910  -0.000012624825 0.00490274  0.00010277  0.0055739   0.001485947
149   -605.7771465946   0.000132596393 0.00190625  0.00003338  0.0054655   0.001498606
150   -605.7770958076   0.000050787012 0.00333250  0.00005953  0.0054271   0.001489054
151   -605.7770348364   0.000060971131 0.00111972  0.00002448  0.0053543   0.001471897
152   -605.7770624952  -0.000027658731 0.00126928  0.00003365  0.0053593   0.001459517
153   -605.7769862320   0.000076263172 0.00089200  0.00001921  0.0053126   0.001452336
154   -605.7770122529  -0.000026020934 0.00189769  0.00003610  0.0053344   0.001436790
155   -605.7770009137   0.000011339280 0.00225827  0.00004073  0.0053232   0.001425399
156   -605.7769710876   0.000029826022 0.00100405  0.00002073  0.0052955   0.001444955
157   -605.7770051053  -0.000034017666 0.00087142  0.00002416  0.0053134   0.001442701
158   -605.7769483107   0.000056794564 0.00005976  0.00000130  0.0052777   0.001442976
159   -605.7769492956  -0.000000984856 0.00045968  0.00000970  0.0052781   0.001444820
160   -605.7769588782  -0.000009582632 0.00107108  0.00002019  0.0052897   0.001435737
161   -605.7769404513   0.000018426938 0.00016322  0.00000242  0.0052626   0.001440603
162   -605.7769401590   0.000000292239 0.00058502  0.00000837  0.0052622   0.001441550
163   -605.7769382876   0.000001871401 0.00041688  0.00000730  0.0052624   0.001439564
164   -605.7769404395  -0.000002151823 0.00124713  0.00002213  0.0052644   0.001441450
165   -605.7769480515  -0.000007612036 0.00131138  0.00002909  0.0052803   0.001427913
166   -605.7770172196  -0.000069168055 0.00298845  0.00006994  0.0053255   0.001440754
167   -605.7768469682   0.000170251337 0.00028637  0.00000775  0.0052097   0.001446976
168   -605.7768338693   0.000013098955 0.00226483  0.00004945  0.0052009   0.001456093
169   -605.7768016928   0.000032176448 0.00050090  0.00001161  0.0051443   0.001432660
170   -605.7767886141   0.000013078700 0.00142815  0.00002773  0.0051444   0.001437741
171   -605.7767742365   0.000014377627 0.00192024  0.00003871  0.0051507   0.001404325
172   -605.7768434880  -0.000069251543 0.00062261  0.00002091  0.0052020   0.001420201
173   -605.7768218821   0.000021605890 0.00154169  0.00003532  0.0051839   0.001408446
174   -605.7767612823   0.000060599880 0.00128582  0.00002752  0.0051413   0.001410702
175   -605.7767337238   0.000027558417 0.00039369  0.00000695  0.0051263   0.001378061
176   -605.7767204738   0.000013250005 0.00057547  0.00001096  0.0051164   0.001379322
177   -605.7767238631  -0.000003389232 0.00132019  0.00002497  0.0051201   0.001379346
178   -605.7767095440   0.000014319072 0.00087178  0.00001587  0.0051073   0.001372986
179   -605.7767365099  -0.000026965931 0.00095890  0.00001631  0.0051191   0.001373755
180   -605.7767262706   0.000010239315 0.00011270  0.00000196  0.0051148   0.001375107
181   -605.7767267204  -0.000000449735 0.00034779  0.00000692  0.0051140   0.001376152
182   -605.7767217712   0.000004949149 0.00124421  0.00002030  0.0051162   0.001379351
183   -605.7767252622  -0.000003490970 0.00100251  0.00001704  0.0051241   0.001389271
184   -605.7767160965   0.000009165690 0.00083876  0.00002212  0.0051251   0.001407126
185   -605.7766622093   0.000053887167 0.00103702  0.00001969  0.0050869   0.001370448
186   -605.7766961074  -0.000033898124 0.00061080  0.00001076  0.0051168   0.001382010
187   -605.7767060733  -0.000009965815 0.00154610  0.00002842  0.0051192   0.001378541
Warning: badly conditioned DIIS matrix, 1 vectors out of 40 destroyed
188   -605.7766665401   0.000039533204 0.00037788  0.00000753  0.0051099   0.001374037
Warning: badly conditioned DIIS matrix, 1 vectors out of 40 destroyed
189   -605.7766699701  -0.000003430014 0.00063928  0.00001369  0.0051064   0.001373346
Warning: badly conditioned DIIS matrix, 1 vectors out of 40 destroyed
190   -605.7766556619   0.000014308145 0.00050624  0.00000906  0.0051013   0.001373148
Warning: badly conditioned DIIS matrix, 1 vectors out of 40 destroyed
Warning: badly conditioned DIIS matrix, 1 vectors out of 39 destroyed
191   -605.7766526125   0.000003049407 0.00162133  0.00004096  0.0050927   0.001373256
192   -605.7767697297  -0.000117117226 0.00451067  0.00006352  0.0051613   0.001387575
193   -605.7766011946   0.000168535094 0.00023024  0.00000754  0.0050953   0.001381611
194   -605.7766174870  -0.000016292349 0.00194050  0.00003501  0.0051050   0.001385714
195   -605.7765663807   0.000051106262 0.00015260  0.00000285  0.0050935   0.001395848
196   -605.7765644596   0.000001921162 0.00101289  0.00002284  0.0050934   0.001399836
197   -605.7765875638  -0.000023104205 0.00152613  0.00003807  0.0051026   0.001370570
198   -605.7765060601   0.000081503700 0.00142563  0.00003821  0.0050584   0.001397089
199   -605.7766238663  -0.000117806193 0.00289648  0.00006261  0.0051030   0.001369211
200   -605.7763824587   0.000241407588 0.00072128  0.00001453  0.0049759   0.001357953
201   -605.7763873340  -0.000004875303 0.00106693  0.00002230  0.0049609   0.001342988
202   -605.7763445113   0.000042822642 0.00060364  0.00000968  0.0049558   0.001355817
203   -605.7763554189  -0.000010907525 0.00056486  0.00001141  0.0049630   0.001354422
204   -605.7763491690   0.000006249844 0.00034261  0.00000620  0.0049638   0.001352657
205   -605.7763501531  -0.000000984049 0.00081440  0.00001527  0.0049620   0.001354016
206   -605.7763593502  -0.000009197137 0.00085657  0.00002131  0.0049582   0.001336878
207   -605.7764294000  -0.000070049754 0.00162322  0.00003762  0.0049915   0.001339702
208   -605.7762938567   0.000135543253 0.00087404  0.00001633  0.0049197   0.001329291
209   -605.7762753570   0.000018499749 0.00090124  0.00002295  0.0049151   0.001329407
210   -605.7762385833   0.000036773658 0.00054793  0.00001300  0.0048765   0.001332342
211   -605.7762309921   0.000007591190 0.00063190  0.00001202  0.0048838   0.001322785
212   -605.7762323339  -0.000001341764 0.00075678  0.00001635  0.0048751   0.001319900
213   -605.7762653626  -0.000033028706 0.00077151  0.00001678  0.0049012   0.001323248
214   -605.7762455579   0.000019804703 0.00027843  0.00000507  0.0048831   0.001320663
215   -605.7762331936   0.000012364272 0.00248454  0.00004467  0.0048772   0.001318432
216   -605.7761956740   0.000037519634 0.00085476  0.00001668  0.0048806   0.001322650
217   -605.7761569404   0.000038733560 0.00030255  0.00000587  0.0048592   0.001309020
218   -605.7761660022  -0.000009061827 0.00382408  0.00007584  0.0048676   0.001312727
219   -605.7760570093   0.000108992960 0.00077610  0.00001693  0.0048650   0.001314263
220   -605.7760503316   0.000006677636 0.00011880  0.00000212  0.0048607   0.001321450
221   -605.7760492636   0.000001068085 0.00106702  0.00002547  0.0048617   0.001319948
222   -605.7760222068   0.000027056747 0.00106161  0.00002359  0.0048483   0.001291943
223   -605.7759963894   0.000025817389 0.00092959  0.00001962  0.0048362   0.001292183
224   -605.7759569520   0.000039437469 0.00127973  0.00002326  0.0048104   0.001295973
225   -605.7759077398   0.000049212124 0.00196548  0.00004260  0.0047655   0.001275855
226   -605.7758185618   0.000089178041 0.00227725  0.00004883  0.0046836   0.001272006
227   -605.7757412391   0.000077322710 0.00277755  0.00007059  0.0046506   0.001273551
228   -605.7755566952   0.000184543870 0.00231119  0.00004982  0.0044913   0.001351396
229   -605.7754077079   0.000148987329 0.00193518  0.00004703  0.0043837   0.001202888
230   -605.7752920527   0.000115655176 0.00125330  0.00003310  0.0042930   0.001264481
231   -605.7753778672  -0.000085814540 0.00303239  0.00006928  0.0043631   0.001228935
232   -605.7752815774   0.000096289862 0.00193734  0.00003982  0.0042605   0.001230970
233   -605.7753503306  -0.000068753192 0.00160476  0.00003785  0.0043293   0.001263276
234   -605.7752776400   0.000072690592 0.00123498  0.00002531  0.0042967   0.001285102
235   -605.7752935076  -0.000015867585 0.00198928  0.00005195  0.0042985   0.001246479
236   -605.7751554708   0.000138036762 0.00191989  0.00003942  0.0041985   0.001227384
237   -605.7751938663  -0.000038395505 0.00316011  0.00007582  0.0042075   0.001201526
238   -605.7751035395   0.000090326844 0.00194203  0.00004631  0.0041792   0.001273315
239   -605.7750554270   0.000048112437 0.00174079  0.00003976  0.0041171   0.001312372
240   -605.7749786184   0.000076808610 0.00261336  0.00006301  0.0040580   0.001337153
241   -605.7748173654   0.000161253007 0.00374234  0.00010170  0.0039164   0.001203774
242   -605.7746182330   0.000199132454 0.00965962  0.00022312  0.0037755   0.001268913
243   -605.7741244080   0.000493824973 0.00038641  0.00000889  0.0032654   0.001032606
244   -605.7741193920   0.000005015936 0.00681951  0.00014526  0.0032579   0.001007384
245   -605.7738557978   0.000263594203 0.00167011  0.00003146  0.0029595   0.001060742
246   -605.7738666445  -0.000010846692 0.00097431  0.00002324  0.0029686   0.001021255
247   -605.7738865312  -0.000019886676 0.00248289  0.00005188  0.0029818   0.000967781
248   -605.7738937085  -0.000007177262 0.00186336  0.00004446  0.0029537   0.000943454
249   -605.7738016630   0.000092045467 0.00242152  0.00004316  0.0028099   0.001003801
250   -605.7738222097  -0.000020546677 0.00252596  0.00005103  0.0028640   0.000811688
251   -605.7738187300   0.000003479667 0.00106024  0.00002244  0.0028322   0.000829245
252   -605.7738162921   0.000002437877 0.00818358  0.00017159  0.0028453   0.000835213
253   -605.7736462962   0.000169995903 0.00067826  0.00001386  0.0026479   0.000950356
254   -605.7736499426  -0.000003646400 0.00131132  0.00003132  0.0026516   0.000910882
255   -605.7736061321   0.000043810510 0.00047738  0.00001133  0.0025853   0.000887262
256   -605.7735981314   0.000008000696 0.00197236  0.00004474  0.0025802   0.000899539
257   -605.7735435530   0.000054578383 0.00058291  0.00001144  0.0024868   0.000952503
258   -605.7735536917  -0.000010138618 0.00092818  0.00001715  0.0025101   0.000943457
259   -605.7735332184   0.000020473227 0.00091434  0.00001932  0.0024708   0.000941293
260   -605.7735499697  -0.000016751251 0.00136178  0.00003483  0.0025039   0.000966830
261   -605.7735150508   0.000034918840 0.00269689  0.00005032  0.0024713   0.000986073
262   -605.7735310220  -0.000015971190 0.00206562  0.00003862  0.0024784   0.000956236
263   -605.7735266986   0.000004323488 0.00274250  0.00006708  0.0024832   0.000968297
264   -605.7734662334   0.000060465148 0.00109860  0.00002551  0.0023765   0.000919184
265   -605.7734421191   0.000024114275 0.00104705  0.00002251  0.0023302   0.001024776
266   -605.7734597571  -0.000017637986 0.00160723  0.00002955  0.0023729   0.000921355
267   -605.7734757955  -0.000016038429 0.00123046  0.00002861  0.0023988   0.000820978
268   -605.7734432358   0.000032559754 0.00047377  0.00000930  0.0023313   0.000912453
269   -605.7734335617   0.000009674043 0.00083822  0.00002044  0.0023120   0.000903693
270   -605.7734525670  -0.000019005272 0.00202999  0.00004446  0.0023459   0.000853200
271   -605.7735359114  -0.000083344370 0.00167727  0.00004036  0.0024893   0.000805041
272   -605.7734673253   0.000068586082 0.00267690  0.00004585  0.0023769   0.000780408
273   -605.7734796992  -0.000012373870 0.00089408  0.00002247  0.0024147   0.000750745
274   -605.7735160069  -0.000036307693 0.00125353  0.00003307  0.0024584   0.000729909
275   -605.7734658417   0.000050165125 0.00089458  0.00002009  0.0023962   0.000739021
276   -605.7734462719   0.000019569867 0.00037514  0.00000933  0.0023657   0.000745985
277   -605.7734606004  -0.000014328513 0.00065325  0.00001744  0.0023866   0.000750015
278   -605.7734849731  -0.000024372758 0.00023320  0.00000565  0.0024259   0.000729484
279   -605.7734771719   0.000007801292 0.00011729  0.00000269  0.0024144   0.000736218
280   -605.7734751898   0.000001982055 0.00129569  0.00002407  0.0024116   0.000738101
281   -605.7734835107  -0.000008320879 0.00014723  0.00000250  0.0024191   0.000731156
282   -605.7734857900  -0.000002279317 0.00074074  0.00001778  0.0024249   0.000730373
283   -605.7735147717  -0.000028981724 0.00009571  0.00000252  0.0024744   0.000716430
284   -605.7735119900   0.000002781674 0.00093316  0.00002301  0.0024689   0.000718027
285   -605.7735474319  -0.000035441848 0.00072416  0.00001970  0.0025337   0.000721244
286   -605.7735162004   0.000031231476 0.00092108  0.00001739  0.0024774   0.000732660
287   -605.7735145758   0.000001624666 0.00107691  0.00002329  0.0024784   0.000724062
288   -605.7735104205   0.000004155281 0.00160555  0.00003090  0.0024498   0.000723283
289   -605.7735204204  -0.000009999975 0.00081761  0.00001706  0.0024855   0.000731039
290   -605.7735144955   0.000005924919 0.00086915  0.00002377  0.0024614   0.000719860
291   -605.7734816581   0.000032837423 0.00054712  0.00001340  0.0024296   0.000704964
292   -605.7734675622   0.000014095956 0.00078434  0.00001718  0.0024065   0.000699365
293   -605.7734729349  -0.000005372711 0.00102356  0.00002392  0.0024192   0.000717409
294   -605.7735074024  -0.000034467565 0.00121541  0.00002573  0.0024655   0.000721754
295   -605.7735005035   0.000006898964 0.00104910  0.00002899  0.0024510   0.000708420
296   -605.7734755391   0.000024964394 0.00098250  0.00002132  0.0024160   0.000733473
297   -605.7734695676   0.000005971476 0.00085830  0.00001707  0.0023901   0.000705593
298   -605.7734754668  -0.000005899223 0.00077678  0.00001695  0.0024147   0.000694251
299   -605.7734746722   0.000000794642 0.00111610  0.00002388  0.0024078   0.000697597
                    *** KDIIS BlockDiag (164.340 sec) ***

               *****************************************************
               *                      ERROR                        *
               *        SCF NOT CONVERGED AFTER 300 CYCLES         *
               *****************************************************


---------------
SCF CONVERGENCE
---------------

  Last Energy change         ...    7.9464e-07  Tolerance :   1.0000e-09
  Last MAX-Density change    ...    1.1161e-03  Tolerance :   1.0000e-08
  Last RMS-Density change    ...    2.3878e-05  Tolerance :   1.0000e-09

     --------------------------------------------------------------------
                                      ERROR
     This wavefunction IS NOT CONVERGED! 
     But SCFConvergence was forced (by user or by method)
     Aborting ...
     --------------------------------------------------------------------



ORCA finished by error termination in SCF
Calling Command: mpirun -np 24  /sw/apps/orca/orca_4_2_0_linux_x86-64_openmpi314/orca_scf_mpi 61_Pm.gbw b 61_Pm 
[file orca_tools/qcmsg.cpp, line 458]: 
  .... aborting the run

