
                                 *****************
                                 * O   R   C   A *
                                 *****************

           --- An Ab Initio, DFT and Semiempirical electronic structure package ---

                  #######################################################
                  #                        -***-                        #
                  #          Department of theory and spectroscopy      #
                  #               Directorship: Frank Neese             #
                  #        Max Planck Institute fuer Kohlenforschung    #
                  #                Kaiser Wilhelm Platz 1               #
                  #                 D-45470 Muelheim/Ruhr               #
                  #                      Germany                        #
                  #                                                     #
                  #                  All rights reserved                #
                  #                        -***-                        #
                  #######################################################


                         Program Version 4.2.0 -  RELEASE  -


 With contributions from (in alphabetic order):
   Daniel Aravena         : Magnetic Suceptibility
   Michael Atanasov       : Ab Initio Ligand Field Theory (pilot matlab implementation)
   Alexander A. Auer      : GIAO ZORA, VPT2
   Ute Becker             : Parallelization
   Giovanni Bistoni       : ED, misc. LED, open-shell LED, HFLED
   Martin Brehm           : Molecular dynamics
   Dmytro Bykov           : SCF Hessian
   Vijay G. Chilkuri      : MRCI spin determinant printing, contributions to CSF-ICE
   Dipayan Datta          : RHF DLPNO-CCSD density
   Achintya Kumar Dutta   : EOM-CC, STEOM-CC
   Dmitry Ganyushin       : Spin-Orbit,Spin-Spin,Magnetic field MRCI
   Miquel Garcia          : C-PCM Hessian, Gaussian charge scheme
   Yang Guo               : DLPNO-NEVPT2, CIM, IAO-localization
   Andreas Hansen         : Spin unrestricted coupled pair/coupled cluster methods
   Benjamin Helmich-Paris : CASSCF linear response (MC-RPA)
   Lee Huntington         : MR-EOM, pCC
   Robert Izsak           : Overlap fitted RIJCOSX, COSX-SCS-MP3, EOM
   Christian Kollmar      : KDIIS, OOCD, Brueckner-CCSD(T), CCSD density
   Simone Kossmann        : Meta GGA functionals, TD-DFT gradient, OOMP2, MP2 Hessian
   Martin Krupicka        : AUTO-CI
   Lucas Lang             : DCDCAS
   Dagmar Lenk            : GEPOL surface, SMD
   Dimitrios Liakos       : Extrapolation schemes; Compound Job, initial MDCI parallelization
   Dimitrios Manganas     : Further ROCIS development; embedding schemes
   Dimitrios Pantazis     : SARC Basis sets
   Taras Petrenko         : DFT Hessian,TD-DFT gradient, ASA, ECA, R-Raman, ABS, FL, XAS/XES, NRVS
   Peter Pinski           : DLPNO-MP2, DLPNO-MP2 Gradient
   Christoph Reimann      : Effective Core Potentials
   Marius Retegan         : Local ZFS, SOC
   Christoph Riplinger    : Optimizer, TS searches, QM/MM, DLPNO-CCSD(T), (RO)-DLPNO pert. Triples
   Tobias Risthaus        : Range-separated hybrids, TD-DFT gradient, RPA, STAB
   Michael Roemelt        : Original ROCIS implementation
   Masaaki Saitow         : Open-shell DLPNO-CCSD energy and density
   Barbara Sandhoefer     : DKH picture change effects
   Avijit Sen             : IP-ROCIS
   Kantharuban Sivalingam : CASSCF convergence, NEVPT2, FIC-MRCI
   Bernardo de Souza      : ESD, SOC TD-DFT
   Georgi Stoychev        : AutoAux, RI-MP2 NMR
   Willem Van den Heuvel  : Paramagnetic NMR
   Boris Wezisla          : Elementary symmetry handling
   Frank Wennmohs         : Technical directorship


 We gratefully acknowledge several colleagues who have allowed us to
 interface, adapt or use parts of their codes:
   Stefan Grimme, W. Hujo, H. Kruse,             : VdW corrections, initial TS optimization,
                  C. Bannwarth                     DFT functionals, gCP, sTDA/sTD-DF
   Ed Valeev, F. Pavosevic, A. Kumar             : LibInt (2-el integral package), F12 methods
   Garnet Chan, S. Sharma, J. Yang, R. Olivares  : DMRG
   Ulf Ekstrom                                   : XCFun DFT Library
   Mihaly Kallay                                 : mrcc  (arbitrary order and MRCC methods)
   Andreas Klamt, Michael Diedenhofen            : otool_cosmo (COSMO solvation model)
   Jiri Pittner, Ondrej Demel                    : Mk-CCSD
   Frank Weinhold                                : gennbo (NPA and NBO analysis)
   Christopher J. Cramer and Donald G. Truhlar   : smd solvation model
   Lars Goerigk                                  : TD-DFT with DH, B97 family of functionals
   V. Asgeirsson, H. Jonsson                     : NEB implementation
   FAccTs GmbH                                   : IRC, NEB, NEB-TS, Multilevel, MM, QM/MM, CI optimization
   S Lehtola, MJT Oliveira, MAL Marques          : LibXC Library


 Your calculation uses the libint2 library for the computation of 2-el integrals
 For citations please refer to: http://libint.valeyev.net

 Your ORCA version has been built with support for libXC version: 4.2.3
 For citations please refer to: https://tddft.org/programs/libxc/

 This ORCA versions uses:
   CBLAS   interface :  Fast vector & matrix operations
   LAPACKE interface :  Fast linear algebra routines
   SCALAPACK package :  Parallel linear algebra routines


----- Orbital basis set information -----
Your calculation utilizes the basis: def2-SVP
   F. Weigend and R. Ahlrichs, Phys. Chem. Chem. Phys. 7, 3297 (2005).

----- AuxJ basis set information -----
Your calculation utilizes the auxiliary basis: def2/J
   F. Weigend, Phys. Chem. Chem. Phys. 8, 1057 (2006).

================================================================================
                                        WARNINGS
                       Please study these warnings very carefully!
================================================================================


INFO   : the flag for use of LIBINT has been found!

================================================================================
                                       INPUT FILE
================================================================================
NAME = 61_Pm_atom61.inp
|  1> # input to generate an atomic fitting density for Pm
|  2> # this file is use internally by ORCA
|  3> #
|  4> # atomic ground state (S=6): 1s2 2s2 2p6 3s2 3p6 4s2 3d10 4p6 5s2 4d10 5p6 4f5 6s2 
|  5> #
|  6> ! RHF AllowRHF def2-SVP def2/J  NoMulliken NoLoewdin NoMayer NoPrintMOs 
|  7> 
|  8> %output print[p_atomdensfit] 2 end
|  9> 
| 10> %scf
| 11>   guess hcore
| 12>   maxiter 1000
| 13>   maxdisk 500000
| 14>   SCFMode Conventional
| 15>   lshift 0.600000
| 16>   hftyp rohf
| 17>   rohf_case sahf
| 18>   rohf_numop   2
| 19>   rohf_norb[1] 7
| 20>   rohf_nel[1]  5
| 21> end
| 22> 
| 23> %basis
| 24>   NewECP 61
| 25>     N_core 28
| 26>     lmax h
| 27>     s 1
| 28>       1      21.9428650000    575.3957490000  2
| 29>     p 1
| 30>       1      16.5551610000    281.7045140000  2
| 31>     d 1
| 32>       1      13.9603080000    123.5247370000  2
| 33>     f 1
| 34>       1      24.0335460000    -50.7415110000  2
| 35>     g 1
| 36>       1      19.2602450000    -24.3725100000  2
| 37>     h 1
| 38>       1       1.0000000000      0.0000000000  2
| 39>   end
| 40>   NewGTO 61
| 41>     s 6 
| 42>      1  171857.1510300000      0.0009546992
| 43>      2   25926.7738250000      0.0074393290
| 44>      3    6014.5502637000      0.0349729781
| 45>      4    1704.2977169000      0.1430407952
| 46>      5     553.6226957500      0.3225613208
| 47>      6     186.3606544100      0.6109962099
| 48>     s 1 
| 49>      1      40.9793267430      1.0000000000
| 50>     s 1 
| 51>      1      26.9436201510      1.0000000000
| 52>     s 1 
| 53>      1      13.9206570330      1.0000000000
| 54>     s 1 
| 55>      1       3.5125058087      1.0000000000
| 56>     s 1 
| 57>      1       1.8577815558      1.0000000000
| 58>     s 1 
| 59>      1       0.7397780065      1.0000000000
| 60>     s 1 
| 61>      1       0.3348657219      1.0000000000
| 62>     s 1 
| 63>      1       0.0762787392      1.0000000000
| 64>     s 1 
| 65>      1       0.0376126017      1.0000000000
| 66>     s 1 
| 67>      1       0.0153841565      1.0000000000
| 68>     p 9 
| 69>      1    3785.8365986000      0.0000481051
| 70>      2    1040.6229993000      0.0001491608
| 71>      3     359.7253333400      0.0013599310
| 72>      4     129.4974299400      0.0027309000
| 73>      5      33.9988283770      0.0141366823
| 74>      6      28.6528629790      0.0386543679
| 75>      7      13.6324789630     -0.3727543629
| 76>      8       7.4715375880      0.3003410076
| 77>      9       3.8117015640      0.9456149207
| 78>     p 3 
| 79>      1      27.4583093930      0.2088719661
| 80>      2      12.6569197380     -0.8949045384
| 81>      3       7.4770689101     -0.2798522806
| 82>     p 1 
| 83>      1       1.9400891818      1.0000000000
| 84>     p 1 
| 85>      1       0.8976257718      1.0000000000
| 86>     p 1 
| 87>      1       0.4190596007      1.0000000000
| 88>     p 1 
| 89>      1       0.1882321808      1.0000000000
| 90>     p 1 
| 91>      1       0.0670000000      1.0000000000
| 92>     p 1 
| 93>      1       0.0300000000      1.0000000000
| 94>     d 6 
| 95>      1     595.7400892500      0.0003136806
| 96>      2     193.0969646500      0.0030735409
| 97>      3      80.0468990000      0.0087077718
| 98>      4      41.8019700740      0.0333480007
| 99>      5       9.2841222035     -0.0001353095
|100>      6       6.5618795514      0.9893854385
|101>     d 1 
|102>      1       3.1767952162      1.0000000000
|103>     d 1 
|104>      1       1.4787693647      1.0000000000
|105>     d 1 
|106>      1       0.5957803692      1.0000000000
|107>     d 1 
|108>      1       0.2220807341      1.0000000000
|109>     d 1 
|110>      1       0.0759150043      1.0000000000
|111>     f 6 
|112>      1     157.8134541200      0.0021036001
|113>      2      58.2761310070      0.0221639072
|114>      3      27.3555059270      0.0956773748
|115>      4      13.3946702190      0.2241902641
|116>      5       6.7682755976      0.3693785225
|117>      6       3.3641991718      0.4899006199
|118>     f 1 
|119>      1       1.6780794607      1.0000000000
|120>     f 1 
|121>      1       0.8382557878      1.0000000000
|122>     f 1 
|123>      1       0.4076554202      1.0000000000
|124>     f 1 
|125>      1       0.1754271742      1.0000000000
|126>   end
|127>   NewAuxGTO 61
|128>     S 1
|129>      1 1310.72 1.0
|130>     S 1
|131>      1  655.36 1.0
|132>     S 1
|133>      1  327.68 1.0
|134>     S 1
|135>      1  163.84 1.0
|136>     S 1
|137>      1   81.82 1.0
|138>     S 1
|139>      1   40.96 1.0
|140>     S 1
|141>      1   20.48 1.0
|142>     S 1
|143>      1   10.24 1.0
|144>     S 1
|145>      1    5.12 1.0
|146>     S 1
|147>      1    2.56 1.0
|148>     S 1
|149>      1    1.28 1.0
|150>     S 1
|151>      1    0.64 1.0
|152>     S 1
|153>      1    0.32 1.0
|154>     S 1
|155>      1    0.16 1.0
|156>     S 1
|157>      1    0.08 1.0
|158>     S 1
|159>      1    0.04 1.0
|160>     S 1
|161>      1    0.02 1.0
|162>     S 1
|163>      1    0.01 1.0
|164>   end
|165> end
|166> 
|167> * xyz 0 6
|168> 61  0.0 0.0 0.0
|169> *
|170> 
|171> 
|172>                          ****END OF INPUT****
================================================================================

                       ****************************
                       * Single Point Calculation *
                       ****************************

---------------------------------
CARTESIAN COORDINATES (ANGSTROEM)
---------------------------------
  Pm     0.000000    0.000000    0.000000

----------------------------
CARTESIAN COORDINATES (A.U.)
----------------------------
  NO LB      ZA    FRAG     MASS         X           Y           Z
   0 Pm   33.0000*   0   145.000    0.000000    0.000000    0.000000
* core charge reduced due to ECP

--------------------------------
INTERNAL COORDINATES (ANGSTROEM)
--------------------------------
 Pm     0   0   0     0.000000000000     0.00000000     0.00000000

---------------------------
INTERNAL COORDINATES (A.U.)
---------------------------
 Pm     0   0   0     0.000000000000     0.00000000     0.00000000

---------------------
BASIS SET INFORMATION
---------------------
There are 1 groups of distinct atoms

 Group   1 Type Pm  : 16s18p11d10f contracted to 11s8p6d5f pattern {61111111111/93111111/611111/61111}

Atom   0Pm   basis set group =>   1
---------------------------------
AUXILIARY/J BASIS SET INFORMATION
---------------------------------
There are 1 groups of distinct atoms

 Group   1 Type Pm  : 18s contracted to 18s pattern {111111111111111111}

Atom   0Pm   basis set group =>   1
-------------------------
ECP PARAMETER INFORMATION
-------------------------

 Group 1, Type Pm ECP (replacing 28 core electrons, lmax=5)

Atom   0Pm   ECP group =>   1

------------------------------------------------------------------------------
                           ORCA GTO INTEGRAL CALCULATION
------------------------------------------------------------------------------

                         BASIS SET STATISTICS AND STARTUP INFO

 # of primitive gaussian shells          ...   55
 # of primitive gaussian functions       ...  195
 # of contracted shells                  ...   30
 # of contracted basis functions         ...  100
 Highest angular momentum                ...    3
 Maximum contraction depth               ...    9
 Integral package used                   ... LIBINT
 Integral threshhold            Thresh   ...  1.000e-10
 Primitive cut-off              TCut     ...  1.000e-11
 Storage cut-off                TCutStore... -1.000e+00
 Buffer length                           ... 1048576 integrals/buffer
 Generate file with integrals 4 distinct ...false


------------------------------ INTEGRAL EVALUATION ----------------------------


 * One electron integrals 

   ECP integrals                         ... done
 Pre-screening matrix                    ... done
 Shell pair data                         ... done (   0.000 sec)
 Statistics run                          ... done
 Maximum amount of storage needed        ...   151 MB
 Maximum amount of storage dedicated     ... 500000 MB
 Beginning two electron integral evaluation:
 Starting repulsion integrals
  <ss|ss>  ...         2211 b.         0 skpd (  0.0%)     0.000 s. (  0.000 ms/b)
  <ss|sp>  ...         5808 b.         0 skpd (  0.0%)     0.001 s. (  0.000 ms/b)
  <ss|sd>  ...         4356 b.         0 skpd (  0.0%)     0.002 s. (  0.001 ms/b)
  <ss|sf>  ...         3630 b.         0 skpd (  0.0%)     0.003 s. (  0.001 ms/b)
  <ss|pp>  ...         2376 b.         0 skpd (  0.0%)     0.003 s. (  0.001 ms/b)
  <ss|pd>  ...         3168 b.         0 skpd (  0.0%)     0.004 s. (  0.001 ms/b)
  <ss|pf>  ...         2640 b.         0 skpd (  0.0%)     0.005 s. (  0.002 ms/b)
  <ss|dd>  ...         1386 b.         0 skpd (  0.0%)     0.003 s. (  0.002 ms/b)
  <ss|df>  ...         1980 b.         0 skpd (  0.0%)     0.006 s. (  0.003 ms/b)
  <ss|ff>  ...          990 b.         0 skpd (  0.0%)     0.005 s. (  0.005 ms/b)
  <sp|sp>  ...         3916 b.         0 skpd (  0.0%)     0.004 s. (  0.001 ms/b)
  <sp|sd>  ...         5808 b.         0 skpd (  0.0%)     0.007 s. (  0.001 ms/b)
  <sp|sf>  ...         4838 b.         2 skpd (  0.0%)     0.010 s. (  0.002 ms/b)
  <sp|pp>  ...         3168 b.         0 skpd (  0.0%)     0.009 s. (  0.003 ms/b)
  <sp|pd>  ...         4224 b.         0 skpd (  0.0%)     0.015 s. (  0.003 ms/b)
  <sp|pf>  ...         3520 b.         0 skpd (  0.0%)     0.021 s. (  0.006 ms/b)
  <sp|dd>  ...         1848 b.         0 skpd (  0.0%)     0.017 s. (  0.009 ms/b)
  <sp|df>  ...         2640 b.         0 skpd (  0.0%)     0.022 s. (  0.008 ms/b)
  <sp|ff>  ...         1320 b.         0 skpd (  0.0%)     0.021 s. (  0.016 ms/b)
  <sd|sd>  ...         2209 b.         2 skpd (  0.1%)     0.004 s. (  0.002 ms/b)
  <sd|sf>  ...         3619 b.        11 skpd (  0.3%)     0.013 s. (  0.003 ms/b)
  <sd|pp>  ...         2376 b.         0 skpd (  0.0%)     0.011 s. (  0.005 ms/b)
  <sd|pd>  ...         3168 b.         0 skpd (  0.0%)     0.026 s. (  0.008 ms/b)
  <sd|pf>  ...         2640 b.         0 skpd (  0.0%)     0.029 s. (  0.011 ms/b)
  <sd|dd>  ...         1386 b.         0 skpd (  0.0%)     0.016 s. (  0.011 ms/b)
  <sd|df>  ...         1980 b.         0 skpd (  0.0%)     0.037 s. (  0.018 ms/b)
  <sd|ff>  ...          990 b.         0 skpd (  0.0%)     0.038 s. (  0.038 ms/b)
  <sf|sf>  ...         1527 b.        13 skpd (  0.8%)     0.018 s. (  0.012 ms/b)
  <sf|pp>  ...         1980 b.         0 skpd (  0.0%)     0.021 s. (  0.011 ms/b)
  <sf|pd>  ...         2640 b.         0 skpd (  0.0%)     0.038 s. (  0.014 ms/b)
  <sf|pf>  ...         2200 b.         0 skpd (  0.0%)     0.057 s. (  0.026 ms/b)
  <sf|dd>  ...         1155 b.         0 skpd (  0.0%)     0.031 s. (  0.027 ms/b)
  <sf|df>  ...         1650 b.         0 skpd (  0.0%)     0.083 s. (  0.050 ms/b)
  <sf|ff>  ...          825 b.         0 skpd (  0.0%)     0.081 s. (  0.099 ms/b)
  <pp|pp>  ...          666 b.         0 skpd (  0.0%)     0.009 s. (  0.013 ms/b)
  <pp|pd>  ...         1728 b.         0 skpd (  0.0%)     0.024 s. (  0.014 ms/b)
  <pp|pf>  ...         1440 b.         0 skpd (  0.0%)     0.042 s. (  0.029 ms/b)
  <pp|dd>  ...          756 b.         0 skpd (  0.0%)     0.019 s. (  0.025 ms/b)
  <pp|df>  ...         1080 b.         0 skpd (  0.0%)     0.044 s. (  0.040 ms/b)
  <pp|ff>  ...          540 b.         0 skpd (  0.0%)     0.046 s. (  0.084 ms/b)
  <pd|pd>  ...         1176 b.         0 skpd (  0.0%)     0.029 s. (  0.025 ms/b)
  <pd|pf>  ...         1920 b.         0 skpd (  0.0%)     0.081 s. (  0.042 ms/b)
  <pd|dd>  ...         1008 b.         0 skpd (  0.0%)     0.041 s. (  0.041 ms/b)
  <pd|df>  ...         1440 b.         0 skpd (  0.0%)     0.107 s. (  0.074 ms/b)
  <pd|ff>  ...          720 b.         0 skpd (  0.0%)     0.109 s. (  0.151 ms/b)
  <pf|pf>  ...          820 b.         0 skpd (  0.0%)     0.079 s. (  0.097 ms/b)
  <pf|dd>  ...          840 b.         0 skpd (  0.0%)     0.070 s. (  0.084 ms/b)
  <pf|df>  ...         1200 b.         0 skpd (  0.0%)     0.190 s. (  0.158 ms/b)
  <pf|ff>  ...          600 b.         0 skpd (  0.0%)     0.207 s. (  0.346 ms/b)
  <dd|dd>  ...          231 b.         0 skpd (  0.0%)     0.028 s. (  0.119 ms/b)
  <dd|df>  ...          630 b.         0 skpd (  0.0%)     0.088 s. (  0.140 ms/b)
  <dd|ff>  ...          315 b.         0 skpd (  0.0%)     0.099 s. (  0.316 ms/b)
  <df|df>  ...          465 b.         0 skpd (  0.0%)     0.137 s. (  0.294 ms/b)
  <df|ff>  ...          450 b.         0 skpd (  0.0%)     0.255 s. (  0.566 ms/b)
  <ff|ff>  ...          120 b.         0 skpd (  0.0%)     0.193 s. (  1.609 ms/b)


                                      INTEGRAL STATISTICS

Integral type statistics:
 Number of integrals retained            ...   12752713 
 One   Center Integrals retained         ...   12752713 (100.0%)
 Two   Center Integrals retained         ...          0 (  0.0%)
 Three Center Integrals retained         ...          0 (  0.0%)
 Four  Center Integrals retained         ...          0 (  0.0%)

Storage statistics:
 Number of char integrals                ...          0 (  0.0%)
 Number of short int integrals           ...          0 (  0.0%)
 Number of double/float integrals        ...   12752713 (100.0%)
 Amount of memory used                   ...        158 MB
 Amount of memory estimated              ...        151 MB ( 95.6%)

Prescreening statistics:
 Total number of shell quadruples        ...     108345 
 Number of skipped shell quadruples      ...         47 (  0.0%)
 # of negligible batches done            ...          0 (  0.0%)

Timings:
 Total evaluation time               ...     3.019 sec (   0.050 min)
 One electron matrix time            ...     0.074 sec (   0.001 min) =  2.4%
 Schwartz matrix evaluation time     ...     0.215 sec (   0.004 min) =  7.1%
 Statistics run                      ...     0.091 sec (   0.002 min) =  3.0%
 Repulsion integral time             ...     2.559 sec (   0.043 min) = 84.8%

-------------------------------------------------------------------------------
                                 ORCA SCF
-------------------------------------------------------------------------------

------------
SCF SETTINGS
------------
Hamiltonian:
 Ab initio Hamiltonian  Method          .... Hartree-Fock(GTOs)


General Settings:
 Integral files         IntName         .... 61_Pm_atom61
 Hartree-Fock type      HFTyp           .... ROHF
 Total Charge           Charge          ....    0
 Multiplicity           Mult            ....    6
 Number of Electrons    NEL             ....   33
 Basis Dimension        Dim             ....  100
 Nuclear Repulsion      ENuc            ....      0.0000000000 Eh

Convergence Acceleration:
 DIIS                   CNVDIIS         .... on
   Start iteration      DIISMaxIt       ....    12
   Startup error        DIISStart       ....  0.200000
   # of expansion vecs  DIISMaxEq       ....     5
   Bias factor          DIISBfac        ....   1.050
   Max. coefficient     DIISMaxC        ....  10.000
 Newton-Raphson         CNVNR           .... off
 SOSCF                  CNVSOSCF        .... off
 Level Shifting         CNVShift        .... on
   Level shift para.    LevelShift      ....    0.6000
   Turn off err/grad.   ShiftErr        ....    0.0010
 Zerner damping         CNVZerner       .... off
 Static damping         CNVDamp         .... on
   Fraction old density DampFac         ....    0.7000
   Max. Damping (<1)    DampMax         ....    0.9800
   Min. Damping (>=0)   DampMin         ....    0.0000
   Turn off err/grad.   DampErr         ....    0.1000
 Fernandez-Rico         CNVRico         .... off

SCF Procedure:
 Maximum # iterations   MaxIter         ....  1000
 SCF integral mode      SCFMode         .... Conventional
 Integral Threshold     Thresh          ....  1.000e-10 Eh
 Primitive CutOff       TCut            ....  1.000e-11 Eh
 Integral Buffer length BufferLength    .... 1048576
 Integral index format  IndFormat       ....     0
 Integral value format  ValFormat       ....     0
 Integral Storage       Thresh          ....  1.000e-10 Eh

Convergence Tolerance:
 Convergence Check Mode ConvCheckMode   .... Total+1el-Energy
 Convergence forced     ConvForced      .... 0
 Energy Change          TolE            ....  1.000e-06 Eh
 1-El. energy change                    ....  1.000e-03 Eh
 DIIS Error             TolErr          ....  1.000e-06


Diagonalization of the overlap matrix:
Smallest eigenvalue                        ... 1.378e-03
Time for diagonalization                   ...    0.001 sec
Threshold for overlap eigenvalues          ... 1.000e-08
Number of eigenvalues below threshold      ... 0
Time for construction of square roots      ...    0.002 sec
Total time needed                          ...    0.004 sec

--------------------
INITIAL GUESS: HCORE
--------------------
AVERAGE-CONFIGURATION (SAHF) CASE FOUND

-------------------
FINAL ROHF SETTINGS
-------------------
Number of operators             ... 2
  operator   0:  14 orbitals  28 electrons n(mue)= 2.000
  operator   1:   7 orbitals   5 electrons n(mue)= 0.714
Vector coupling coefficients a and b (Zerner convention):
   1.000    1.000           1.000    1.000 
   1.000    0.933           1.000    1.867 

                      -----------------
                      INTIAL GUESS DONE 
                      -----------------

 InCore treatment chosen:
   Memory dedicated               ...    1024 MB
   Memory needed                  ...    158 MB
   Number of tiny    integrals    ...       0
   Number of small   integrals    ...       0
   Number of regular integrals    ... 12752713

--------------
SCF ITERATIONS
--------------
ITER       Energy         Delta-E        Max-DP      RMS-DP      [F,P]     Damp
  0   -479.2677082549   0.000000000000 6.79938737  0.12261813  5.6903915 0.7000
  1   -516.3014559344 -37.033747679439 3.19977870  0.05400936  1.5419813 0.7000
  2   -571.8003321389 -55.498876204503 2.23985335  0.03820335  1.6626717 0.7000
  3   -586.4128308212 -14.612498682329 1.56789734  0.02698105  0.3529656 0.7000
                            ****Activating DIIS****
  4   -592.3935160636  -5.980685242410 1.09752814  0.01874284  0.1235975 0.7000
  5   -596.4894045139  -4.095888450324 2.56089899  0.04409377  0.0933719 0.0000
  6   -606.1791144316  -9.689709917641 0.04078169  0.00050874  0.2049246 0.7000
  7   -606.2070699598  -0.027955528267 0.14062790  0.00198300  0.1826697 0.7000
  8   -606.2891952938  -0.082125334009 0.27027552  0.00374095  0.1056910 0.7000
  9   -606.3729670932  -0.083771799398 0.97890767  0.01116523  0.0521001 0.0000
 10   -606.4608901870  -0.087923093720 0.03050346  0.00041099  0.0428931 0.0000
 11   -606.4614143195  -0.000524132527 0.10545368  0.00118645  0.0444368 0.0000
 12   -606.4668319210  -0.005417601560 0.30861764  0.00344779  0.0396971 0.0000
 13   -606.4789702587  -0.012138337650 0.17837212  0.00180571  0.0232157 0.0000
 14   -606.4833688981  -0.004398639446 0.08001792  0.00093512  0.0158721 0.0000
 15   -606.4855013162  -0.002132418059 0.06518018  0.00077461  0.0133914 0.0000
 16   -606.4872763981  -0.001775081945 0.05665553  0.00075743  0.0097523 0.0000
 17   -606.4882720998  -0.000995701687 0.06790986  0.00055501  0.0054888 0.0000
 18   -606.4884997040  -0.000227604175 0.08761360  0.00069977  0.0039029 0.0000
 19   -606.4886669142  -0.000167210181 0.09421965  0.00075519  0.0025982 0.0000
 20   -606.4887749702  -0.000108056004 0.04402353  0.00035434  0.0011915 0.0000
 21   -606.4887988030  -0.000023832839 0.02317893  0.00018706  0.0004806 0.0000
 22   -606.4888036281  -0.000004825109 0.00758105  0.00006150  0.0001360 0.0000
                 **** Energy Check signals convergence ****

               *****************************************************
               *                     SUCCESS                       *
               *           SCF CONVERGED AFTER  23 CYCLES          *
               *****************************************************


----------------
TOTAL SCF ENERGY
----------------

Total Energy       :         -606.48880403 Eh          -16503.39937 eV

Components:
Nuclear Repulsion  :            0.00000000 Eh               0.00000 eV
Electronic Energy  :         -606.48880403 Eh          -16503.39937 eV
One Electron Energy:        -1062.44855516 Eh          -28910.69498 eV
Two Electron Energy:          455.95975113 Eh           12407.29560 eV

Virial components:
Potential Energy   :         -884.07441764 Eh          -24056.88793 eV
Kinetic Energy     :          277.58561361 Eh            7553.48856 eV
Virial Ratio       :            3.18487117


---------------
SCF CONVERGENCE
---------------

  Last Energy change         ...   -4.0163e-07  Tolerance :   1.0000e-06
  Last MAX-Density change    ...    1.5576e-03  Tolerance :   1.0000e-05
  Last RMS-Density change    ...    1.3071e-05  Tolerance :   1.0000e-06
  Last DIIS Error            ...    1.0341e-04  Tolerance :   1.0000e-06

             **** THE GBW FILE WAS UPDATED (61_Pm_atom61.gbw) ****
             **** DENSITY FILE WAS UPDATED (61_Pm_atom61.scfp) ****
             **** ENERGY FILE WAS UPDATED (61_Pm_atom61.en.tmp) ****
             **** THE GBW FILE WAS UPDATED (61_Pm_atom61.gbw) ****
             **** DENSITY FILE WAS UPDATED (61_Pm_atom61.scfp) ****
----------------
ORBITAL ENERGIES
----------------

  NO   OCC          E(Eh)            E(eV) 
   0   2.0000     -13.595639      -369.9562 
   1   2.0000      -9.826950      -267.4049 
   2   2.0000      -9.826946      -267.4048 
   3   2.0000      -9.826941      -267.4047 
   4   2.0000      -5.164135      -140.5233 
   5   2.0000      -5.164133      -140.5232 
   6   2.0000      -5.164128      -140.5231 
   7   2.0000      -5.164123      -140.5229 
   8   2.0000      -5.164121      -140.5229 
   9   2.0000      -1.932476       -52.5853 
  10   2.0000      -1.034320       -28.1453 
  11   2.0000      -1.034294       -28.1446 
  12   2.0000      -1.034263       -28.1437 
  13   2.0000      -0.177221        -4.8224 
  14   0.7143      -0.461703       -12.5636 
  15   0.7143      -0.461702       -12.5635 
  16   0.7143      -0.461698       -12.5634 
  17   0.7143      -0.461696       -12.5634 
  18   0.7143      -0.461694       -12.5633 
  19   0.7143      -0.461658       -12.5624 
  20   0.7143      -0.461654       -12.5623 
  21   0.0000      -0.030846        -0.8394 
  22   0.0000      -0.030842        -0.8393 
  23   0.0000      -0.030837        -0.8391 
  24   0.0000       0.007001         0.1905 
  25   0.0000      -0.019934        -0.5424 
  26   0.0000      -0.019930        -0.5423 
  27   0.0000      -0.019906        -0.5417 
  28   0.0000      -0.019886        -0.5411 
  29   0.0000      -0.019881        -0.5410 
  30   0.0000       0.120027         3.2661 
  31   0.0000       0.120046         3.2666 
  32   0.0000       0.120068         3.2672 
  33   0.0000       0.196233         5.3398 
  34   0.0000       0.223290         6.0760 
  35   0.0000       0.223294         6.0761 
  36   0.0000       0.223329         6.0771 
  37   0.0000       0.223359         6.0779 
  38   0.0000       0.223366         6.0781 
  39   0.0000       0.469175        12.7669 
  40   0.0000       0.469179        12.7670 
  41   0.0000       0.469226        12.7683 
  42   0.0000       0.469222        12.7682 
  43   0.0000       0.469242        12.7687 
  44   0.0000       0.469277        12.7697 
  45   0.0000       0.469278        12.7697 
  46   0.0000       0.672371        18.2961 
  47   0.0000       0.672413        18.2973 
  48   0.0000       0.672462        18.2986 
  49   0.0000       1.223970        33.3059 
  50   0.0000       1.223974        33.3060 
  51   0.0000       1.224009        33.3070 
  52   0.0000       1.224039        33.3078 
  53   0.0000       1.224045        33.3080 
  54   0.0000       1.430828        38.9348 
  55   0.0000       1.430834        38.9350 
  56   0.0000       1.430873        38.9360 
  57   0.0000       1.430870        38.9360 
  58   0.0000       1.430887        38.9364 
  59   0.0000       1.430915        38.9372 
  60   0.0000       1.430917        38.9372 
  61   0.0000       1.470029        40.0015 
  62   0.0000       2.613309        71.1117 
  63   0.0000       2.613342        71.1127 
  64   0.0000       2.613382        71.1137 
  65   0.0000       3.600390        97.9716 
  66   0.0000       3.600395        97.9717 
  67   0.0000       3.600416        97.9723 
  68   0.0000       3.600416        97.9723 
  69   0.0000       3.600426        97.9726 
  70   0.0000       3.600442        97.9730 
  71   0.0000       3.600443        97.9730 
  72   0.0000       4.942866       134.5022 
  73   0.0000       4.942867       134.5022 
  74   0.0000       4.942879       134.5026 
  75   0.0000       4.942890       134.5029 
  76   0.0000       4.942891       134.5029 
  77   0.0000       8.009855       217.9592 
  78   0.0000       8.297177       225.7777 
  79   0.0000       8.297183       225.7778 
  80   0.0000       8.297184       225.7779 
  81   0.0000       8.297189       225.7780 
  82   0.0000       8.297190       225.7780 
  83   0.0000       8.297193       225.7781 
  84   0.0000       8.297196       225.7782 
  85   0.0000       9.464506       257.5423 
  86   0.0000       9.464513       257.5425 
  87   0.0000       9.464523       257.5428 
  88   0.0000      16.195142       440.6922 
  89   0.0000      16.195142       440.6922 
  90   0.0000      16.195144       440.6923 
  91   0.0000      16.195144       440.6923 
  92   0.0000      16.195143       440.6923 
  93   0.0000      37.012068      1007.1496 
  94   0.0000      47.366576      1288.9101 
  95   0.0000      47.366578      1288.9101 
  96   0.0000      47.366581      1288.9102 
  97   0.0000      59.984650      1632.2653 
  98   0.0000     210.684602      5733.0195 
  99   0.0000     495.026289     13470.3501 
CleanUpVectors: The p-vectors have cracked symmetry
CleanUpVectors: The p-vectors have cracked symmetry
CleanUpVectors: The p-vectors have cracked symmetry
CleanUpVectors: The d-vectors have cracked symmetry at i=4
CleanUpVectors: The d-vectors have cracked symmetry at i=5
CleanUpVectors: The d-vectors have cracked symmetry at i=6
CleanUpVectors: The d-vectors have cracked symmetry at i=7
CleanUpVectors: The d-vectors have cracked symmetry at i=8
CleanUpVectors: The p-vectors have cracked symmetry
CleanUpVectors: The p-vectors have cracked symmetry
CleanUpVectors: The p-vectors have cracked symmetry
CleanUpVectors: The f-vectors have cracked symmetry
CleanUpVectors: The f-vectors have cracked symmetry
CleanUpVectors: The f-vectors have cracked symmetry
CleanUpVectors: The f-vectors have cracked symmetry
CleanUpVectors: The f-vectors have cracked symmetry
CleanUpVectors: The f-vectors have cracked symmetry
CleanUpVectors: The f-vectors have cracked symmetry
CleanUpVectors: The p-vectors have cracked symmetry
CleanUpVectors: The p-vectors have cracked symmetry
CleanUpVectors: The p-vectors have cracked symmetry
CleanUpVectors: The d-vectors have cracked symmetry at i=25
CleanUpVectors: The d-vectors have cracked symmetry at i=26
CleanUpVectors: The d-vectors have cracked symmetry at i=27
CleanUpVectors: The d-vectors have cracked symmetry at i=28
CleanUpVectors: The d-vectors have cracked symmetry at i=29
CleanUpVectors: The p-vectors have cracked symmetry
CleanUpVectors: The p-vectors have cracked symmetry
CleanUpVectors: The p-vectors have cracked symmetry
CleanUpVectors: The d-vectors have cracked symmetry at i=34
CleanUpVectors: The d-vectors have cracked symmetry at i=35
CleanUpVectors: The d-vectors have cracked symmetry at i=36
CleanUpVectors: The d-vectors have cracked symmetry at i=37
CleanUpVectors: The d-vectors have cracked symmetry at i=38
CleanUpVectors: The f-vectors have cracked symmetry
CleanUpVectors: The f-vectors have cracked symmetry
CleanUpVectors: The f-vectors have cracked symmetry
CleanUpVectors: The f-vectors have cracked symmetry
CleanUpVectors: The f-vectors have cracked symmetry
CleanUpVectors: The f-vectors have cracked symmetry
CleanUpVectors: The f-vectors have cracked symmetry
CleanUpVectors: The p-vectors have cracked symmetry
CleanUpVectors: The p-vectors have cracked symmetry
CleanUpVectors: The p-vectors have cracked symmetry
CleanUpVectors: The d-vectors have cracked symmetry at i=49
CleanUpVectors: The d-vectors have cracked symmetry at i=50
CleanUpVectors: The d-vectors have cracked symmetry at i=51
CleanUpVectors: The d-vectors have cracked symmetry at i=52
CleanUpVectors: The d-vectors have cracked symmetry at i=53
CleanUpVectors: The f-vectors have cracked symmetry
CleanUpVectors: The f-vectors have cracked symmetry
CleanUpVectors: The f-vectors have cracked symmetry
CleanUpVectors: The f-vectors have cracked symmetry
CleanUpVectors: The f-vectors have cracked symmetry
CleanUpVectors: The f-vectors have cracked symmetry
CleanUpVectors: The f-vectors have cracked symmetry
CleanUpVectors: The p-vectors have cracked symmetry
CleanUpVectors: The p-vectors have cracked symmetry
CleanUpVectors: The p-vectors have cracked symmetry
CleanUpVectors: The f-vectors have cracked symmetry
CleanUpVectors: The f-vectors have cracked symmetry
CleanUpVectors: The f-vectors have cracked symmetry
CleanUpVectors: The f-vectors have cracked symmetry
CleanUpVectors: The f-vectors have cracked symmetry
CleanUpVectors: The f-vectors have cracked symmetry
CleanUpVectors: The f-vectors have cracked symmetry
CleanUpVectors: The d-vectors have cracked symmetry at i=72
CleanUpVectors: The d-vectors have cracked symmetry at i=73
CleanUpVectors: The d-vectors have cracked symmetry at i=74
CleanUpVectors: The d-vectors have cracked symmetry at i=75
CleanUpVectors: The d-vectors have cracked symmetry at i=76
CleanUpVectors: The f-vectors have cracked symmetry
CleanUpVectors: The f-vectors have cracked symmetry
CleanUpVectors: The f-vectors have cracked symmetry
CleanUpVectors: The f-vectors have cracked symmetry
CleanUpVectors: The f-vectors have cracked symmetry
CleanUpVectors: The f-vectors have cracked symmetry
CleanUpVectors: The f-vectors have cracked symmetry
CleanUpVectors: The p-vectors have cracked symmetry
CleanUpVectors: The p-vectors have cracked symmetry
CleanUpVectors: The p-vectors have cracked symmetry
--------------------------
ATOM BASIS FOR ELEMENT Pm
--------------------------
 NewGTO Pm
 S 16
    1     171857.151030000008        -0.000009280184
    2      25926.773825000000        -0.000072314232
    3       6014.550263700000        -0.000339955934
    4       1704.297716900000        -0.001390432549
    5        553.622695750000        -0.003135467465
    6        186.360654410000        -0.005939207877
    7         40.979326743000         0.131924416234
    8         26.943620151000        -0.557915242471
    9         13.920657033000         1.048405996727
   10          3.512505808700        -0.944692393755
   11          1.857781555800        -0.435310067071
   12          0.739778006500        -0.029835936710
   13          0.334865721900         0.004084157421
   14          0.076278739200        -0.001614197386
   15          0.037612601700         0.001157475198
   16          0.015384156500        -0.000311421215
 P 55
    1       3785.836598600000         0.000007539641
    2       1040.622999300000         0.000023378370
    3        359.725333340000         0.000213145615
    4        129.497429940000         0.000428021245
    5         33.998828377000         0.002215679943
    6         28.652862979000         0.006058402236
    7         13.632478963000        -0.058422786048
    8          7.471537588000         0.047073247626
    9          3.811701564000         0.148208750036
   10       3785.836598600000        -0.000023253927
   11       1040.622999300000        -0.000072104089
   12        359.725333340000        -0.000657388442
   13        129.497429940000        -0.001320112636
   14         33.998828377000        -0.006833649322
   15         28.652862979000        -0.018685458821
   16         13.632478963000         0.180188855147
   17          7.471537588000        -0.145184356508
   18          3.811701564000        -0.457108720728
   19       3785.836598600000        -0.000022124550
   20       1040.622999300000        -0.000068602198
   21        359.725333340000        -0.000625460954
   22        129.497429940000        -0.001255998516
   23         33.998828377000        -0.006501758391
   24         28.652862979000        -0.017777959179
   25         13.632478963000         0.171437594442
   26          7.471537588000        -0.138133164839
   27          3.811701564000        -0.434908248992
   28         27.458309393000         0.003150699415
   29         12.656919738000        -0.013499060013
   30          7.477068910100        -0.004221391856
   31         27.458309393000        -0.009717473535
   32         12.656919738000         0.041634171068
   33          7.477068910100         0.013019732524
   34         27.458309393000        -0.009245524278
   35         12.656919738000         0.039612121198
   36          7.477068910100         0.012387402210
   37          1.940089181800         0.080240865867
   38          1.940089181800        -0.247481398184
   39          1.940089181800        -0.235461966960
   40          0.897625771800         0.011410563500
   41          0.897625771800        -0.035192619234
   42          0.897625771800        -0.033483408169
   43          0.419059600700        -0.000982159596
   44          0.419059600700         0.003029340954
   45          0.419059600700         0.002882221078
   46          0.188232180800         0.000531798948
   47          0.188232180800        -0.001640182509
   48          0.188232180800        -0.001560523292
   49          0.067000000000        -0.000216534002
   50          0.067000000000         0.000667846664
   51          0.067000000000         0.000635411576
   52          0.030000000000         0.000076237283
   53          0.030000000000        -0.000235136081
   54          0.030000000000        -0.000223716337
   55        157.813454120000        -0.000000123018
 D 55
    1     171857.151030000008        -0.000000000000
    2      25926.773825000000        -0.000000000000
    3       6014.550263700000        -0.000000000000
    4       1704.297716900000        -0.000000000001
    5        553.622695750000        -0.000000000004
    6        186.360654410000        -0.000000000023
    7         40.979326743000         0.000000001266
    8         26.943620151000        -0.000000008865
    9         13.920657033000         0.000000037559
   10          3.512505808700        -0.000000382103
   11          1.857781555800         0.000000493762
   12          0.739778006500         0.000000706395
   13          0.334865721900        -0.000001782092
   14        595.740089250000        -0.000049402760
   15        193.096964650000        -0.000484063741
   16         80.046899000000        -0.001371420367
   17         41.801970074000        -0.005252104490
   18          9.284122203500         0.000021310412
   19          6.561879551400        -0.155822106121
   20        595.740089250000         0.000006857355
   21        193.096964650000         0.000067190519
   22         80.046899000000         0.000190360150
   23         41.801970074000         0.000729018923
   24          9.284122203500        -0.000002957994
   25          6.561879551400         0.021628904028
   26        595.740089250000        -0.000027820474
   27        193.096964650000        -0.000272593732
   28         80.046899000000        -0.000772296218
   29         41.801970074000        -0.002957649261
   30          9.284122203500         0.000012000661
   31          6.561879551400        -0.087749041898
   32        595.740089250000        -0.000002384499
   33        193.096964650000        -0.000023364067
   34         80.046899000000        -0.000066193674
   35         41.801970074000        -0.000253500751
   36          9.284122203500         0.000001028579
   37          6.561879551400        -0.007520989161
   38        595.740089250000         0.000094042595
   39        193.096964650000         0.000921458844
   40         80.046899000000         0.002610621949
   41         41.801970074000         0.009997853021
   42          9.284122203500        -0.000040566285
   43          6.561879551400         0.296621386207
   44          3.176795216200        -0.221745802886
   45          3.176795216200         0.030779443737
   46          3.176795216200        -0.124873077613
   47          3.176795216200        -0.010702903568
   48          3.176795216200         0.422112964774
   49          1.478769364700        -0.113637006621
   50          1.478769364700         0.015773397046
   51          1.478769364700        -0.063993103013
   52          1.478769364700        -0.005484866868
   53          1.478769364700         0.216318317458
   54          0.595780369200        -0.015153872009
   55          0.595780369200         0.002103448920
 S 16
    1     171857.151030000008        -0.000005705059
    2      25926.773825000000        -0.000044455692
    3       6014.550263700000        -0.000208990347
    4       1704.297716900000        -0.000854778374
    5        553.622695750000        -0.001927551095
    6        186.360654410000        -0.003651170607
    7         40.979326743000         0.053218665697
    8         26.943620151000        -0.249203731460
    9         13.920657033000         0.524198011688
   10          3.512505808700        -0.690587072757
   11          1.857781555800        -0.502914262560
   12          0.739778006500         0.638215537399
   13          0.334865721900         0.747372125681
   14          0.076278739200         0.058168743613
   15          0.037612601700        -0.027999945008
   16          0.015384156500         0.006421309876
 P 55
    1       3785.836598600000        -0.000012543206
    2       1040.622999300000        -0.000038893061
    3        359.725333340000        -0.000354596376
    4        129.497429940000        -0.000712070865
    5         33.998828377000        -0.003686081361
    6         28.652862979000        -0.010078966339
    7         13.632478963000         0.097194156325
    8          7.471537588000        -0.078312673838
    9          3.811701564000        -0.246565174210
   10       3785.836598600000        -0.000009971760
   11       1040.622999300000        -0.000030919710
   12        359.725333340000        -0.000281901622
   13        129.497429940000        -0.000566091324
   14         33.998828377000        -0.002930408728
   15         28.652862979000        -0.008012707271
   16         13.632478963000         0.077268669911
   17          7.471537588000        -0.062258024283
   18          3.811701564000        -0.196017577372
   19       3785.836598600000         0.000007257187
   20       1040.622999300000         0.000022502559
   21        359.725333340000         0.000205160656
   22        129.497429940000         0.000411986516
   23         33.998828377000         0.002132675121
   24         28.652862979000         0.005831439584
   25         13.632478963000        -0.056234124759
   26          7.471537588000         0.045309767967
   27          3.811701564000         0.142656485658
   28         27.458309393000        -0.000204378801
   29         12.656919738000         0.000875653733
   30          7.477068910100         0.000273832218
   31         27.458309393000        -0.000162481433
   32         12.656919738000         0.000696145941
   33          7.477068910100         0.000217696996
   34         27.458309393000         0.000118249559
   35         12.656919738000        -0.000506636045
   36          7.477068910100        -0.000158433941
   37          1.940089181800        -0.134836327005
   38          1.940089181800        -0.107193982037
   39          1.940089181800         0.078012980192
   40          0.897625771800         0.253758255860
   41          0.897625771800         0.201735734156
   42          0.897625771800        -0.146818040474
   43          0.419059600700         0.423968305892
   44          0.419059600700         0.337052351492
   45          0.419059600700        -0.245297861909
   46          0.188232180800         0.178387668295
   47          0.188232180800         0.141816797797
   48          0.188232180800        -0.103210582887
   49          0.067000000000         0.011429697419
   50          0.067000000000         0.009087253359
   51          0.067000000000        -0.006613407405
   52          0.030000000000         0.000176610428
   53          0.030000000000         0.000140202077
   54          0.030000000000        -0.000102042054
   55        157.813454120000         0.000000390683
 S 16
    1     171857.151030000008        -0.000002208084
    2      25926.773825000000        -0.000017206118
    3       6014.550263700000        -0.000080887562
    4       1704.297716900000        -0.000330833168
    5        553.622695750000        -0.000746038803
    6        186.360654410000        -0.001413147987
    7         40.979326743000         0.024517765060
    8         26.943620151000        -0.102200598142
    9         13.920657033000         0.204130585565
   10          3.512505808700        -0.356084454373
   11          1.857781555800         0.041163058380
   12          0.739778006500        -0.246999265161
   13          0.334865721900         1.656162691051
   14          0.076278739200        -5.139098372192
   15          0.037612601700         5.524115519154
   16          0.015384156500        -1.738201815681
 S 16
    1     171857.151030000008        -0.000004615630
    2      25926.773825000000        -0.000035966504
    3       6014.550263700000        -0.000169081885
    4       1704.297716900000        -0.000691551266
    5        553.622695750000        -0.001559469027
    6        186.360654410000        -0.002953948919
    7         40.979326743000        -0.001909568362
    8         26.943620151000        -0.099673524614
    9         13.920657033000         0.326375603170
   10          3.512505808700         0.072347090132
   11          1.857781555800        -2.709431557909
   12          0.739778006500         6.244606535384
   13          0.334865721900        -5.424311835099
   14          0.076278739200         3.436220931920
   15          0.037612601700        -2.586568119693
   16          0.015384156500         0.693561903109
 S 16
    1     171857.151030000008         0.000024805648
    2      25926.773825000000         0.000193293735
    3       6014.550263700000         0.000908691839
    4       1704.297716900000         0.003716583785
    5        553.622695750000         0.008381008878
    6        186.360654410000         0.015875321464
    7         40.979326743000        -0.373261866045
    8         26.943620151000         1.269512111260
    9         13.920657033000        -2.287789683684
   10          3.512505808700         7.787508440817
   11          1.857781555800       -10.626790070981
   12          0.739778006500         7.182173642970
   13          0.334865721900        -3.476649968278
   14          0.076278739200         1.466338254902
   15          0.037612601700        -1.073957407032
   16          0.015384156500         0.289428473276
 S 16
    1     171857.151030000008         0.000799560035
    2      25926.773825000000         0.006230433789
    3       6014.550263700000         0.029289849184
    4       1704.297716900000         0.119796584283
    5        553.622695750000         0.270144921941
    6        186.360654410000         0.511708976824
    7         40.979326743000         0.577244181954
    8         26.943620151000        -1.003491774767
    9         13.920657033000         1.060749570958
   10          3.512505808700        -1.065710330371
   11          1.857781555800         1.029939363895
   12          0.739778006500        -0.526875096467
   13          0.334865721900         0.235876936687
   14          0.076278739200        -0.099743468500
   15          0.037612601700         0.073813505162
   16          0.015384156500        -0.020083675866
 S 16
    1     171857.151030000008         0.000235641086
    2      25926.773825000000         0.001836192553
    3       6014.550263700000         0.008632112108
    4       1704.297716900000         0.035305663038
    5        553.622695750000         0.079615338305
    6        186.360654410000         0.150807511061
    7         40.979326743000        -3.731947217291
    8         26.943620151000         8.918685641578
    9         13.920657033000        -7.767803152269
   10          3.512505808700         5.728663142372
   11          1.857781555800        -5.202810867194
   12          0.739778006500         2.573559321973
   13          0.334865721900        -1.146798662438
   14          0.076278739200         0.486370936872
   15          0.037612601700        -0.360440176831
   16          0.015384156500         0.098185440414
 S 16
    1     171857.151030000008        -0.000131331652
    2      25926.773825000000        -0.001023379264
    3       6014.550263700000        -0.004811001177
    4       1704.297716900000        -0.019677175679
    5        553.622695750000        -0.044372626479
    6        186.360654410000        -0.084050705567
    7         40.979326743000        -6.522193839093
    8         26.943620151000        11.733075062648
    9         13.920657033000        -5.957211889057
   10          3.512505808700         2.784199828149
   11          1.857781555800        -2.382785381403
   12          0.739778006500         1.153631151050
   13          0.334865721900        -0.515040438230
   14          0.076278739200         0.220122036423
   15          0.037612601700        -0.163486874336
   16          0.015384156500         0.044608269851
 S 16
    1     171857.151030000008        -0.001136864815
    2      25926.773825000000        -0.008858823161
    3       6014.550263700000        -0.041646152283
    4       1704.297716900000        -0.170334328478
    5        553.622695750000        -0.384109064094
    6        186.360654410000        -0.727580051345
    7         40.979326743000         8.651722970837
    8         26.943620151000       -11.188832379971
    9         13.920657033000         4.537511247433
   10          3.512505808700        -1.895892284578
   11          1.857781555800         1.612176780461
   12          0.739778006500        -0.781189368781
   13          0.334865721900         0.349610629021
   14          0.076278739200        -0.149852345087
   15          0.037612601700         0.111369588895
   16          0.015384156500        -0.030401813477
 P 55
    1       3785.836598600000        -0.000012082255
    2       1040.622999300000        -0.000037463778
    3        359.725333340000        -0.000341565298
    4        129.497429940000        -0.000685902941
    5         33.998828377000        -0.003550621392
    6         28.652862979000        -0.009708573952
    7         13.632478963000         0.093622363910
    8          7.471537588000        -0.075434757871
    9          3.811701564000        -0.237504139552
   10       3785.836598600000         0.000007859431
   11       1040.622999300000         0.000024369954
   12        359.725333340000         0.000222186097
   13        129.497429940000         0.000446175588
   14         33.998828377000         0.002309657085
   15         28.652862979000         0.006315366845
   16         13.632478963000        -0.060900764200
   17          7.471537588000         0.049069839830
   18          3.811701564000         0.154494962478
   19       3785.836598600000        -0.000010083467
   20       1040.622999300000        -0.000031266083
   21        359.725333340000        -0.000285059586
   22        129.497429940000        -0.000572432883
   23         33.998828377000        -0.002963236223
   24         28.652862979000        -0.008102468508
   25         13.632478963000         0.078134261423
   26          7.471537588000        -0.062955461128
   27          3.811701564000        -0.198213436981
   28         27.458309393000        -0.000196874216
   29         12.656919738000         0.000843500605
   30          7.477068910100         0.000263777373
   31         27.458309393000         0.000128066522
   32         12.656919738000        -0.000548696478
   33          7.477068910100        -0.000171586973
   34         27.458309393000        -0.000164306832
   35         12.656919738000         0.000703966802
   36          7.477068910100         0.000220142715
   37          1.940089181800        -0.129882835883
   38          1.940089181800         0.084488003698
   39          1.940089181800        -0.108396160656
   40          0.897625771800         0.244437350915
   41          0.897625771800        -0.159004776346
   42          0.897625771800         0.203999371771
   43          0.419059600700         0.408379379196
   44          0.419059600700        -0.265648598827
   45          0.419059600700         0.340821063979
   46          0.188232180800         0.171836847306
   47          0.188232180800        -0.111778673800
   48          0.188232180800         0.143409452529
   49          0.067000000000         0.011028278492
   50          0.067000000000        -0.007174334315
   51          0.067000000000         0.009204583518
   52          0.030000000000         0.000170447460
   53          0.030000000000        -0.000110717183
   54          0.030000000000         0.000142049784
   55        157.813454120000         0.000002688215
 F 55
    1       3785.836598600000         0.000000000000
    2       1040.622999300000         0.000000000000
    3        359.725333340000         0.000000000000
    4        129.497429940000         0.000000000000
    5         33.998828377000         0.000000000009
    6         28.652862979000         0.000000000028
    7         13.632478963000        -0.000000000569
    8          7.471537588000         0.000000000837
    9          3.811701564000         0.000000005164
   10       3785.836598600000         0.000000000000
   11       1040.622999300000         0.000000000000
   12        359.725333340000         0.000000000001
   13        129.497429940000         0.000000000007
   14         33.998828377000         0.000000000142
   15         28.652862979000         0.000000000460
   16         13.632478963000        -0.000000009328
   17          7.471537588000         0.000000013714
   18          3.811701564000         0.000000084637
   19       3785.836598600000         0.000000000000
   20       1040.622999300000         0.000000000000
   21        359.725333340000         0.000000000001
   22        129.497429940000         0.000000000006
   23         33.998828377000         0.000000000111
   24         28.652862979000         0.000000000362
   25         13.632478963000        -0.000000007328
   26          7.471537588000         0.000000010773
   27          3.811701564000         0.000000066488
   28         12.656919738000         0.000000000066
   29         27.458309393000        -0.000000000056
   30         12.656919738000         0.000000000519
   31          7.477068910100         0.000000000275
   32         27.458309393000        -0.000000000049
   33         12.656919738000         0.000000000456
   34          7.477068910100         0.000000000241
   35          1.940089181800         0.000000045688
   36          1.940089181800         0.000000042779
   37          0.897625771800        -0.000000160005
   38          0.897625771800        -0.000000798109
   39          0.897625771800        -0.000000503722
   40          0.419059600700         0.000001311744
   41          0.419059600700         0.000002218139
   42          0.188232180800        -0.000001652564
   43          0.188232180800        -0.000001888467
   44          0.188232180800         0.000001092425
   45          0.067000000000        -0.000017781404
   46          0.067000000000        -0.000045461456
   47          0.067000000000        -0.000014032089
   48        157.813454120000         0.000137006853
   49         58.276131007000         0.001443528726
   50         27.355505927000         0.006231439145
   51         13.394670219000         0.014601445645
   52          6.768275597600         0.024057514006
   53          3.364199171800         0.031907082591
   54        157.813454120000         0.000121869976
   55         58.276131007000         0.001284043885
 P 55
    1       3785.836598600000        -0.000002223215
    2       1040.622999300000        -0.000006893585
    3        359.725333340000        -0.000062850289
    4        129.497429940000        -0.000126210707
    5         33.998828377000        -0.000653337972
    6         28.652862979000        -0.001786442237
    7         13.632478963000         0.017227138199
    8          7.471537588000        -0.013880497613
    9          3.811701564000        -0.043702342730
   10       3785.836598600000         0.000001417724
   11       1040.622999300000         0.000004395975
   12        359.725333340000         0.000040079043
   13        129.497429940000         0.000080483391
   14         33.998828377000         0.000416627535
   15         28.652862979000         0.001139197561
   16         13.632478963000        -0.010985585438
   17          7.471537588000         0.008851463934
   18          3.811701564000         0.027868576565
   19       3785.836598600000        -0.000001837118
   20       1040.622999300000        -0.000005696403
   21        359.725333340000        -0.000051935332
   22        129.497429940000        -0.000104292202
   23         33.998828377000        -0.000539875399
   24         28.652862979000        -0.001476198011
   25         13.632478963000         0.014235370515
   26          7.471537588000        -0.011469927517
   27          3.811701564000        -0.036112732943
   28         27.458309393000         0.000087167489
   29         12.656919738000        -0.000373466019
   30          7.477068910100        -0.000116789347
   31         27.458309393000        -0.000055585485
   32         12.656919738000         0.000238154039
   33          7.477068910100         0.000074474928
   34         27.458309393000         0.000072028788
   35         12.656919738000        -0.000308604791
   36          7.477068910100        -0.000096506108
   37          1.940089181800        -0.012789324001
   38          1.940089181800         0.008155666960
   39          1.940089181800        -0.010568311161
   40          0.897625771800         0.021867859455
   41          0.897625771800        -0.013944968110
   42          0.897625771800         0.018070220960
   43          0.419059600700         0.149218341750
   44          0.419059600700        -0.095155074285
   45          0.419059600700         0.123304085770
   46          0.188232180800        -0.049233872378
   47          0.188232180800         0.031395964106
   48          0.188232180800        -0.040683602050
   49          0.067000000000         0.163514954778
   50          0.067000000000        -0.104271569233
   51          0.067000000000         0.135117263185
   52          0.030000000000        -0.812461112975
   53          0.030000000000         0.518096627125
   54          0.030000000000        -0.671360534181
   55        157.813454120000        -0.000011038714
 D 55
    1      25926.773825000000         0.000000000000
    2       6014.550263700000         0.000000000000
    3       1704.297716900000         0.000000000000
    4        553.622695750000         0.000000000002
    5        186.360654410000         0.000000000011
    6         40.979326743000        -0.000000000696
    7         26.943620151000         0.000000004983
    8         13.920657033000        -0.000000020525
    9          3.512505808700         0.000000115102
   10          1.857781555800         0.000000161158
   11          0.739778006500        -0.000000638759
   12          0.334865721900        -0.000002484337
   13          0.037612601700         0.000056640412
   14        595.740089250000         0.000017718784
   15        193.096964650000         0.000173614205
   16         80.046899000000         0.000491873355
   17         41.801970074000         0.001883718748
   18          9.284122203500        -0.000007643188
   19          6.561879551400         0.055887125474
   20        595.740089250000         0.000001424409
   21        193.096964650000         0.000013956805
   22         80.046899000000         0.000039541584
   23         41.801970074000         0.000151431709
   24          9.284122203500        -0.000000614434
   25          6.561879551400         0.004492752943
   26        595.740089250000         0.000002725782
   27        193.096964650000         0.000026708066
   28         80.046899000000         0.000075667691
   29         41.801970074000         0.000289783225
   30          9.284122203500        -0.000001175795
   31          6.561879551400         0.008597436051
   32        595.740089250000        -0.000000369577
   33        193.096964650000        -0.000003621235
   34         80.046899000000        -0.000010259466
   35         41.801970074000        -0.000039290495
   36          9.284122203500         0.000000159421
   37          6.561879551400        -0.001165690384
   38        595.740089250000         0.000010708459
   39        193.096964650000         0.000104924842
   40         80.046899000000         0.000297266770
   41         41.801970074000         0.001138437328
   42          9.284122203500        -0.000004619209
   43          6.561879551400         0.033775737422
   44          3.176795216200         0.066707991135
   45          3.176795216200         0.005362645040
   46          3.176795216200         0.010262068360
   47          3.176795216200        -0.001391392812
   48          3.176795216200         0.040315364706
   49          1.478769364700         0.013160056298
   50          1.478769364700         0.001057931382
   51          1.478769364700         0.002024495959
   52          1.478769364700        -0.000274489409
   53          1.478769364700         0.007953434917
   54          0.595780369200        -0.181605357485
   55          0.595780369200        -0.014599200615
 P 55
    1       3785.836598600000        -0.000003266102
    2       1040.622999300000        -0.000010127292
    3        359.725333340000        -0.000092332689
    4        129.497429940000        -0.000185414804
    5         33.998828377000        -0.000959811851
    6         28.652862979000        -0.002624443248
    7         13.632478963000         0.025308205100
    8          7.471537588000        -0.020391691089
    9          3.811701564000        -0.064202645871
   10       3785.836598600000         0.000002066858
   11       1040.622999300000         0.000006408762
   12        359.725333340000         0.000058430061
   13        129.497429940000         0.000117334374
   14         33.998828377000         0.000607389053
   15         28.652862979000         0.001660802684
   16         13.632478963000        -0.016015562538
   17          7.471537588000         0.012904289442
   18          3.811701564000         0.040628779717
   19       3785.836598600000        -0.000002688930
   20       1040.622999300000        -0.000008337638
   21        359.725333340000        -0.000076016032
   22        129.497429940000        -0.000152649054
   23         33.998828377000        -0.000790197805
   24         28.652862979000        -0.002160662313
   25         13.632478963000         0.020835842041
   26          7.471537588000        -0.016788154387
   27          3.811701564000        -0.052857015452
   28         27.458309393000        -0.000136010339
   29         12.656919738000         0.000582731480
   30          7.477068910100         0.000182230312
   31         27.458309393000         0.000086070282
   32         12.656919738000        -0.000368765072
   33          7.477068910100        -0.000115319279
   34         27.458309393000        -0.000111975334
   35         12.656919738000         0.000479754353
   36          7.477068910100         0.000150027566
   37          1.940089181800        -0.079697858001
   38          1.940089181800         0.050434408229
   39          1.940089181800        -0.065613880456
   40          0.897625771800         0.195513294161
   41          0.897625771800        -0.123724643469
   42          0.897625771800         0.160962574845
   43          0.419059600700        -0.077543990442
   44          0.419059600700         0.049070928852
   45          0.419059600700        -0.063839887575
   46          0.188232180800         0.609508578597
   47          0.188232180800        -0.385708363799
   48          0.188232180800         0.501796443956
   49          0.067000000000        -1.762596721093
   50          0.067000000000         1.115404340960
   51          0.067000000000        -1.451111958610
   52          0.030000000000         1.158732668416
   53          0.030000000000        -0.733267993642
   54          0.030000000000         0.953962633408
   55        157.813454120000        -0.000004563306
 P 18
    1       3785.836598600000        -0.000138723693
    2       1040.622999300000        -0.000430144351
    3        359.725333340000        -0.003921718285
    4        129.497429940000        -0.007875267543
    5         33.998828377000        -0.040766837042
    6         28.652862979000        -0.111470024133
    7         13.632478963000         1.074935125976
    8          7.471537588000        -0.866112193372
    9          3.811701564000        -2.726929031761
   10         27.458309393000        -0.303989565301
   11         12.656919738000         1.302432522151
   12          7.477068910100         0.407293399476
   13          1.940089181800         3.276860633613
   14          0.897625771800        -2.298929823948
   15          0.419059600700         1.339349802733
   16          0.188232180800        -0.600503926961
   17          0.067000000000         0.234598582824
   18          0.030000000000        -0.086172022735
 D 55
    1     171857.151030000008        -0.000000000000
    2      25926.773825000000        -0.000000000000
    3       6014.550263700000        -0.000000000000
    4       1704.297716900000        -0.000000000000
    5        553.622695750000        -0.000000000003
    6        186.360654410000        -0.000000000015
    7         40.979326743000         0.000000001164
    8         26.943620151000        -0.000000007416
    9         13.920657033000         0.000000028698
   10          3.512505808700        -0.000000194847
   11          1.857781555800         0.000000039302
   12          0.739778006500        -0.000000704959
   13          0.334865721900         0.000009188092
   14          0.076278739200        -0.000096420214
   15          0.037612601700         0.000176200701
   16          0.015384156500        -0.000147761168
   17        595.740089250000         0.000023325940
   18        193.096964650000         0.000228554877
   19         80.046899000000         0.000647527974
   20         41.801970074000         0.002479826508
   21          9.284122203500        -0.000010061895
   22          6.561879551400         0.073572753546
   23        595.740089250000         0.000001996099
   24        193.096964650000         0.000019558409
   25         80.046899000000         0.000055411711
   26         41.801970074000         0.000212209257
   27          9.284122203500        -0.000000861039
   28          6.561879551400         0.006295932117
   29        595.740089250000         0.000003444981
   30        193.096964650000         0.000033755003
   31         80.046899000000         0.000095632651
   32         41.801970074000         0.000366242685
   33          9.284122203500        -0.000001486030
   34          6.561879551400         0.010865874175
   35        595.740089250000        -0.000000453769
   36        193.096964650000        -0.000004446168
   37         80.046899000000        -0.000012596616
   38         41.801970074000        -0.000048241041
   39          9.284122203500         0.000000195738
   40          6.561879551400        -0.001431239716
   41        595.740089250000         0.000014049666
   42        193.096964650000         0.000137663032
   43         80.046899000000         0.000390018648
   44         41.801970074000         0.001493647564
   45          9.284122203500        -0.000006060474
   46          6.561879551400         0.044314295291
   47          3.176795216200         0.122792791418
   48          3.176795216200         0.010507906633
   49          3.176795216200         0.018135124346
   50          3.176795216200        -0.002388737976
   51          3.176795216200         0.073960467515
   52          1.478769364700        -0.047798024986
   53          1.478769364700        -0.004090282991
   54          1.478769364700        -0.007059229839
   55          1.478769364700         0.000929836262
 F 55
    1       3785.836598600000         0.000000000000
    2       1040.622999300000         0.000000000000
    3        359.725333340000         0.000000000000
    4        129.497429940000         0.000000000003
    5         33.998828377000         0.000000000054
    6         28.652862979000         0.000000000174
    7         13.632478963000        -0.000000003519
    8          7.471537588000         0.000000005174
    9          3.811701564000         0.000000031931
   10       3785.836598600000         0.000000000000
   11       1040.622999300000         0.000000000000
   12        359.725333340000         0.000000000004
   13        129.497429940000         0.000000000020
   14         33.998828377000         0.000000000393
   15         28.652862979000         0.000000001275
   16         13.632478963000        -0.000000025834
   17          7.471537588000         0.000000037980
   18          3.811701564000         0.000000234391
   19       3785.836598600000        -0.000000000000
   20       1040.622999300000        -0.000000000000
   21        359.725333340000        -0.000000000004
   22        129.497429940000        -0.000000000022
   23         33.998828377000        -0.000000000426
   24         28.652862979000        -0.000000001382
   25         13.632478963000         0.000000028001
   26          7.471537588000        -0.000000041165
   27          3.811701564000        -0.000000254051
   28         27.458309393000        -0.000000000067
   29         12.656919738000         0.000000000624
   30          7.477068910100         0.000000000330
   31         27.458309393000        -0.000000000551
   32         12.656919738000         0.000000005122
   33          7.477068910100         0.000000002712
   34         27.458309393000         0.000000000599
   35         12.656919738000        -0.000000005566
   36          7.477068910100        -0.000000002946
   37          1.940089181800        -0.000000134101
   38          1.940089181800        -0.000001297523
   39          1.940089181800         0.000001419290
   40          0.897625771800         0.000000804098
   41          0.897625771800         0.000007890181
   42          0.897625771800        -0.000008637021
   43          0.419059600700        -0.000004646832
   44          0.419059600700        -0.000039454848
   45          0.419059600700         0.000042946214
   46          0.188232180800         0.000015408002
   47          0.188232180800         0.000123942964
   48          0.188232180800        -0.000134453407
   49          0.067000000000        -0.000046355278
   50          0.067000000000        -0.000388331777
   51          0.067000000000         0.000421998434
   52          0.030000000000         0.000048211667
   53          0.030000000000         0.000425792540
   54          0.030000000000        -0.000464105823
   55        157.813454120000         0.000167586919
 P 55
    1       3785.836598600000        -0.000010183002
    2       1040.622999300000        -0.000031574714
    3        359.725333340000        -0.000287873443
    4        129.497429940000        -0.000578083436
    5         33.998828377000        -0.002992486679
    6         28.652862979000        -0.008182448935
    7         13.632478963000         0.078905533980
    8          7.471537588000        -0.063576901948
    9          3.811701564000        -0.200170025312
   10       3785.836598600000         0.000006474556
   11       1040.622999300000         0.000020075831
   12        359.725333340000         0.000183035660
   13        129.497429940000         0.000367556946
   14         33.998828377000         0.001902682549
   15         28.652862979000         0.005202563776
   16         13.632478963000        -0.050169707882
   17          7.471537588000         0.040423458760
   18          3.811701564000         0.127272083339
   19       3785.836598600000        -0.000008401567
   20       1040.622999300000        -0.000026050969
   21        359.725333340000        -0.000237512275
   22        129.497429940000        -0.000476952339
   23         33.998828377000        -0.002468974948
   24         28.652862979000        -0.006750994609
   25         13.632478963000         0.065101638730
   26          7.471537588000        -0.052454628889
   27          3.811701564000        -0.165151872311
   28         27.458309393000         0.001440522524
   29         12.656919738000        -0.006171867716
   30          7.477068910100        -0.001930050840
   31         27.458309393000        -0.000915912051
   32         12.656919738000         0.003924192730
   33          7.477068910100         0.001227163611
   34         27.458309393000         0.001188513161
   35         12.656919738000        -0.005092142531
   36          7.477068910100        -0.001592401915
   37          1.940089181800         0.106054614858
   38          1.940089181800        -0.067431576267
   39          1.940089181800         0.087501103568
   40          0.897625771800        -0.344992001618
   41          0.897625771800         0.219352795037
   42          0.897625771800        -0.284638418893
   43          0.419059600700         1.837658260030
   44          0.419059600700        -1.168419887176
   45          0.419059600700         1.516174935750
   46          0.188232180800        -2.520479365465
   47          0.188232180800         1.602571164368
   48          0.188232180800        -2.079542008144
   49          0.067000000000         1.625004436846
   50          0.067000000000        -1.033210441503
   51          0.067000000000         1.340723376537
   52          0.030000000000        -0.633090774055
   53          0.030000000000         0.402531790048
   54          0.030000000000        -0.522336734134
   55        157.813454120000        -0.000000837766
 D 55
    1         40.979326743000         0.000000000082
    2         26.943620151000         0.000000000235
    3         13.920657033000        -0.000000002749
    4          3.512505808700        -0.000000009419
    5          1.857781555800         0.000000276667
    6          0.739778006500        -0.000001881880
    7          0.334865721900         0.000004404607
    8          0.076278739200        -0.000015338835
    9          0.037612601700         0.000021767479
   10        595.740089250000         0.000055540407
   11        193.096964650000         0.000544202323
   12         80.046899000000         0.001541801394
   13         41.801970074000         0.005904609715
   14          9.284122203500        -0.000023957952
   15          6.561879551400         0.175180962868
   16        595.740089250000         0.000005679935
   17        193.096964650000         0.000055653780
   18         80.046899000000         0.000157674953
   19         41.801970074000         0.000603844997
   20          9.284122203500        -0.000002450101
   21          6.561879551400         0.017915180346
   22        595.740089250000         0.000007356948
   23        193.096964650000         0.000072085681
   24         80.046899000000         0.000204228830
   25         41.801970074000         0.000782131564
   26          9.284122203500        -0.000003173499
   27          6.561879551400         0.023204676857
   28        595.740089250000        -0.000000852430
   29        193.096964650000        -0.000008352380
   30         80.046899000000        -0.000023663461
   31         41.801970074000        -0.000090623543
   32          9.284122203500         0.000000367705
   33          6.561879551400        -0.002688665339
   34        595.740089250000         0.000033294922
   35        193.096964650000         0.000326234092
   36         80.046899000000         0.000924266869
   37         41.801970074000         0.003539648592
   38          9.284122203500        -0.000014362123
   39          6.561879551400         0.105016093951
   40          3.176795216200         0.067618080787
   41          3.176795216200         0.006915080092
   42          3.176795216200         0.008956768345
   43          3.176795216200        -0.001037796318
   44          3.176795216200         0.040535143385
[...]
  BAS[ATNO][ 27].a[ 35] =         7.477068910100;     BAS[ATNO][ 27].d[ 35] =        -0.000000001486;
  BAS[ATNO][ 27].a[ 36] =         1.940089181800;     BAS[ATNO][ 27].d[ 36] =        -0.000000257156;
  BAS[ATNO][ 27].a[ 37] =         1.940089181800;     BAS[ATNO][ 27].d[ 37] =        -0.000000239451;
  BAS[ATNO][ 27].a[ 38] =         1.940089181800;     BAS[ATNO][ 27].d[ 38] =         0.000000214947;
  BAS[ATNO][ 27].a[ 39] =         0.897625771800;     BAS[ATNO][ 27].d[ 39] =         0.000000385809;
  BAS[ATNO][ 27].a[ 40] =         0.897625771800;     BAS[ATNO][ 27].d[ 40] =        -0.000000143361;
  BAS[ATNO][ 27].a[ 41] =         0.897625771800;     BAS[ATNO][ 27].d[ 41] =         0.000000356851;
  BAS[ATNO][ 27].a[ 42] =         0.419059600700;     BAS[ATNO][ 27].d[ 42] =         0.000002176675;
  BAS[ATNO][ 27].a[ 43] =         0.419059600700;     BAS[ATNO][ 27].d[ 43] =        -0.000002942200;
  BAS[ATNO][ 27].a[ 44] =         0.188232180800;     BAS[ATNO][ 27].d[ 44] =        -0.000004908208;
  BAS[ATNO][ 27].a[ 45] =         0.188232180800;     BAS[ATNO][ 27].d[ 45] =         0.000006327390;
  BAS[ATNO][ 27].a[ 46] =         0.067000000000;     BAS[ATNO][ 27].d[ 46] =        -0.000009083954;
  BAS[ATNO][ 27].a[ 47] =       157.813454120000;     BAS[ATNO][ 27].d[ 47] =         0.001212108214;
  BAS[ATNO][ 27].a[ 48] =        58.276131007000;     BAS[ATNO][ 27].d[ 48] =         0.012770989115;
  BAS[ATNO][ 27].a[ 49] =        27.355505927000;     BAS[ATNO][ 27].d[ 49] =         0.055129932690;
  BAS[ATNO][ 27].a[ 50] =        13.394670219000;     BAS[ATNO][ 27].d[ 50] =         0.129179904815;
  BAS[ATNO][ 27].a[ 51] =         6.768275597600;     BAS[ATNO][ 27].d[ 51] =         0.212838334301;
  BAS[ATNO][ 27].a[ 52] =         3.364199171800;     BAS[ATNO][ 27].d[ 52] =         0.282283959572;
  BAS[ATNO][ 27].a[ 53] =       157.813454120000;     BAS[ATNO][ 27].d[ 53] =         0.000359935036;
  BAS[ATNO][ 27].a[ 54] =        58.276131007000;     BAS[ATNO][ 27].d[ 54] =         0.003792339965;

  // Basis function  29 L = p
  InitBFNGauss(BAS[ATNO][ 28]);
  BAS[ATNO][ 28].l  = 1;
  BAS[ATNO][ 28].ng = 55;
  BAS[ATNO][ 28].a[  0] =      3785.836598600000;     BAS[ATNO][ 28].d[  0] =        -0.000084018878;
  BAS[ATNO][ 28].a[  1] =      1040.622999300000;     BAS[ATNO][ 28].d[  1] =        -0.000260519634;
  BAS[ATNO][ 28].a[  2] =       359.725333340000;     BAS[ATNO][ 28].d[  2] =        -0.002375213370;
  BAS[ATNO][ 28].a[  3] =       129.497429940000;     BAS[ATNO][ 28].d[  3] =        -0.004769705369;
  BAS[ATNO][ 28].a[  4] =        33.998828377000;     BAS[ATNO][ 28].d[  4] =        -0.024690691519;
  BAS[ATNO][ 28].a[  5] =        28.652862979000;     BAS[ATNO][ 28].d[  5] =        -0.067512521923;
  BAS[ATNO][ 28].a[  6] =        13.632478963000;     BAS[ATNO][ 28].d[  6] =         0.651041226754;
  BAS[ATNO][ 28].a[  7] =         7.471537588000;     BAS[ATNO][ 28].d[  7] =        -0.524566302890;
  BAS[ATNO][ 28].a[  8] =         3.811701564000;     BAS[ATNO][ 28].d[  8] =        -1.651581736616;
  BAS[ATNO][ 28].a[  9] =      3785.836598600000;     BAS[ATNO][ 28].d[  9] =         0.000064708936;
  BAS[ATNO][ 28].a[ 10] =      1040.622999300000;     BAS[ATNO][ 28].d[ 10] =         0.000200644767;
  BAS[ATNO][ 28].a[ 11] =       359.725333340000;     BAS[ATNO][ 28].d[ 11] =         0.001829321370;
  BAS[ATNO][ 28].a[ 12] =       129.497429940000;     BAS[ATNO][ 28].d[ 12] =         0.003673490588;
  BAS[ATNO][ 28].a[ 13] =        33.998828377000;     BAS[ATNO][ 28].d[ 13] =         0.019016064073;
  BAS[ATNO][ 28].a[ 14] =        28.652862979000;     BAS[ATNO][ 28].d[ 14] =         0.051996212484;
  BAS[ATNO][ 28].a[ 15] =        13.632478963000;     BAS[ATNO][ 28].d[ 15] =        -0.501413323015;
  BAS[ATNO][ 28].a[ 16] =         7.471537588000;     BAS[ATNO][ 28].d[ 16] =         0.404005955790;
  BAS[ATNO][ 28].a[ 17] =         3.811701564000;     BAS[ATNO][ 28].d[ 17] =         1.272000992804;
  BAS[ATNO][ 28].a[ 18] =      3785.836598600000;     BAS[ATNO][ 28].d[ 18] =        -0.000076675433;
  BAS[ATNO][ 28].a[ 19] =      1040.622999300000;     BAS[ATNO][ 28].d[ 19] =        -0.000237749614;
  BAS[ATNO][ 28].a[ 20] =       359.725333340000;     BAS[ATNO][ 28].d[ 20] =        -0.002167614217;
  BAS[ATNO][ 28].a[ 21] =       129.497429940000;     BAS[ATNO][ 28].d[ 21] =        -0.004352822066;
  BAS[ATNO][ 28].a[ 22] =        33.998828377000;     BAS[ATNO][ 28].d[ 22] =        -0.022532667861;
  BAS[ATNO][ 28].a[ 23] =        28.652862979000;     BAS[ATNO][ 28].d[ 23] =        -0.061611771049;
  BAS[ATNO][ 28].a[ 24] =        13.632478963000;     BAS[ATNO][ 28].d[ 24] =         0.594138714771;
  BAS[ATNO][ 28].a[ 25] =         7.471537588000;     BAS[ATNO][ 28].d[ 25] =        -0.478717992353;
  BAS[ATNO][ 28].a[ 26] =         3.811701564000;     BAS[ATNO][ 28].d[ 26] =        -1.507229665354;
  BAS[ATNO][ 28].a[ 27] =        27.458309393000;     BAS[ATNO][ 28].d[ 27] =         0.046307783050;
  BAS[ATNO][ 28].a[ 28] =        12.656919738000;     BAS[ATNO][ 28].d[ 28] =        -0.198404055790;
  BAS[ATNO][ 28].a[ 29] =         7.477068910100;     BAS[ATNO][ 28].d[ 29] =        -0.062044413801;
  BAS[ATNO][ 28].a[ 30] =        27.458309393000;     BAS[ATNO][ 28].d[ 30] =        -0.035664924484;
  BAS[ATNO][ 28].a[ 31] =        12.656919738000;     BAS[ATNO][ 28].d[ 31] =         0.152805105340;
  BAS[ATNO][ 28].a[ 32] =         7.477068910100;     BAS[ATNO][ 28].d[ 32] =         0.047784825511;
  BAS[ATNO][ 28].a[ 33] =        27.458309393000;     BAS[ATNO][ 28].d[ 33] =         0.042260368298;
  BAS[ATNO][ 28].a[ 34] =        12.656919738000;     BAS[ATNO][ 28].d[ 34] =        -0.181063050684;
  BAS[ATNO][ 28].a[ 35] =         7.477068910100;     BAS[ATNO][ 28].d[ 35] =        -0.056621578607;
  BAS[ATNO][ 28].a[ 36] =         1.940089181800;     BAS[ATNO][ 28].d[ 36] =         3.725610535245;
  BAS[ATNO][ 28].a[ 37] =         1.940089181800;     BAS[ATNO][ 28].d[ 37] =        -2.869358280067;
  BAS[ATNO][ 28].a[ 38] =         1.940089181800;     BAS[ATNO][ 28].d[ 38] =         3.399983041430;
  BAS[ATNO][ 28].a[ 39] =         0.897625771800;     BAS[ATNO][ 28].d[ 39] =        -3.529765562875;
  BAS[ATNO][ 28].a[ 40] =         0.897625771800;     BAS[ATNO][ 28].d[ 40] =         2.718523619856;
  BAS[ATNO][ 28].a[ 41] =         0.897625771800;     BAS[ATNO][ 28].d[ 41] =        -3.221254701650;
  BAS[ATNO][ 28].a[ 42] =         0.419059600700;     BAS[ATNO][ 28].d[ 42] =         2.244187896490;
  BAS[ATNO][ 28].a[ 43] =         0.419059600700;     BAS[ATNO][ 28].d[ 43] =        -1.728408527019;
  BAS[ATNO][ 28].a[ 44] =         0.419059600700;     BAS[ATNO][ 28].d[ 44] =         2.048039561493;
  BAS[ATNO][ 28].a[ 45] =         0.188232180800;     BAS[ATNO][ 28].d[ 45] =        -1.006030353967;
  BAS[ATNO][ 28].a[ 46] =         0.188232180800;     BAS[ATNO][ 28].d[ 46] =         0.774815416243;
  BAS[ATNO][ 28].a[ 47] =         0.188232180800;     BAS[ATNO][ 28].d[ 47] =        -0.918100431470;
  BAS[ATNO][ 28].a[ 48] =         0.067000000000;     BAS[ATNO][ 28].d[ 48] =         0.383280226527;
  BAS[ATNO][ 28].a[ 49] =         0.067000000000;     BAS[ATNO][ 28].d[ 49] =        -0.295191355702;
  BAS[ATNO][ 28].a[ 50] =         0.067000000000;     BAS[ATNO][ 28].d[ 50] =         0.349780492624;
  BAS[ATNO][ 28].a[ 51] =         0.030000000000;     BAS[ATNO][ 28].d[ 51] =        -0.138768319943;
  BAS[ATNO][ 28].a[ 52] =         0.030000000000;     BAS[ATNO][ 28].d[ 52] =         0.106875363259;
  BAS[ATNO][ 28].a[ 53] =         0.030000000000;     BAS[ATNO][ 28].d[ 53] =        -0.126639609978;
  BAS[ATNO][ 28].a[ 54] =       157.813454120000;     BAS[ATNO][ 28].d[ 54] =        -0.000000011624;

-------------------------------------------
RADIAL EXPECTATION VALUES <R**-3> TO <R**3>
-------------------------------------------
   0 :     0.000000     3.748296     1.796798     0.605724     0.398010     0.283455
   1 :     7.549934     3.306983     1.716524     0.644417     0.456614     0.354649
   2 :     7.549939     3.306984     1.716524     0.644417     0.456614     0.354649
   3 :     7.549941     3.306985     1.716524     0.644417     0.456614     0.354649
   4 :     7.163553     3.113145     1.635267     0.699191     0.553703     2.469750
   5 :     7.163551     3.113145     1.635266     0.699191     0.553703     2.469751
   6 :     7.163549     3.113144     1.635266     0.699192     0.553704     2.469756
   7 :     7.163547     3.113143     1.635266     0.699192     0.553704     2.469761
   8 :     7.163547     3.113143     1.635266     0.699192     0.553704     2.469762
   9 :     0.000000     0.938722     0.805466     1.463654     2.398110     4.325777
  10 :     1.154329     0.684069     0.700540     1.718668     3.352693     7.301325
  11 :     0.000000     0.109457     0.257767     4.689381    25.043646   150.134845
  12 :     0.000000     0.027859     0.124301     9.595518    99.894843  1096.377580
  13 :     0.000000     0.138226     0.257337     5.736888    43.535344   406.559338
  14 :     0.000000     0.646375     0.595323     2.586708    10.720292    72.018389
  15 :     0.000000     3.496171     1.234163     1.252179     2.819375    13.723870
  16 :     0.000000  1795.535347    28.974652     0.066817     0.020974     0.066672
  17 :     0.000000   115.194891     4.023651     0.461255     0.444527     1.592441
  18 :     0.000000   112.653347     6.130862     0.244521     0.121796     0.332829
  19 :     0.000000  1529.999241    19.899481     0.137565     0.055348     0.153114
  20 :     1.154308     0.684059     0.700534     1.718691     3.352806     7.301802
  21 :     1.154282     0.684047     0.700526     1.718718     3.352941     7.302374
  22 :     5.913716     2.481176     1.372331     0.958962     1.203827    13.669292
  23 :     5.913790     2.481203     1.372341     0.958950     1.203790    13.668531
  24 :     5.914272     2.481372     1.372401     0.958881     1.203571    13.664025
  25 :     5.914308     2.481386     1.372406     0.958874     1.203547    13.663523
  26 :     5.914357     2.481403     1.372412     0.958867     1.203526    13.663103
  27 :     5.914395     2.481417     1.372418     0.958860     1.203502    13.662607
  28 :     5.914422     2.481427     1.372421     0.958856     1.203490    13.662357
  29 :     0.036700     0.044969     0.174782     6.566739    47.054525   361.980723
  30 :     0.036716     0.044978     0.174790     6.566588    47.052729   361.962874
  31 :     0.036734     0.044988     0.174800     6.566410    47.050624   361.941980
  32 :     0.200721     0.171415     0.334156     3.725819    16.087395   388.105905
  33 :     0.200722     0.171415     0.334156     3.725818    16.087386   388.106027
  34 :     0.200725     0.171417     0.334158     3.725810    16.087338   388.104807
  35 :     0.200728     0.171419     0.334159     3.725804    16.087302   388.103903
  36 :     0.200728     0.171419     0.334159     3.725804    16.087309   388.103672
  37 :     0.102116     0.087094     0.220691     6.020679    43.758432   362.291988
  38 :     0.102128     0.087099     0.220692     6.020788    43.759997   362.309016
  39 :     0.102142     0.087104     0.220692     6.020916    43.761825   362.328919
  40 :     0.370036     0.254605     0.379855     3.797789    18.168710   496.000365
  41 :    68.602083    13.863624     3.338478     0.446806     0.451098     1.361428
  42 :    68.602084    13.863625     3.338478     0.446806     0.451098     1.361428
  43 :    68.602083    13.863625     3.338478     0.446806     0.451098     1.361428
  44 :     0.370037     0.254606     0.379855     3.797788    18.168700   496.000059
  45 :     0.370042     0.254608     0.379857     3.797784    18.168679   495.999528
  46 :     0.370047     0.254610     0.379858     3.797780    18.168657   495.998923
  47 :     0.370047     0.254611     0.379858     3.797779    18.168655   495.998867
  48 :     0.232662     0.162273     0.311352     3.699842    14.475970   412.483239
  49 :     0.232738     0.162303     0.311364     3.699828    14.475944   412.483464
  50 :     0.232658     0.162272     0.311351     3.699837    14.475932   412.481695
  51 :     0.232717     0.162295     0.311361     3.699827    14.475916   412.482063
  52 :     0.232692     0.162285     0.311357     3.699829    14.475907   412.481315
  53 :     0.232650     0.162269     0.311351     3.699833    14.475893   412.480090
  54 :     0.232676     0.162279     0.311355     3.699828    14.475884   412.480158
  55 :     0.444944     0.272048     0.385416     3.744795    18.648269   119.061095
  56 :     0.444952     0.272051     0.385417     3.744804    18.648339   119.061236
  57 :     0.444962     0.272055     0.385418     3.744816    18.648424   119.061421
  58 :     1.126030     0.579698     0.576766     2.526420     8.474689   178.645678
  59 :     1.126030     0.579698     0.576766     2.526421     8.474695   178.645838
  60 :     1.126027     0.579697     0.576764     2.526429     8.474747   178.647249
  61 :     1.126024     0.579695     0.576763     2.526436     8.474792   178.648470
  62 :     1.126024     0.579695     0.576763     2.526438     8.474800   178.648691
  63 :     1.339410     0.614431     0.560117     2.529186     7.685845   187.907612
  64 :     1.339547     0.614480     0.560135     2.529159     7.685739   187.904664
  65 :     1.339377     0.614419     0.560112     2.529194     7.685885   187.909039
  66 :     1.339527     0.614473     0.560132     2.529164     7.685765   187.905632
  67 :     1.339471     0.614453     0.560125     2.529176     7.685816   187.907205
  68 :     1.339393     0.614425     0.560115     2.529192     7.685888   187.909417
  69 :     1.339449     0.614445     0.560122     2.529181     7.685843   187.908178
  70 :     1.539300     0.757271     0.676583     2.203731     7.096386    33.891396
  71 :     1.539295     0.757268     0.676581     2.203739     7.096428    33.891567
  72 :     1.539289     0.757265     0.676578     2.203749     7.096476    33.891766
  73 :    20.736493     5.241791     1.880234     0.825463     1.088742    12.008484
  74 :    20.736495     5.241792     1.880234     0.825462     1.088741    12.008468
  75 :    20.736496     5.241792     1.880234     0.825462     1.088740    12.008460
  76 :    20.736495     5.241792     1.880234     0.825462     1.088741    12.008464
  77 :    20.736493     5.241791     1.880234     0.825463     1.088742    12.008484
  78 :     2.639283     1.152491     0.824049     1.793565     4.226744    86.902505
  79 :     2.639370     1.152521     0.824059     1.793557     4.226725    86.902190
  80 :     2.639264     1.152484     0.824046     1.793573     4.226777    86.903428
  81 :     2.639355     1.152515     0.824056     1.793563     4.226752    86.902934
  82 :     2.639317     1.152501     0.824052     1.793569     4.226773    86.903454
  83 :     2.639269     1.152484     0.824045     1.793578     4.226804    86.904225
  84 :     2.639299     1.152494     0.824049     1.793575     4.226797    86.904117
  85 :     3.314833     1.484933     0.991041     1.468488     3.076405    46.149287
  86 :     3.314832     1.484932     0.991041     1.468488     3.076407    46.149324
  87 :     3.314828     1.484930     0.991040     1.468491     3.076422    46.149639
  88 :     3.314824     1.484928     0.991039     1.468494     3.076435    46.149908
  89 :     3.314823     1.484927     0.991038     1.468495     3.076438    46.149960
  90 :     8.189802     2.770043     1.323652     1.199100     2.109233    35.723894
  91 :     8.189841     2.770054     1.323655     1.199098     2.109231    35.723869
  92 :     8.189781     2.770036     1.323650     1.199102     2.109243    35.724137
  93 :     8.189828     2.770050     1.323653     1.199101     2.109239    35.724055
  94 :     8.189810     2.770044     1.323652     1.199102     2.109244    35.724162
  95 :     8.189780     2.770035     1.323649     1.199104     2.109251    35.724339
  96 :     8.189798     2.770040     1.323650     1.199104     2.109250    35.724322
  97 :     7.686248     2.505944     1.305364     1.190134     2.391344     8.831727
  98 :     7.686242     2.505942     1.305363     1.190135     2.391351     8.831757
  99 :     7.686236     2.505940     1.305362     1.190137     2.391359     8.831792
Making the total density                ... o.k.
o.k.
Initializing the integrals              ... done
Making exponents                        ... done
Making rho(0)                           ... done (         3.359266827)
Integral calculation                    ... Two index integrals                     ... done
Solving the equation system             ... done
atomic density will be written to file 61_Pm_atom61.adf

-------
TIMINGS
-------

Total SCF time: 0 days 0 hours 0 min 8 sec 

Total time                  ....       8.850 sec
Sum of individual times     ....       8.070 sec  ( 91.2%)

Fock matrix formation       ....       7.892 sec  ( 89.2%)
Diagonalization             ....       0.083 sec  (  0.9%)
Density matrix formation    ....       0.004 sec  (  0.0%)
Population analysis         ....       0.000 sec  (  0.0%)
Initial guess               ....       0.001 sec  (  0.0%)
Orbital Transformation      ....       0.000 sec  (  0.0%)
Orbital Orthonormalization  ....       0.000 sec  (  0.0%)
DIIS solution               ....       0.089 sec  (  1.0%)

-------------------------   --------------------
FINAL SINGLE POINT ENERGY      -606.488804029767
-------------------------   --------------------


                            ***************************************
                            *     ORCA property calculations      *
                            ***************************************

                                    ---------------------
                                    Active property flags
                                    ---------------------
   (+) Dipole Moment


------------------------------------------------------------------------------
                       ORCA ELECTRIC PROPERTIES CALCULATION
------------------------------------------------------------------------------

Dipole Moment Calculation                       ... on
Quadrupole Moment Calculation                   ... off
Polarizability Calculation                      ... off
GBWName                                         ... 61_Pm_atom61.gbw
Electron density file                           ... 61_Pm_atom61.scfp
The origin for moment calculation is the CENTER OF MASS  = ( 0.000000,  0.000000  0.000000)

-------------
DIPOLE MOMENT
-------------
                                X             Y             Z
Electronic contribution:     -0.00000      -0.00000       0.00000
Nuclear contribution   :      0.00000       0.00000       0.00000
                        -----------------------------------------
Total Dipole Moment    :     -0.00000      -0.00000       0.00000
                        -----------------------------------------
Magnitude (a.u.)       :      0.00000
Magnitude (Debye)      :      0.00000



--------------------
Rotational spectrum 
--------------------
 
Rotational constants in cm-1:     0.000000     0.000000     0.000000 
Rotational constants in MHz :     0.000000     0.000000     0.000000 

 Dipole components along the rotational axes: 
x,y,z [a.u.] :    -0.000000    -0.000000     0.000000 
x,y,z [Debye]:    -0.000000    -0.000000     0.000000 

 

Timings for individual modules:

Sum of individual times         ...       12.293 sec (=   0.205 min)
GTO integral calculation        ...        3.414 sec (=   0.057 min)  27.8 %
SCF iterations                  ...        8.879 sec (=   0.148 min)  72.2 %
                             ****ORCA TERMINATED NORMALLY****
TOTAL RUN TIME: 0 days 0 hours 0 minutes 12 seconds 580 msec
