
                                 *****************
                                 * O   R   C   A *
                                 *****************

           --- An Ab Initio, DFT and Semiempirical electronic structure package ---

                  #######################################################
                  #                        -***-                        #
                  #          Department of theory and spectroscopy      #
                  #               Directorship: Frank Neese             #
                  #        Max Planck Institute fuer Kohlenforschung    #
                  #                Kaiser Wilhelm Platz 1               #
                  #                 D-45470 Muelheim/Ruhr               #
                  #                      Germany                        #
                  #                                                     #
                  #                  All rights reserved                #
                  #                        -***-                        #
                  #######################################################


                         Program Version 4.2.0 -  RELEASE  -


 With contributions from (in alphabetic order):
   Daniel Aravena         : Magnetic Suceptibility
   Michael Atanasov       : Ab Initio Ligand Field Theory (pilot matlab implementation)
   Alexander A. Auer      : GIAO ZORA, VPT2
   Ute Becker             : Parallelization
   Giovanni Bistoni       : ED, misc. LED, open-shell LED, HFLED
   Martin Brehm           : Molecular dynamics
   Dmytro Bykov           : SCF Hessian
   Vijay G. Chilkuri      : MRCI spin determinant printing, contributions to CSF-ICE
   Dipayan Datta          : RHF DLPNO-CCSD density
   Achintya Kumar Dutta   : EOM-CC, STEOM-CC
   Dmitry Ganyushin       : Spin-Orbit,Spin-Spin,Magnetic field MRCI
   Miquel Garcia          : C-PCM Hessian, Gaussian charge scheme
   Yang Guo               : DLPNO-NEVPT2, CIM, IAO-localization
   Andreas Hansen         : Spin unrestricted coupled pair/coupled cluster methods
   Benjamin Helmich-Paris : CASSCF linear response (MC-RPA)
   Lee Huntington         : MR-EOM, pCC
   Robert Izsak           : Overlap fitted RIJCOSX, COSX-SCS-MP3, EOM
   Christian Kollmar      : KDIIS, OOCD, Brueckner-CCSD(T), CCSD density
   Simone Kossmann        : Meta GGA functionals, TD-DFT gradient, OOMP2, MP2 Hessian
   Martin Krupicka        : AUTO-CI
   Lucas Lang             : DCDCAS
   Dagmar Lenk            : GEPOL surface, SMD
   Dimitrios Liakos       : Extrapolation schemes; Compound Job, initial MDCI parallelization
   Dimitrios Manganas     : Further ROCIS development; embedding schemes
   Dimitrios Pantazis     : SARC Basis sets
   Taras Petrenko         : DFT Hessian,TD-DFT gradient, ASA, ECA, R-Raman, ABS, FL, XAS/XES, NRVS
   Peter Pinski           : DLPNO-MP2, DLPNO-MP2 Gradient
   Christoph Reimann      : Effective Core Potentials
   Marius Retegan         : Local ZFS, SOC
   Christoph Riplinger    : Optimizer, TS searches, QM/MM, DLPNO-CCSD(T), (RO)-DLPNO pert. Triples
   Tobias Risthaus        : Range-separated hybrids, TD-DFT gradient, RPA, STAB
   Michael Roemelt        : Original ROCIS implementation
   Masaaki Saitow         : Open-shell DLPNO-CCSD energy and density
   Barbara Sandhoefer     : DKH picture change effects
   Avijit Sen             : IP-ROCIS
   Kantharuban Sivalingam : CASSCF convergence, NEVPT2, FIC-MRCI
   Bernardo de Souza      : ESD, SOC TD-DFT
   Georgi Stoychev        : AutoAux, RI-MP2 NMR
   Willem Van den Heuvel  : Paramagnetic NMR
   Boris Wezisla          : Elementary symmetry handling
   Frank Wennmohs         : Technical directorship


 We gratefully acknowledge several colleagues who have allowed us to
 interface, adapt or use parts of their codes:
   Stefan Grimme, W. Hujo, H. Kruse,             : VdW corrections, initial TS optimization,
                  C. Bannwarth                     DFT functionals, gCP, sTDA/sTD-DF
   Ed Valeev, F. Pavosevic, A. Kumar             : LibInt (2-el integral package), F12 methods
   Garnet Chan, S. Sharma, J. Yang, R. Olivares  : DMRG
   Ulf Ekstrom                                   : XCFun DFT Library
   Mihaly Kallay                                 : mrcc  (arbitrary order and MRCC methods)
   Andreas Klamt, Michael Diedenhofen            : otool_cosmo (COSMO solvation model)
   Jiri Pittner, Ondrej Demel                    : Mk-CCSD
   Frank Weinhold                                : gennbo (NPA and NBO analysis)
   Christopher J. Cramer and Donald G. Truhlar   : smd solvation model
   Lars Goerigk                                  : TD-DFT with DH, B97 family of functionals
   V. Asgeirsson, H. Jonsson                     : NEB implementation
   FAccTs GmbH                                   : IRC, NEB, NEB-TS, Multilevel, MM, QM/MM, CI optimization
   S Lehtola, MJT Oliveira, MAL Marques          : LibXC Library


 Your calculation uses the libint2 library for the computation of 2-el integrals
 For citations please refer to: http://libint.valeyev.net

 Your ORCA version has been built with support for libXC version: 4.2.3
 For citations please refer to: https://tddft.org/programs/libxc/

 This ORCA versions uses:
   CBLAS   interface :  Fast vector & matrix operations
   LAPACKE interface :  Fast linear algebra routines
   SCALAPACK package :  Parallel linear algebra routines


----- Orbital basis set information -----
Your calculation utilizes the basis: def2-SVP
   F. Weigend and R. Ahlrichs, Phys. Chem. Chem. Phys. 7, 3297 (2005).

----- AuxJ basis set information -----
Your calculation utilizes the auxiliary basis: def2/J
   F. Weigend, Phys. Chem. Chem. Phys. 8, 1057 (2006).

================================================================================
                                        WARNINGS
                       Please study these warnings very carefully!
================================================================================


INFO   : the flag for use of LIBINT has been found!

================================================================================
                                       INPUT FILE
================================================================================
NAME = 62_Sm_atom62.inp
|  1> # input to generate an atomic fitting density for Sm
|  2> # this file is use internally by ORCA
|  3> #
|  4> # atomic ground state (S=7): 1s2 2s2 2p6 3s2 3p6 4s2 3d10 4p6 5s2 4d10 5p6 4f6 6s2 
|  5> #
|  6> ! RHF AllowRHF def2-SVP def2/J  NoMulliken NoLoewdin NoMayer NoPrintMOs 
|  7> 
|  8> %output print[p_atomdensfit] 2 end
|  9> 
| 10> %scf
| 11>   guess hcore
| 12>   maxiter 1000
| 13>   maxdisk 500000
| 14>   SCFMode Conventional
| 15>   lshift 0.600000
| 16>   hftyp rohf
| 17>   rohf_case sahf
| 18>   rohf_numop   2
| 19>   rohf_norb[1] 7
| 20>   rohf_nel[1]  6
| 21> end
| 22> 
| 23> %basis
| 24>   NewECP 62
| 25>     N_core 28
| 26>     lmax h
| 27>     s 1
| 28>       1      22.3444710000    572.9853320000  2
| 29>     p 1
| 30>       1      16.6945900000    272.3591450000  2
| 31>     d 1
| 32>       1      13.7277050000    115.2939000000  2
| 33>     f 1
| 34>       1      24.0590920000    -51.1083920000  2
| 35>     g 1
| 36>       1      20.1972490000    -25.4218850000  2
| 37>     h 1
| 38>       1       1.0000000000      0.0000000000  2
| 39>   end
| 40>   NewGTO 62
| 41>     s 6 
| 42>      1  171856.2339400000      0.0010487818
| 43>      2   25929.3750790000      0.0081030786
| 44>      3    6012.4448161000      0.0392081415
| 45>      4    1706.6814340000      0.1517073378
| 46>      5     551.8795623500      0.3765810060
| 47>      6     187.3052885600      0.5468885955
| 48>     s 1 
| 49>      1      41.3226433910      1.0000000000
| 50>     s 1 
| 51>      1      27.2031688270      1.0000000000
| 52>     s 1 
| 53>      1      14.4769147620      1.0000000000
| 54>     s 1 
| 55>      1       3.5984105743      1.0000000000
| 56>     s 1 
| 57>      1       1.8529381235      1.0000000000
| 58>     s 1 
| 59>      1       0.7443255833      1.0000000000
| 60>     s 1 
| 61>      1       0.3346176674      1.0000000000
| 62>     s 1 
| 63>      1       0.0763059436      1.0000000000
| 64>     s 1 
| 65>      1       0.0376005751      1.0000000000
| 66>     s 1 
| 67>      1       0.0153839026      1.0000000000
| 68>     p 9 
| 69>      1    3786.5609894000      0.0000554082
| 70>      2    1041.9553334000      0.0002520502
| 71>      3     359.2456385600      0.0016773823
| 72>      4     130.3427465300      0.0042922910
| 73>      5      34.5795096520      0.0319404713
| 74>      6      28.7583715130      0.0340824199
| 75>      7      13.7532705530     -0.4258558544
| 76>      8       7.4845402056      0.3915489817
| 77>      9       3.7945568856      0.8944468029
| 78>     p 2 
| 79>      1      29.1294115200      0.2640380917
| 80>      2      13.1691094560     -1.2067389589
| 81>     p 1 
| 82>      1       8.0256578613      1.0000000000
| 83>     p 1 
| 84>      1       1.9197648356      1.0000000000
| 85>     p 1 
| 86>      1       0.8935812246      1.0000000000
| 87>     p 1 
| 88>      1       0.4127892955      1.0000000000
| 89>     p 1 
| 90>      1       0.1830272311      1.0000000000
| 91>     p 1 
| 92>      1       0.0670000000      1.0000000000
| 93>     p 1 
| 94>      1       0.0300000000      1.0000000000
| 95>     d 6 
| 96>      1     595.9004571300      0.0003919695
| 97>      2     194.0204645900      0.0030138259
| 98>      3      82.1258679450      0.0120755425
| 99>      4      36.9414324710      0.0425587046
|100>      5       9.3511641464      0.1897155596
|101>      6       5.9914725674      0.8068179309
|102>     d 1 
|103>      1       3.0847646294      1.0000000000
|104>     d 1 
|105>      1       1.4757523390      1.0000000000
|106>     d 1 
|107>      1       0.6194519782      1.0000000000
|108>     d 1 
|109>      1       0.2205023783      1.0000000000
|110>     d 1 
|111>      1       0.0759031761      1.0000000000
|112>     f 6 
|113>      1     158.1334800000      0.0024543174
|114>      2      58.1446490000      0.0250594836
|115>      3      27.3630770000      0.1036787560
|116>      4      13.5583830000      0.2321589582
|117>      5       6.7214526000      0.3900310199
|118>      6       3.3444430000      0.4565621453
|119>     f 1 
|120>      1       1.6835554776      1.0000000000
|121>     f 1 
|122>      1       0.8398680625      1.0000000000
|123>     f 1 
|124>      1       0.4045233690      1.0000000000
|125>     f 1 
|126>      1       0.1752026917      1.0000000000
|127>   end
|128>   NewAuxGTO 62
|129>     S 1
|130>      1 1310.72 1.0
|131>     S 1
|132>      1  655.36 1.0
|133>     S 1
|134>      1  327.68 1.0
|135>     S 1
|136>      1  163.84 1.0
|137>     S 1
|138>      1   81.82 1.0
|139>     S 1
|140>      1   40.96 1.0
|141>     S 1
|142>      1   20.48 1.0
|143>     S 1
|144>      1   10.24 1.0
|145>     S 1
|146>      1    5.12 1.0
|147>     S 1
|148>      1    2.56 1.0
|149>     S 1
|150>      1    1.28 1.0
|151>     S 1
|152>      1    0.64 1.0
|153>     S 1
|154>      1    0.32 1.0
|155>     S 1
|156>      1    0.16 1.0
|157>     S 1
|158>      1    0.08 1.0
|159>     S 1
|160>      1    0.04 1.0
|161>     S 1
|162>      1    0.02 1.0
|163>     S 1
|164>      1    0.01 1.0
|165>   end
|166> end
|167> 
|168> * xyz 0 7
|169> 62  0.0 0.0 0.0
|170> *
|171> 
|172> 
|173>                          ****END OF INPUT****
================================================================================

                       ****************************
                       * Single Point Calculation *
                       ****************************

---------------------------------
CARTESIAN COORDINATES (ANGSTROEM)
---------------------------------
  Sm     0.000000    0.000000    0.000000

----------------------------
CARTESIAN COORDINATES (A.U.)
----------------------------
  NO LB      ZA    FRAG     MASS         X           Y           Z
   0 Sm   34.0000*   0   150.400    0.000000    0.000000    0.000000
* core charge reduced due to ECP

--------------------------------
INTERNAL COORDINATES (ANGSTROEM)
--------------------------------
 Sm     0   0   0     0.000000000000     0.00000000     0.00000000

---------------------------
INTERNAL COORDINATES (A.U.)
---------------------------
 Sm     0   0   0     0.000000000000     0.00000000     0.00000000

---------------------
BASIS SET INFORMATION
---------------------
There are 1 groups of distinct atoms

 Group   1 Type Sm  : 16s18p11d10f contracted to 11s9p6d5f pattern {61111111111/921111111/611111/61111}

Atom   0Sm   basis set group =>   1
---------------------------------
AUXILIARY/J BASIS SET INFORMATION
---------------------------------
There are 1 groups of distinct atoms

 Group   1 Type Sm  : 18s contracted to 18s pattern {111111111111111111}

Atom   0Sm   basis set group =>   1
-------------------------
ECP PARAMETER INFORMATION
-------------------------

 Group 1, Type Sm ECP (replacing 28 core electrons, lmax=5)

Atom   0Sm   ECP group =>   1

------------------------------------------------------------------------------
                           ORCA GTO INTEGRAL CALCULATION
------------------------------------------------------------------------------

                         BASIS SET STATISTICS AND STARTUP INFO

 # of primitive gaussian shells          ...   55
 # of primitive gaussian functions       ...  195
 # of contracted shells                  ...   31
 # of contracted basis functions         ...  103
 Highest angular momentum                ...    3
 Maximum contraction depth               ...    9
 Integral package used                   ... LIBINT
 Integral threshhold            Thresh   ...  1.000e-10
 Primitive cut-off              TCut     ...  1.000e-11
 Storage cut-off                TCutStore... -1.000e+00
 Buffer length                           ... 1048576 integrals/buffer
 Generate file with integrals 4 distinct ...false


------------------------------ INTEGRAL EVALUATION ----------------------------


 * One electron integrals 

   ECP integrals                         ... done
 Pre-screening matrix                    ... done
 Shell pair data                         ... done (   0.000 sec)
 Statistics run                          ... done
 Maximum amount of storage needed        ...   170 MB
 Maximum amount of storage dedicated     ... 500000 MB
 Beginning two electron integral evaluation:
 Starting repulsion integrals
  <ss|ss>  ...         2211 b.         0 skpd (  0.0%)     0.000 s. (  0.000 ms/b)
  <ss|sp>  ...         6534 b.         0 skpd (  0.0%)     0.001 s. (  0.000 ms/b)
  <ss|sd>  ...         4356 b.         0 skpd (  0.0%)     0.002 s. (  0.001 ms/b)
  <ss|sf>  ...         3630 b.         0 skpd (  0.0%)     0.003 s. (  0.001 ms/b)
  <ss|pp>  ...         2970 b.         0 skpd (  0.0%)     0.003 s. (  0.001 ms/b)
  <ss|pd>  ...         3564 b.         0 skpd (  0.0%)     0.004 s. (  0.001 ms/b)
  <ss|pf>  ...         2970 b.         0 skpd (  0.0%)     0.005 s. (  0.002 ms/b)
  <ss|dd>  ...         1386 b.         0 skpd (  0.0%)     0.003 s. (  0.002 ms/b)
  <ss|df>  ...         1980 b.         0 skpd (  0.0%)     0.006 s. (  0.003 ms/b)
  <ss|ff>  ...          990 b.         0 skpd (  0.0%)     0.005 s. (  0.005 ms/b)
  <sp|sp>  ...         4950 b.         0 skpd (  0.0%)     0.004 s. (  0.001 ms/b)
  <sp|sd>  ...         6534 b.         0 skpd (  0.0%)     0.007 s. (  0.001 ms/b)
  <sp|sf>  ...         5443 b.         2 skpd (  0.0%)     0.010 s. (  0.002 ms/b)
  <sp|pp>  ...         4455 b.         0 skpd (  0.0%)     0.009 s. (  0.002 ms/b)
  <sp|pd>  ...         5346 b.         0 skpd (  0.0%)     0.016 s. (  0.003 ms/b)
  <sp|pf>  ...         4455 b.         0 skpd (  0.0%)     0.028 s. (  0.006 ms/b)
  <sp|dd>  ...         2079 b.         0 skpd (  0.0%)     0.011 s. (  0.005 ms/b)
  <sp|df>  ...         2970 b.         0 skpd (  0.0%)     0.023 s. (  0.008 ms/b)
  <sp|ff>  ...         1485 b.         0 skpd (  0.0%)     0.022 s. (  0.015 ms/b)
  <sd|sd>  ...         2209 b.         2 skpd (  0.1%)     0.004 s. (  0.002 ms/b)
  <sd|sf>  ...         3617 b.        13 skpd (  0.4%)     0.012 s. (  0.003 ms/b)
  <sd|pp>  ...         2970 b.         0 skpd (  0.0%)     0.018 s. (  0.006 ms/b)
  <sd|pd>  ...         3564 b.         0 skpd (  0.0%)     0.021 s. (  0.006 ms/b)
  <sd|pf>  ...         2970 b.         0 skpd (  0.0%)     0.029 s. (  0.010 ms/b)
  <sd|dd>  ...         1386 b.         0 skpd (  0.0%)     0.016 s. (  0.011 ms/b)
  <sd|df>  ...         1980 b.         0 skpd (  0.0%)     0.043 s. (  0.022 ms/b)
  <sd|ff>  ...          990 b.         0 skpd (  0.0%)     0.038 s. (  0.038 ms/b)
  <sf|sf>  ...         1527 b.        13 skpd (  0.8%)     0.012 s. (  0.008 ms/b)
  <sf|pp>  ...         2475 b.         0 skpd (  0.0%)     0.021 s. (  0.009 ms/b)
  <sf|pd>  ...         2970 b.         0 skpd (  0.0%)     0.039 s. (  0.013 ms/b)
  <sf|pf>  ...         2474 b.         1 skpd (  0.0%)     0.064 s. (  0.026 ms/b)
  <sf|dd>  ...         1155 b.         0 skpd (  0.0%)     0.031 s. (  0.027 ms/b)
  <sf|df>  ...         1650 b.         0 skpd (  0.0%)     0.077 s. (  0.046 ms/b)
  <sf|ff>  ...          825 b.         0 skpd (  0.0%)     0.081 s. (  0.099 ms/b)
  <pp|pp>  ...         1035 b.         0 skpd (  0.0%)     0.015 s. (  0.014 ms/b)
  <pp|pd>  ...         2430 b.         0 skpd (  0.0%)     0.025 s. (  0.010 ms/b)
  <pp|pf>  ...         2025 b.         0 skpd (  0.0%)     0.037 s. (  0.019 ms/b)
  <pp|dd>  ...          945 b.         0 skpd (  0.0%)     0.019 s. (  0.020 ms/b)
  <pp|df>  ...         1350 b.         0 skpd (  0.0%)     0.051 s. (  0.038 ms/b)
  <pp|ff>  ...          675 b.         0 skpd (  0.0%)     0.046 s. (  0.069 ms/b)
  <pd|pd>  ...         1485 b.         0 skpd (  0.0%)     0.030 s. (  0.020 ms/b)
  <pd|pf>  ...         2430 b.         0 skpd (  0.0%)     0.084 s. (  0.034 ms/b)
  <pd|dd>  ...         1134 b.         0 skpd (  0.0%)     0.042 s. (  0.037 ms/b)
  <pd|df>  ...         1620 b.         0 skpd (  0.0%)     0.108 s. (  0.067 ms/b)
  <pd|ff>  ...          810 b.         0 skpd (  0.0%)     0.116 s. (  0.143 ms/b)
  <pf|pf>  ...         1035 b.         0 skpd (  0.0%)     0.075 s. (  0.072 ms/b)
  <pf|dd>  ...          945 b.         0 skpd (  0.0%)     0.071 s. (  0.076 ms/b)
  <pf|df>  ...         1350 b.         0 skpd (  0.0%)     0.192 s. (  0.143 ms/b)
  <pf|ff>  ...          675 b.         0 skpd (  0.0%)     0.213 s. (  0.316 ms/b)
  <dd|dd>  ...          231 b.         0 skpd (  0.0%)     0.021 s. (  0.090 ms/b)
  <dd|df>  ...          630 b.         0 skpd (  0.0%)     0.094 s. (  0.149 ms/b)
  <dd|ff>  ...          315 b.         0 skpd (  0.0%)     0.098 s. (  0.312 ms/b)
  <df|df>  ...          465 b.         0 skpd (  0.0%)     0.131 s. (  0.283 ms/b)
  <df|ff>  ...          450 b.         0 skpd (  0.0%)     0.266 s. (  0.591 ms/b)
  <ff|ff>  ...          120 b.         0 skpd (  0.0%)     0.184 s. (  1.534 ms/b)


                                      INTEGRAL STATISTICS

Integral type statistics:
 Number of integrals retained            ...   14344767 
 One   Center Integrals retained         ...   14344767 (100.0%)
 Two   Center Integrals retained         ...          0 (  0.0%)
 Three Center Integrals retained         ...          0 (  0.0%)
 Four  Center Integrals retained         ...          0 (  0.0%)

Storage statistics:
 Number of char integrals                ...          0 (  0.0%)
 Number of short int integrals           ...          0 (  0.0%)
 Number of double/float integrals        ...   14344767 (100.0%)
 Amount of memory used                   ...        177 MB
 Amount of memory estimated              ...        170 MB ( 95.6%)

Prescreening statistics:
 Total number of shell quadruples        ...     123256 
 Number of skipped shell quadruples      ...         52 (  0.0%)
 # of negligible batches done            ...          0 (  0.0%)

Timings:
 Total evaluation time               ...     3.071 sec (   0.051 min)
 One electron matrix time            ...     0.083 sec (   0.001 min) =  2.7%
 Schwartz matrix evaluation time     ...     0.216 sec (   0.004 min) =  7.0%
 Statistics run                      ...     0.103 sec (   0.002 min) =  3.3%
 Repulsion integral time             ...     2.589 sec (   0.043 min) = 84.3%

-------------------------------------------------------------------------------
                                 ORCA SCF
-------------------------------------------------------------------------------

------------
SCF SETTINGS
------------
Hamiltonian:
 Ab initio Hamiltonian  Method          .... Hartree-Fock(GTOs)


General Settings:
 Integral files         IntName         .... 62_Sm_atom62
 Hartree-Fock type      HFTyp           .... ROHF
 Total Charge           Charge          ....    0
 Multiplicity           Mult            ....    7
 Number of Electrons    NEL             ....   34
 Basis Dimension        Dim             ....  103
 Nuclear Repulsion      ENuc            ....      0.0000000000 Eh

Convergence Acceleration:
 DIIS                   CNVDIIS         .... on
   Start iteration      DIISMaxIt       ....    12
   Startup error        DIISStart       ....  0.200000
   # of expansion vecs  DIISMaxEq       ....     5
   Bias factor          DIISBfac        ....   1.050
   Max. coefficient     DIISMaxC        ....  10.000
 Newton-Raphson         CNVNR           .... off
 SOSCF                  CNVSOSCF        .... off
 Level Shifting         CNVShift        .... on
   Level shift para.    LevelShift      ....    0.6000
   Turn off err/grad.   ShiftErr        ....    0.0010
 Zerner damping         CNVZerner       .... off
 Static damping         CNVDamp         .... on
   Fraction old density DampFac         ....    0.7000
   Max. Damping (<1)    DampMax         ....    0.9800
   Min. Damping (>=0)   DampMin         ....    0.0000
   Turn off err/grad.   DampErr         ....    0.1000
 Fernandez-Rico         CNVRico         .... off

SCF Procedure:
 Maximum # iterations   MaxIter         ....  1000
 SCF integral mode      SCFMode         .... Conventional
 Integral Threshold     Thresh          ....  1.000e-10 Eh
 Primitive CutOff       TCut            ....  1.000e-11 Eh
 Integral Buffer length BufferLength    .... 1048576
 Integral index format  IndFormat       ....     0
 Integral value format  ValFormat       ....     0
 Integral Storage       Thresh          ....  1.000e-10 Eh

Convergence Tolerance:
 Convergence Check Mode ConvCheckMode   .... Total+1el-Energy
 Convergence forced     ConvForced      .... 0
 Energy Change          TolE            ....  1.000e-06 Eh
 1-El. energy change                    ....  1.000e-03 Eh
 DIIS Error             TolErr          ....  1.000e-06


Diagonalization of the overlap matrix:
Smallest eigenvalue                        ... 1.081e-03
Time for diagonalization                   ...    0.002 sec
Threshold for overlap eigenvalues          ... 1.000e-08
Number of eigenvalues below threshold      ... 0
Time for construction of square roots      ...    0.002 sec
Total time needed                          ...    0.004 sec

--------------------
INITIAL GUESS: HCORE
--------------------
AVERAGE-CONFIGURATION (SAHF) CASE FOUND

-------------------
FINAL ROHF SETTINGS
-------------------
Number of operators             ... 2
  operator   0:  14 orbitals  28 electrons n(mue)= 2.000
  operator   1:   7 orbitals   6 electrons n(mue)= 0.857
Vector coupling coefficients a and b (Zerner convention):
   1.000    1.000           1.000    1.000 
   1.000    0.972           1.000    1.944 

                      -----------------
                      INTIAL GUESS DONE 
                      -----------------

 InCore treatment chosen:
   Memory dedicated               ...    1024 MB
   Memory needed                  ...    177 MB
   Number of tiny    integrals    ...       0
   Number of small   integrals    ...       0
   Number of regular integrals    ... 14344767

--------------
SCF ITERATIONS
--------------
ITER       Energy         Delta-E        Max-DP      RMS-DP      [F,P]     Damp
  0   -477.8653091530   0.000000000000 6.71723409  0.11665424  6.7853581 0.7000
  1   -547.3920103183 -69.526701165349 3.03860115  0.04871659  1.4915330 0.7000
  2   -619.1857313018 -71.793720983449 2.12702700  0.03489029  0.6767064 0.7000
  3   -632.4435366616 -13.257805359853 1.45977383  0.02412077  0.3200173 0.7000
  4   -639.3826396639  -6.939103002255 1.01735994  0.01667339  0.2442034 0.7000
                            ****Activating DIIS****
  5   -643.9987535383  -4.616113874388 0.71244625  0.01153051  0.1181189 0.7000
  6   -647.3393035448  -3.340550006543 1.82297891  0.02520141  0.1062357 0.7000
  7   -648.5245804248  -1.185276879974 0.87235152  0.01091511  0.2040972 0.7000
  8   -651.5250061821  -3.000425757375 2.02518211  0.02635069  0.0562740 0.0000
  9   -655.1180443961  -3.593038213994 0.02748705  0.00046237  0.2455201 0.7000
 10   -655.2738761112  -0.155831715076 0.02113816  0.00033321  0.1698402 0.7000
 11   -655.3017770832  -0.027900971971 0.01561969  0.00023769  0.1545745 0.7000
 12   -655.3230371798  -0.021260096608 0.04221544  0.00060068  0.1425110 0.7000
 13   -655.2536206227   0.069416557137 2.60368194  0.02898099  0.1635732 0.7000
 14   -654.8678266375   0.385793985159 1.68497748  0.01898543  0.1507202 0.7000
 15   -654.2617301804   0.606096457150 1.16665053  0.01317546  0.2328252 0.7000
 16   -653.8178416333   0.443888547063 0.82803671  0.00932061  0.3571991 0.7000
 17   -653.4867861433   0.331055489981 0.56729049  0.00645966  0.4671974 0.7000
 18   -653.2865138507   0.200272292629 0.66430975  0.00676176  0.5029480 0.7000
 19   -652.5070952659   0.779418584788 0.15904120  0.00173743  0.5506989 0.7000
 20   -653.0920272610  -0.584931995110 0.09309450  0.00095719  0.5893200 0.7000
 21   -653.2727382386  -0.180710977647 0.08957034  0.00111786  0.5086240 0.7000
 22   -653.5432483365  -0.270510097860 2.25117733  0.02565801  0.3909190 0.7000
 23   -655.2929769711  -1.749728634550 1.57606613  0.01794187  0.1844945 0.7000
 24   -654.8173036203   0.475673350807 1.10411289  0.01256708  0.2246071 0.7000
 25   -654.2929021535   0.524401466764 0.77338396  0.00880499  0.3498760 0.7000
 26   -653.8276645758   0.465237577688 0.54116194  0.00617253  0.4519765 0.7000
 27   -653.4507186650   0.376945910796 0.37359389  0.00444724  0.5271985 0.7000
 28   -652.7396464865   0.711072178479 0.26443655  0.00322435  0.6383666 0.7000
 29   -653.7502031864  -1.010556699903 0.18510760  0.00224818  0.4805182 0.7000
 30   -653.7661003832  -0.015897196793 0.12970710  0.00167303  0.4341637 0.7000
 31   -654.0421950514  -0.276094668152 2.63101598  0.03063309  0.4052935 0.7000
 32   -653.0611329452   0.981062106146 1.57390718  0.01870425  0.3037936 0.7000
 33   -650.8378465641   2.223286381079 0.96146268  0.01179066  0.3166255 0.7000
 34   -649.4376481982   1.400198365929 0.67419481  0.00826575  0.4024989 0.7000
 35   -648.3149367340   1.122711464178 0.51620173  0.00618513  0.5378689 0.7000
 36   -647.3770173805   0.937919353498 1.18490297  0.01392346  0.6821668 0.7000
 37   -640.0687920198   7.308225360753 0.15357571  0.00216057  1.4015526 0.7000
 38   -644.7302029401  -4.661410920355 0.37502460  0.00577639  0.9534832 0.7000
 39   -648.4922654484  -3.762062508293 2.26779284  0.02653203  1.1678006 0.7000
 40   -656.1630954793  -7.670830030880 1.58645797  0.01855530  0.8145375 0.7000
 41   -655.5263220529   0.636773426391 1.11143121  0.01297802  0.1615897 0.7000
 42   -655.0092406574   0.517081395571 0.77808156  0.00908429  0.1303294 0.7000
 43   -654.6395104964   0.369730160998 0.54456103  0.00635904  0.2146184 0.7000
 44   -654.3243703870   0.315140109316 0.38066965  0.00442951  0.2964323 0.7000
 45   -654.2024590036   0.121911383461 0.26657702  0.00310478  0.3369786 0.7000
 46   -654.0594001402   0.143058863386 0.18683269  0.00217903  0.3738154 0.7000
 47   -653.9508551562   0.108544984012 0.13102048  0.00157842  0.3971646 0.7000
 48   -654.0344103767  -0.083555220526 0.09167629  0.00110622  0.3876748 0.7000
 49   -653.9109379462   0.123472430524 0.06275931  0.00093567  0.4313619 0.7000
 50   -654.3907211418  -0.479783195629 2.83547234  0.03173065  0.3396321 0.7000
 51   -653.1114239020   1.279297239765 1.72977902  0.01977151  0.2915554 0.7000
 52   -650.8901777276   2.221246174448 1.07207693  0.01260417  0.3233669 0.7000
 53   -649.4748710435   1.415306684071 0.73507758  0.00868935  0.4314862 0.7000
 54   -648.4181199434   1.056751100138 0.53602549  0.00627071  0.5622779 0.7000
 55   -647.6166957926   0.801424150778 1.30660282  0.01364460  0.6591078 0.7000
 56   -641.3464420192   6.270253773422 0.17414081  0.00223829  1.3000702 0.7000
 57   -644.8937473055  -3.547305286265 0.39161245  0.00568808  0.9484864 0.7000
 58   -648.4426452283  -3.548897922832 2.41878389  0.02733885  1.3498878 0.7000
 59   -656.0016933068  -7.559048078465 1.67982490  0.01901181  1.0036889 0.7000
 60   -655.5051672017   0.496526105029 1.18131360  0.01328251  0.2523559 0.7000
 61   -655.0418119586   0.463355243160 0.83263023  0.00935301  0.1180087 0.7000
 62   -654.7045776972   0.337234261374 0.58145003  0.00654449  0.1943823 0.7000
 63   -654.4089656205   0.295612076648 0.40428667  0.00454385  0.2806744 0.7000
 64   -654.2908328105   0.118132810020 0.28288915  0.00318103  0.3183762 0.7000
 65   -654.1498598445   0.140972966001 0.19776457  0.00222725  0.3577969 0.7000
 66   -654.0275228596   0.122336984892 0.14740751  0.00176087  0.3881135 0.7000
 67   -654.1507835417  -0.123260682118 0.09998692  0.00118848  0.3617681 0.7000
 68   -654.0221081235   0.128675418252 0.06351840  0.00088505  0.4059179 0.7000
 69   -654.4354579053  -0.413349781786 3.09165578  0.03351685  0.3295913 0.7000
 70   -653.0384229980   1.397034907236 1.86532689  0.02074326  0.2945065 0.7000
 71   -650.8478342316   2.190588766464 1.14149012  0.01311300  0.3234045 0.7000
 72   -649.4635139203   1.384320311246 0.77431845  0.00953419  0.4274131 0.7000
 73   -649.8005766609  -0.337062740579 0.51139449  0.00640999  1.0497943 0.7000
 74   -649.6186606462   0.181916014733 1.49864226  0.01504252  1.0661076 0.7000
 75   -642.2910599960   7.327600650209 0.24378885  0.00367306  1.2063356 0.7000
 76   -645.4666867492  -3.175626753247 2.69835455  0.02931034  0.8217594 0.7000
 77   -656.0467823840 -10.580095634801 1.86840658  0.02044318  0.8922641 0.7000
 78   -655.4738713016   0.572911082467 1.31452474  0.01435600  0.1419364 0.7000
 79   -654.7192298813   0.754641420274 0.92422963  0.01005198  0.2073489 0.7000
 80   -654.3491763967   0.370053484547 0.64469407  0.00704364  0.2733670 0.7000
 81   -653.9648165686   0.384359828168 0.45876127  0.00500160  0.3547212 0.7000
 82   -654.0443926095  -0.079576040986 0.30668203  0.00353131  0.3577256 0.7000
 83   -653.2773090025   0.767083607007 0.21857790  0.00247226  0.5192184 0.7000
 84   -653.0574147944   0.219894208192 0.16301830  0.00197978  0.5214673 0.7000
 85   -653.7339822660  -0.676567471612 0.12312225  0.00284596  0.4519602 0.7000
 86   -654.7263959528  -0.992413686841 2.71325645  0.02991006  0.2445583 0.7000
 87   -653.5163320920   1.210063860808 1.72252128  0.01921190  0.3315128 0.7000
 88   -651.8713750302   1.644957061759 1.19912241  0.01338533  0.6183502 0.7000
 89   -650.5488938925   1.322481137686 0.85996485  0.00955411  0.7026109 0.7000
 90   -649.5403902806   1.008503611931 0.61194544  0.00676738  1.0876122 0.7000
 91   -648.8451768434   0.695213437173 1.51212303  0.02338853  1.3384299 0.7000
 92   -644.1405781829   4.704598660529 0.52192668  0.00854441  1.0217379 0.7000
 93   -647.9911502959  -3.850572112987 0.36765477  0.00609422  1.3921583 0.7000
 94   -648.3136515607  -0.322501264756 0.31399796  0.00505097  1.3152217 0.7000
 95   -648.6249766475  -0.311325086884 2.20208867  0.02557402  1.2429965 0.7000
 96   -656.1334699391  -7.508493291599 1.61028578  0.01831528  0.1976323 0.7000
 97   -654.9353867157   1.198083223463 1.13084524  0.01281872  0.1745033 0.7000
 98   -654.1862820621   0.749104653613 0.79353346  0.00899194  0.3190542 0.7000
 99   -653.5790960041   0.607186057980 0.55823108  0.00632008  0.4409901 0.7000
100   -653.1109862940   0.468109710087 0.39326300  0.00444497  0.5258879 0.7000
101   -652.7711012265   0.339885067465 0.29252747  0.00325753  0.5822477 0.7000
102   -652.5064261731   0.264675053388 0.19827210  0.00220980  0.5940609 0.7000
103   -652.9024128552  -0.395986682064 0.12997674  0.00151435  0.5885212 0.7000
104   -652.9052017585  -0.002788903272 0.07770895  0.00119664  0.5965748 0.7000
105   -653.3237975546  -0.418595796085 2.01211860  0.02654514  0.5393255 0.7000
106   -653.1235398248   0.200257729729 1.29620977  0.01684087  0.3110930 0.7000
107   -650.8157953331   2.307744491776 0.77307539  0.01033015  0.3151089 0.7000
108   -649.5834908081   1.232304524961 0.58329935  0.00740900  0.3948725 0.7000
109   -650.1175068145  -0.534016006430 0.38458787  0.00498110  0.9422427 0.7000
110   -649.9970151825   0.120491632026 0.65803365  0.01073482  0.9661844 0.7000
111   -643.3876120429   6.609403139593 0.16994213  0.00298482  1.1042458 0.7000
112   -645.4991411558  -2.111529112913 1.82688046  0.02319324  0.8381999 0.7000
113   -656.2050623284 -10.705921172582 1.30516470  0.01644478  0.6625760 0.7000
114   -655.4873236924   0.717738635960 0.91169629  0.01148120  0.1143194 0.7000
115   -654.7916942794   0.695629413006 0.63575624  0.00800383  0.1940645 0.7000
116   -654.4207857312   0.370908548234 0.44656821  0.00560864  0.2611331 0.7000
117   -654.1285043120   0.292281419184 0.31091810  0.00390396  0.3308441 0.7000
118   -654.0955818653   0.032922446683 0.22512274  0.00291250  0.3517498 0.7000
119   -653.4404326304   0.655149234913 0.15644485  0.00199144  0.5262210 0.7000
120   -653.2845531083   0.155879522168 0.10187711  0.00146916  0.5216863 0.7000
121   -653.8093019023  -0.524748794072 0.06956705  0.00118399  0.4140482 0.7000
122   -654.0899091736  -0.280607271233 0.07454612  0.00170630  0.3785146 0.7000
123   -654.6832261454  -0.593316971839 2.82008576  0.03092928  0.2753394 0.7000
124   -653.6872111935   0.996014951920 1.76545027  0.01965556  0.2749523 0.7000
125   -652.0499154350   1.637295758503 1.21634913  0.01358069  0.5421646 0.7000
126   -650.8111598909   1.238755544105 0.87402407  0.00970835  0.8181413 0.7000
127   -649.8630350149   0.948124875993 0.62646857  0.00692255  0.7717472 0.7000
128   -649.1668784493   0.696156565599 1.23882060  0.01949218  1.2311137 0.7000
129   -644.5146526562   4.652225793078 0.48745197  0.00741994  1.0077206 0.7000
130   -648.1822309357  -3.667578279495 0.32798074  0.00499816  1.1190646 0.7000
131   -648.6792895222  -0.497058586535 0.23969851  0.00391264  1.1753170 0.7000
132   -649.0480378731  -0.368748350906 2.25656393  0.02575858  1.0897590 0.7000
133   -655.9323583785  -6.884320505339 1.63218488  0.01833635  0.1382633 0.7000
134   -654.6544702036   1.277888174915 1.14051136  0.01282657  0.2279665 0.7000
135   -653.6871885228   0.967281680813 0.80109430  0.00900641  0.4087367 0.7000
136   -652.9407870603   0.746401462438 0.56305093  0.00632719  0.5300540 0.7000
137   -652.3902043683   0.550582692009 0.39612768  0.00445149  0.6074094 0.7000
138   -651.9636508581   0.426553510163 0.29550163  0.00322421  0.6400920 0.7000
139   -652.1726167467  -0.208965888510 0.19954326  0.00219761  0.6370740 0.7000
140   -652.1800363447  -0.007419598078 0.13351007  0.00151213  0.6698192 0.7000
141   -652.1178454079   0.062190936860 0.09138917  0.00153876  0.6884572 0.7000
142   -653.2102138323  -1.092368424471 3.27036943  0.03593159  0.5470480 0.7000
143   -653.4097548013  -0.199540968934 2.02206905  0.02210388  0.2861689 0.7000
144   -651.0402991706   2.369455630645 1.27787212  0.01407236  0.3012171 0.7000
145   -649.5168481810   1.523450989590 0.93826163  0.01029523  0.4053910 0.7000
146   -648.1730764280   1.343771753086 0.74956190  0.00823778  0.5787855 0.7000
147   -646.7924509930   1.380625434941 0.74387652  0.00963833  0.7573838 0.7000
148   -642.0577175773   4.734733415750 0.17434750  0.00252427  1.1974251 0.7000
149   -645.1300709486  -3.072353371360 0.28988535  0.00488040  0.9058033 0.7000
150   -646.6675919018  -1.537520953175 0.23816308  0.00413818  0.7020470 0.7000
151   -648.3499062136  -1.682314311777 2.75268413  0.03014469  1.5414912 0.7000
152   -655.3916670342  -7.041760820641 1.92727517  0.02103416  0.3808535 0.7000
153   -653.9185852542   1.473081780055 1.34885026  0.01463956  0.2852204 0.7000
154   -653.2636692563   0.654915997872 0.94439854  0.01022656  0.3454472 0.7000
155   -652.7825473847   0.481121871545 0.66010765  0.00716532  0.4265410 0.7000
156   -652.9082139531  -0.125666568403 0.46234567  0.00530372  0.4644093 0.7000
157   -651.1103298988   1.797884054321 0.32425519  0.00367599  0.6810947 0.7000
158   -650.7901732362   0.320156662615 0.22736502  0.00263692  0.7483722 0.7000
159   -652.1943336185  -1.404160382244 0.17317226  0.00365757  0.5608540 0.7000
160   -653.9153133047  -1.720979686274 4.34558995  0.04355295  0.3608391 0.7000
161   -653.2430759010   0.672237403688 2.69199578  0.02698637  0.2720060 0.7000
162   -650.8435590496   2.399516851441 1.80910167  0.01815412  0.3247763 0.7000
163   -649.1222569100   1.721302139612 1.34279755  0.01346915  0.4833169 0.7000
164   -647.6371628203   1.485094089716 0.97271381  0.00976568  0.6604276 0.7000
165   -646.5073409626   1.129821857639 1.08201042  0.01168416  0.7907604 0.7000
166   -642.0237327828   4.483608179822 0.15280118  0.00237968  1.1674303 0.7000
167   -645.2795253925  -3.255792609693 0.22440459  0.00322858  0.8498968 0.7000
168   -646.0898978914  -0.810372498851 0.17549988  0.00215323  0.7743967 0.7000
169   -645.7551712810   0.334726610354 3.80711488  0.03830433  0.8537922 0.7000
170   -655.9771009679 -10.221929686912 2.66446104  0.02685351  1.0920784 0.7000
171   -655.0837213834   0.893379584535 1.86627680  0.01874862  0.1568677 0.7000
172   -654.2122166105   0.871504772899 1.30646984  0.01312624  0.2464422 0.7000
173   -653.4919713838   0.720245226662 0.91452115  0.00919930  0.3746110 0.7000
174   -652.9068075266   0.585163857227 0.64021932  0.00645989  0.4977962 0.7000
175   -652.3389517857   0.567855740927 0.44815060  0.00453810  0.6035389 0.7000
176   -651.9132752203   0.425676565399 0.31355798  0.00315729  0.6649569 0.7000
177   -652.6046624368  -0.691387216489 0.21948780  0.00222530  0.5534870 0.7000
178   -652.6590796548  -0.054417218086 0.15379912  0.00162702  0.5436722 0.7000
179   -652.8399243082  -0.180844653357 6.01404151  0.05849015  0.5360385 0.7000
180   -653.1203289761  -0.280404667882 3.54033300  0.03406044  0.3238450 0.7000
181   -650.8440290298   2.276299946299 1.92349333  0.01856020  0.3089100 0.7000
182   -649.7251939502   1.118835079538 1.11403577  0.01101973  0.3690630 0.7000
183   -649.7782003360  -0.053006385730 0.77288297  0.00765763  0.8367106 0.7000
184   -649.4933575941   0.284842741866 1.56901693  0.01560181  0.9625198 0.7000
185   -646.4120752984   3.081282295682 0.84462345  0.00837875  0.7750541 0.7000
186   -645.3677040032   1.044371295214 4.84087312  0.04658665  0.9010592 0.7000
187   -656.1214288479 -10.753724844682 3.38857052  0.03265659  0.6187488 0.7000
188   -655.4787229513   0.642705896627 7.90650252  0.07633948  0.0984941 0.0000
189   -652.9680117980   2.510711153240 0.00665881  0.00018290  0.5859341 0.7000
190   -653.1086167798  -0.140604981822 0.00832501  0.00017518  0.5459687 0.7000
191   -653.1949443106  -0.086327530748 0.01764887  0.00035425  0.5436059 0.7000
192   -653.3981821235  -0.203237812863 0.02245511  0.00038571  0.5041133 0.7000
193   -652.9849987915   0.413183331950 5.34395748  0.05173565  0.6054455 0.7000
194   -654.1846334222  -1.199634630675 3.39451405  0.03274993  0.1969873 0.7000
195   -651.9678015398   2.216831882425 2.32332489  0.02239517  0.2650543 0.7000
196   -650.4462430368   1.521558502976 1.64671694  0.01588592  0.4817396 0.7000
197   -649.2428782467   1.203364790102 1.16297932  0.01123111  0.5007436 0.7000
198   -648.3381058289   0.904772417816 0.96560355  0.00952803  0.6470205 0.7000
199   -646.6528233474   1.685282481483 0.24305623  0.00276736  0.8167132 0.7000
200   -647.4490439322  -0.796220584831 0.11713628  0.00177952  0.7337409 0.7000
201   -648.2036052950  -0.754561362761 0.15143704  0.00176061  0.7490216 0.7000
202   -648.5410023248  -0.337397029868 4.58388793  0.04447366  0.6298303 0.7000
203   -655.4534203924  -6.912418067548 3.20913561  0.03108696  0.2115468 0.7000
204   -654.1189728651   1.334447527286 2.24635897  0.02173936  0.2820183 0.7000
205   -653.4522220549   0.666750810229 1.57248414  0.01521134  0.3635459 0.7000
206   -652.9162588982   0.535963156666 1.10074985  0.01065051  0.4650140 0.7000
207   -652.3852078233   0.531051074915 0.76967923  0.00761883  0.5616524 0.7000
208   -650.7200684539   1.665139369368 0.53899024  0.00522712  0.7836259 0.7000
209   -651.1275528799  -0.407484425954 0.37775452  0.00376173  0.7362086 0.7000
210   -652.3292589166  -1.201706036758 0.26449441  0.00279099  0.6011147 0.7000
211   -652.8751880863  -0.545929169665 5.76368624  0.05544971  0.5280199 0.7000
212   -653.6851126395  -0.809924553158 3.49516895  0.03334676  0.2593921 0.7000
213   -651.5030911044   2.182021535021 2.39331430  0.02281255  0.2529938 0.7000
214   -649.8651212014   1.637969903085 1.74650420  0.01668971  0.4194084 0.7000
215   -648.4443357242   1.420785477142 1.26072186  0.01208916  0.6090642 0.7000
216   -647.3290920004   1.115243723781 1.14452937  0.01132789  0.7579247 0.7000
217   -645.1447275286   2.184364471789 0.19067551  0.00259287  0.9987127 0.7000
218   -646.8989105993  -1.754183070693 0.20777508  0.00258470  0.8014157 0.7000
219   -647.6221186255  -0.723208026184 0.12729105  0.00169520  0.7235919 0.7000
220   -647.9650925636  -0.342973938126 4.95671545  0.04756162  0.8206198 0.7000
221   -655.3649465801  -7.399854016440 3.47000339  0.03322581  0.2479332 0.7000
222   -653.9375542034   1.427392376670 2.42887799  0.02323188  0.2957685 0.7000
223   -653.2660800016   0.671474201790 1.70027564  0.01625246  0.3724657 0.7000
224   -652.7818960167   0.484183984910 1.19025342  0.01137689  0.4651504 0.7000
225   -652.3021531103   0.479742906447 0.83257309  0.00820282  0.5573628 0.7000
226   -650.1106431820   2.191509928287 0.58290956  0.00558544  0.8728928 0.7000
227   -650.6934712746  -0.582828092613 0.40837804  0.00403041  0.7707062 0.7000
228   -652.0933919465  -1.399920671922 0.28591233  0.00303482  0.6197159 0.7000
229   -652.8303073663  -0.736915419814 5.87839699  0.05619524  0.5207492 0.7000
230   -653.7807085139  -0.950401147621 3.57651723  0.03393906  0.2466781 0.7000
231   -651.5882821401   2.192426373825 2.49787175  0.02369880  0.2533577 0.7000
232   -649.8685912104   1.719690929759 1.81000440  0.01721696  0.4323478 0.7000
233   -648.4215925067   1.446998703695 1.28797985  0.01228613  0.6168311 0.7000
234   -647.3304934475   1.091099059217 1.11733413  0.01096113  0.7617553 0.7000
235   -645.3820172481   1.948476199363 0.20996275  0.00273302  0.9763681 0.7000
236   -647.0651101239  -1.683092875840 0.14667470  0.00199015  0.7901734 0.7000
237   -647.5184881091  -0.453377985126 0.20203973  0.00211041  0.7672238 0.7000
238   -647.7585917464  -0.240103637361 5.12769996  0.04893730  0.7382528 0.7000
239   -655.3022471980  -7.543655451571 3.58928015  0.03416867  0.2643053 0.7000
240   -653.8792560989   1.422991099076 2.51204869  0.02388590  0.3036427 0.7000
241   -653.2932571172   0.585998981714 1.75846645  0.01671129  0.3654231 0.7000
242   -652.9371250000   0.356132117235 1.23107954  0.01169783  0.4386784 0.7000
243   -652.6023166528   0.334808347176 0.86196725  0.00851174  0.5135643 0.7000
244   -649.9057860297   2.696530623107 0.60341612  0.00574398  0.8978301 0.7000
245   -650.6694457534  -0.763659723729 0.42254038  0.00415150  0.7708009 0.7000
246   -652.1659676482  -1.496521894774 0.29576629  0.00318082  0.6088552 0.7000
247   -653.0480274802  -0.882059832012 5.71961818  0.05434223  0.4854057 0.7000
248   -653.9139447083  -0.865917228090 3.51296936  0.03320962  0.2225150 0.7000
249   -651.7655845547   2.148360153592 2.50364299  0.02368165  0.2439404 0.7000
250   -650.0094151961   1.756169358569 1.79253129  0.01698797  0.4217322 0.7000
251   -648.6021605433   1.407254652828 1.26214083  0.01198635  0.6287632 0.7000
252   -647.5704202482   1.031740295075 1.03821513  0.01006781  0.8030756 0.7000
253   -645.9418481047   1.628572143571 0.20641320  0.00271091  0.9351094 0.7000
254   -647.4631994811  -1.521351376447 0.16270030  0.00196761  0.7589945 0.7000
255   -647.5837001375  -0.120500656398 0.25815356  0.00253416  0.7664071 0.7000
256   -647.7742535752  -0.190553437661 5.08376063  0.04833629  0.8852739 0.7000
257   -655.2791745562  -7.504920980997 3.55803845  0.03373546  0.2703793 0.7000
258   -653.8817768986   1.397397657572 2.48974971  0.02357726  0.3067865 0.7000
259   -653.3651178991   0.516658999509 1.74271600  0.01649619  0.3572493 0.7000
260   -653.0986133931   0.266504505925 1.22002323  0.01154730  0.4163186 0.7000
261   -652.8609780139   0.237635379294 0.85594038  0.00845565  0.4782937 0.7000
262   -649.9502669674   2.910711046434 0.59916184  0.00567507  0.8851561 0.7000
263   -650.8065044987  -0.856237531249 0.41919019  0.00410515  0.7586326 0.7000
264   -652.2921164842  -1.485611985511 0.29299743  0.00318026  0.5949587 0.7000
265   -653.2312668254  -0.939150341205 5.58962690  0.05292445  0.4590378 0.7000
266   -653.9863166017  -0.755049776349 3.45454085  0.03259439  0.2071450 0.7000
267   -651.8801296024   2.106186999349 2.48676736  0.02348224  0.2463643 0.7000
268   -650.1215544088   1.758575193601 1.76911974  0.01673222  0.4476508 0.7000
269   -648.7516155138   1.369938894970 1.24094608  0.01175847  0.6457921 0.7000
270   -647.7555555537   0.996059960160 0.98995671  0.00954137  0.8143010 0.7000
271   -646.3068122539   1.448743299743 0.19967277  0.00266783  0.9038492 0.7000
272   -647.7326725961  -1.425860342172 0.23170265  0.00233745  0.7363491 0.7000
273   -647.6627272853   0.069945310740 0.28154520  0.00272442  0.7652161 0.7000
274   -647.8376888887  -0.174961603378 5.01702584  0.04760484  0.9206863 0.7000
275   -655.2927794325  -7.455090543763 3.51156196  0.03322354  0.2689953 0.7000
276   -653.9079363256   1.384843106867 2.45689120  0.02321614  0.3060760 0.7000
277   -653.4173287628   0.490607562842 1.71941846  0.01624314  0.3525268 0.7000
278   -653.1829909588   0.234337804020 1.20361798  0.01136985  0.4060821 0.7000
279   -652.9761847131   0.206806245617 0.84661403  0.00834713  0.4636909 0.7000
280   -650.0439805832   2.932204129929 0.59270449  0.00559585  0.8699862 0.7000
281   -650.9204817952  -0.876501211942 0.41423692  0.00404816  0.7491726 0.7000
282   -652.3705601218  -1.450078326621 0.28875474  0.00314636  0.5872596 0.7000
283   -653.3173674799  -0.946807358087 5.55715522  0.05254592  0.4479658 0.7000
284   -654.0087432269  -0.691375747087 3.44127751  0.03244160  0.2017580 0.7000
285   -651.9249202337   2.083822993274 2.48521572  0.02344970  0.2476530 0.7000
286   -650.1715175838   1.753402649859 1.76431546  0.01667326  0.4554787 0.7000
287   -648.8188943695   1.352623214334 1.23622710  0.01170384  0.6531842 0.7000
288   -647.8373008203   0.981593549163 0.97678774  0.00939904  0.8168759 0.7000
289   -646.4467459592   1.390554861121 0.20079157  0.00266847  0.8870141 0.7000
290   -647.8451750847  -1.398429125515 0.25658094  0.00251177  0.7295109 0.7000
291   -647.7093251818   0.135849902902 0.29058930  0.00279808  0.8029419 0.7000
292   -647.8809431072  -0.171617925427 5.00117074  0.04740639  0.9274163 0.7000
293   -655.3031577748  -7.422214667529 3.50091724  0.03308872  0.2671309 0.7000
294   -653.9231085087   1.380049266055 2.44912630  0.02312029  0.3054346 0.7000
295   -653.4403108079   0.482797700827 1.71353490  0.01617420  0.3508396 0.7000
296   -653.2155231660   0.224787641839 1.19940957  0.01132106  0.4026542 0.7000
297   -653.0170423561   0.198480809913 0.84598693  0.00832236  0.4590334 0.7000
298   -650.0905249962   2.926517359928 0.59231230  0.00558127  0.8632536 0.7000
299   -650.9714334418  -0.880908445610 0.41353654  0.00403650  0.7449830 0.7000
300   -652.4029268453  -1.431493403485 0.28732574  0.00313475  0.5843235 0.7000
301   -653.3484300478  -0.945503202473 5.56159237  0.05255879  0.4444877 0.7000
302   -654.0167988610  -0.668368813228 3.44496793  0.03246194  0.1999146 0.7000
303   -651.9414393941   2.075359466877 2.49040377  0.02348990  0.2471182 0.7000
304   -650.1911756834   1.750263710670 1.76665332  0.01668960  0.4560505 0.7000
305   -648.8458645472   1.345311136248 1.23737391  0.01171077  0.6568307 0.7000
306   -647.8703069421   0.975557605108 0.97595333  0.00938955  0.8164166 0.7000
307   -646.4970590090   1.373247933050 0.20382946  0.00269158  0.8834650 0.7000
308   -647.8859028550  -1.388843845929 0.26612896  0.00258109  0.7271725 0.7000
309   -647.7293060769   0.156596778077 0.29606952  0.00284313  0.8197740 0.7000
310   -647.8988161263  -0.169510049371 5.00795962  0.04744331  0.9306807 0.7000
311   -655.3105689765  -7.411752850211 3.50613755  0.03311918  0.2657088 0.7000
312   -653.9313623010   1.379206675429 2.45248213  0.02314030  0.3049610 0.7000
313   -653.4517366656   0.479625635447 1.71539885  0.01618547  0.3499125 0.7000
314   -653.2310058802   0.220730785431 1.20064162  0.01132839  0.4009988 0.7000
315   -653.0362123484   0.194793531751 0.84909794  0.00833636  0.4568467 0.7000
316   -650.1176368830   2.918575465427 0.59450347  0.00559473  0.8593381 0.7000
317   -650.9971830129  -0.879546129900 0.41467193  0.00404382  0.7428247 0.7000
318   -652.4179690908  -1.420786077946 0.28717628  0.00313414  0.5829808 0.7000
319   -653.3623724551  -0.944403364256 5.56956254  0.05262114  0.4430173 0.7000
320   -654.0219241354  -0.659551680343 3.44955341  0.03249746  0.1987669 0.7000
321   -651.9505655862   2.071358549273 2.49497089  0.02352891  0.2463403 0.7000
322   -650.2023491593   1.748216426874 1.76910471  0.01671045  0.4547740 0.7000
323   -648.8615574128   1.340791746461 1.23881971  0.01172301  0.6584635 0.7000
324   -647.8897533661   0.971804046705 0.97699108  0.00940155  0.8147669 0.7000
325   -646.5252496487   1.364503717413 0.20688183  0.00271859  0.8808523 0.7000
326   -647.9068398824  -1.381590233649 0.27160048  0.00262080  0.7252276 0.7000
327   -647.7403495904   0.166490291963 0.30028458  0.00287840  0.8296153 0.7000
328   -647.9075480142  -0.167198423822 5.01624448  0.04750572  0.9331657 0.7000
329   -655.3173196512  -7.409771637020 3.51241564  0.03316758  0.2643883 0.7000
330   -653.9377319044   1.379587746822 2.45663098  0.02317304  0.3044987 0.7000
331   -653.4599857021   0.477746202278 1.71785019  0.01620545  0.3491492 0.7000
332   -653.2416792545   0.218306447688 1.20229629  0.01134184  0.3998123 0.7000
333   -653.0490402049   0.192639049557 0.85223241  0.00835411  0.4553640 0.7000
334   -650.1398193600   2.909220844942 0.59670668  0.00561060  0.8561066 0.7000
335   -651.0157561707  -0.875936810793 0.41587159  0.00405261  0.7412479 0.7000
336   -652.4281499160  -1.412393745207 0.28715728  0.00313440  0.5820655 0.7000
337   -653.3715623267  -0.943412410732 5.57559732  0.05267400  0.4420638 0.7000
338   -654.0255895976  -0.654027270926 3.45270394  0.03252372  0.1978716 0.7000
339   -651.9569322804   2.068657317170 2.49810307  0.02355729  0.2455881 0.7000
340   -650.2103424614   1.746589819051 1.77075602  0.01672576  0.4531916 0.7000
341   -648.8729688068   1.337373654571 1.23979105  0.01173218  0.6587673 0.7000
342   -647.9039968638   0.968971943039 0.97798452  0.00941437  0.8123851 0.7000
343   -646.5454566713   1.358540192484 0.20962573  0.00274418  0.8784157 0.7000
344   -647.9213246378  -1.375867966537 0.27549697  0.00264912  0.7211060 0.7000
345   -647.7482868143   0.173037823514 0.30353761  0.00290604  0.8357507 0.7000
346   -647.9134228916  -0.165136077250 5.01620872  0.04752457  0.9345362 0.7000
347   -655.3925988118  -7.479175920268 3.51557974  0.03320124  0.2481873 0.7000
348   -653.9912631174   1.401335694467 2.45997273  0.02320672  0.2974699 0.7000
349   -653.3526882074   0.638574909959 1.72132874  0.01623603  0.3754350 0.7000
350   -652.8862643639   0.466423843500 1.20634783  0.01137539  0.4641385 0.7000
351   -652.3952335040   0.491030859874 0.85345841  0.00825215  0.5565743 0.7000
352   -650.1002840078   2.294949496245 0.59793718  0.00561086  0.8844760 0.7000
353   -650.8514452575  -0.751161249724 0.41616566  0.00405830  0.7592457 0.7000
354   -652.2250397177  -1.373594460211 0.28735869  0.00303599  0.6113881 0.7000
355   -652.9425250854  -0.717485367656 6.10217913  0.05812141  0.5146136 0.7000
356   -653.8005859576  -0.858060872244 3.70255143  0.03498985  0.2393344 0.7000
357   -651.6454364250   2.155149532624 2.59772904  0.02455086  0.2525602 0.7000
358   -649.9319051614   1.713531263614 1.86923874  0.01771766  0.4573341 0.7000
359   -648.5238638309   1.408041330448 1.32210456  0.01256662  0.6724776 0.7000
360   -647.4785201071   1.045343723835 1.15293907  0.01135427  0.8047061 0.7000
361   -645.5874365682   1.891083538859 0.23062902  0.00296198  0.9508703 0.7000
362   -647.2224458589  -1.635009290638 0.13813694  0.00200256  0.7747009 0.7000
363   -647.6043209982  -0.381875139302 0.27798959  0.00267677  0.7521579 0.7000
364   -647.7788910090  -0.174570010856 5.33630843  0.05063820  0.9449073 0.7000
365   -655.3419578359  -7.563066826893 3.73519460  0.03536116  0.2587276 0.7000
366   -653.9145631712   1.427394664759 2.61171109  0.02470830  0.3043345 0.7000
367   -653.3636320679   0.550931103270 1.82707048  0.01728258  0.3605944 0.7000
368   -653.0521191567   0.311512911245 1.27895012  0.01209561  0.4268037 0.7000
369   -652.7628371093   0.289282047409 0.90792148  0.00884259  0.4954918 0.7000
370   -650.0122696494   2.750567459858 0.63533616  0.00598838  0.8815328 0.7000
371   -650.7919116414  -0.779641991997 0.44224862  0.00431440  0.7598612 0.7000
372   -652.2575499533  -1.465638311941 0.30610352  0.00327736  0.6002226 0.7000
373   -653.1553180870  -0.897768133662 5.79753138  0.05485691  0.4732405 0.7000
374   -653.9816313331  -0.826313246145 3.56438083  0.03356898  0.2105293 0.7000
375   -651.8625951309   2.119036202250 2.55253713  0.02406361  0.2421845 0.7000
376   -650.1194061496   1.743188981315 1.81693416  0.01716388  0.4477985 0.7000
377   -648.7563811723   1.363024977231 1.27446028  0.01206453  0.6636493 0.7000
378   -647.7654192268   0.990961945526 1.04052015  0.01008227  0.8050651 0.7000
379   -646.2468021922   1.518617034662 0.22031424  0.00286467  0.8994757 0.7000
380   -647.6647345092  -1.417932317092 0.21394657  0.00223063  0.7384197 0.7000
381   -647.6861807189  -0.021446209671 0.31086331  0.00297098  0.8227863 0.7000
382   -647.8321691437  -0.145988424757 5.17849533  0.04901316  0.9549733 0.7000
383   -655.3374109429  -7.505241799223 3.62679663  0.03423596  0.2599369 0.7000
384   -653.9349795525   1.402431390415 2.53611241  0.02391946  0.3032984 0.7000
385   -653.4360488788   0.498930673699 1.77331917  0.01672475  0.3508613 0.7000
386   -653.1898035381   0.246245340714 1.24119252  0.01170444  0.4064650 0.7000
387   -652.9685652864   0.221238251617 0.88274764  0.00860589  0.4661224 0.7000
388   -650.1251187028   2.843446583650 0.61812214  0.00580796  0.8598150 0.7000
389   -650.9516963721  -0.826577669272 0.43017266  0.00418480  0.7461094 0.7000
390   -652.3773842128  -1.425687840725 0.29634241  0.00320259  0.5868739 0.7000
391   -653.3081869670  -0.930802754198 5.67522301  0.05360864  0.4506451 0.7000
392   -654.0217610926  -0.713574125627 3.50420969  0.03298310  0.1998318 0.7000
393   -651.9405683657   2.081192726965 2.52879918  0.02383068  0.2387088 0.7000
394   -650.1978975731   1.742670792586 1.79362998  0.01693306  0.4473710 0.7000
395   -648.8590310170   1.338866556091 1.25607788  0.01188110  0.6626198 0.7000
396   -647.8888617708   0.970169246210 1.00174217  0.00966401  0.8069821 0.7000
397   -646.4929707235   1.395891047247 0.21714952  0.00284193  0.8801792 0.7000
398   -647.8669351446  -1.373964421034 0.26364931  0.00255514  0.7113232 0.7000
399   -647.7449098233   0.122025321215 0.31498627  0.00300734  0.8484508 0.7000
400   -647.8947109904  -0.149801167076 5.09980582  0.04824224  0.9509152 0.7000
401   -655.3400492526  -7.445338262181 3.57252139  0.03370085  0.2595836 0.7000
402   -653.9501427923   1.389906460251 2.49817927  0.02354423  0.3028747 0.7000
403   -653.4668996506   0.483243141703 1.74611647  0.01645800  0.3482820 0.7000
404   -653.2406181957   0.226281454973 1.22202109  0.01151730  0.4003680 0.7000
405   -653.0383415294   0.202276666236 0.87050049  0.00849098  0.4572996 0.7000
406   -650.1800379098   2.858303619653 0.60962080  0.00572212  0.8510276 0.7000
407   -651.0261465707  -0.846108660879 0.42409689  0.00412316  0.7399839 0.7000
408   -652.4274752558  -1.401328685152 0.29111938  0.00316128  0.5820702 0.7000
409   -653.3627195192  -0.935244263407 5.63709507  0.05323861  0.4437054 0.7000
410   -654.0298302276  -0.667110708374 3.48469191  0.03280173  0.1970909 0.7000
411   -651.9618799461   2.067950281528 2.52006432  0.02375149  0.2380806 0.7000
412   -650.2204177451   1.741462200927 1.78572748  0.01686007  0.4456332 0.7000
413   -648.8889075522   1.331510192935 1.25003383  0.01182481  0.6587317 0.7000
414   -647.9248135294   0.964094022774 0.99082895  0.00955267  0.8027530 0.7000
415   -646.5599870008   1.364826528638 0.21860565  0.00284171  0.8739402 0.7000
416   -647.9277509340  -1.367763933212 0.27804072  0.00266349  0.6947807 0.7000
417   -647.7641284884   0.163622445645 0.31486381  0.00300544  0.8512760 0.7000
418   -647.9181278144  -0.153999326063 5.06714650  0.04797474  0.9436749 0.7000
419   -655.4054217227  -7.487293908230 3.55209954  0.03352160  0.2454975 0.7000
420   -654.0019899967   1.403431725944 2.48507040  0.02342714  0.2963943 0.7000
421   -653.3707226633   0.631267333398 1.73835562  0.01638547  0.3730997 0.7000
422   -652.9152375307   0.455485132650 1.21860196  0.01148205  0.4603717 0.7000
423   -652.4354059172   0.479831613471 0.86541009  0.00834616  0.5516984 0.7000
424   -650.1519192097   2.283486707494 0.60620740  0.00568047  0.8760262 0.7000
425   -650.8783736509  -0.726454441173 0.42097869  0.00409753  0.7568960 0.7000
426   -652.2455083648  -1.367134713901 0.28908937  0.00305390  0.6091720 0.7000
427   -652.9700061625  -0.724497797772 6.10300634  0.05815311  0.5109088 0.7000
428   -653.8098982565  -0.839892093939 3.70316789  0.03499933  0.2368365 0.7000
429   -651.6609423357   2.148955920757 2.60136709  0.02459006  0.2562005 0.7000
430   -649.9483150065   1.712627329189 1.86919983  0.01772216  0.4589668 0.7000
431   -648.5487181532   1.399596853306 1.32027568  0.01255247  0.6580918 0.7000
432   -647.5140377024   1.034680450875 1.14950047  0.01134635  0.7730997 0.7000
433   -645.6436903148   1.870347387554 0.23689634  0.00301836  0.9428396 0.7000
434   -647.2613633261  -1.617673011279 0.13495049  0.00201105  0.7806130 0.7000
435   -647.6199915162  -0.358628190119 0.29284140  0.00280479  0.7786374 0.7000
436   -647.7783171709  -0.158325654665 5.34506709  0.05071923  0.9532985 0.7000
437   -655.3570461950  -7.578729024140 3.74276227  0.03543161  0.2553001 0.7000
438   -653.9274507145   1.429595480452 2.61671471  0.02475610  0.3033837 0.7000
439   -653.3832377109   0.544213003653 1.83027579  0.01731320  0.3585858 0.7000
440   -653.0801318338   0.303105877117 1.28110999  0.01211527  0.4235231 0.7000
441   -652.7984118670   0.281719966771 0.91214093  0.00887327  0.4912821 0.7000
442   -650.0613978164   2.737014050569 0.63845012  0.00601520  0.8738515 0.7000
443   -650.8306762302  -0.769278413809 0.44385929  0.00432794  0.7564268 0.7000
444   -652.2812371061  -1.450560875832 0.30625912  0.00327960  0.5979261 0.7000
445   -653.1801910876  -0.898953981568 5.79514496  0.05483948  0.4703355 0.7000
446   -653.9908724348  -0.810681347150 3.56360935  0.03356009  0.2083096 0.7000
447   -651.8780379903   2.112834444456 2.55441355  0.02408323  0.2424568 0.7000
448   -650.1369567373   1.741081253076 1.81612784  0.01715833  0.4473637 0.7000
449   -648.7821313558   1.354825381501 1.27292556  0.01205152  0.6524114 0.7000
450   -647.7988880980   0.983243257723 1.03658883  0.01005495  0.7842424 0.7000
451   -646.2979041402   1.500983957844 0.22501095  0.00290599  0.8931813 0.7000
452   -647.7027393696  -1.404835229441 0.22502929  0.00229529  0.7351484 0.7000
453   -647.7023730463   0.000366323382 0.31909225  0.00304622  0.8345593 0.7000
454   -647.8406136129  -0.138240566604 5.18068320  0.04903027  0.9529274 0.7000
455   -655.3535958095  -7.512982196594 3.62961879  0.03426068  0.2568887 0.7000
456   -653.9491365204   1.404459289007 2.53787315  0.02393564  0.3021248 0.7000
457   -653.4531924431   0.495944077323 1.77416768  0.01673242  0.3492717 0.7000
458   -653.2104578795   0.242734563576 1.24174819  0.01170898  0.4043026 0.7000
459   -652.9911854433   0.219272436237 0.88539917  0.00862035  0.4637145 0.7000
460   -650.1747224896   2.816462953752 0.62012287  0.00582451  0.8526191 0.7000
461   -650.9887684264  -0.814045936836 0.43110411  0.00419135  0.7428058 0.7000
462   -652.3970358171  -1.408267390695 0.29598536  0.00319789  0.5850815 0.7000
463   -653.3250279955  -0.927992178446 5.67573632  0.05362373  0.4489886 0.7000
464   -654.0264381428  -0.701410147229 3.50428985  0.03298495  0.1986559 0.7000
465   -651.9500388955   2.076399247302 2.52996109  0.02384513  0.2360336 0.7000
466   -650.2096593778   1.740379517649 1.79313230  0.01693162  0.4456006 0.7000
467   -648.8765804750   1.333078902853 1.25515776  0.01187490  0.6518210 0.7000
468   -647.9116343404   0.964946134513 0.99990257  0.00965645  0.7881592 0.7000
469   -646.5231225221   1.388511818376 0.22100717  0.00287780  0.8755993 0.7000
470   -647.8921966676  -1.369074145511 0.27074902  0.00260548  0.7109871 0.7000
471   -647.7571789831   0.135017684476 0.32004345  0.00305360  0.8526931 0.7000
472   -647.9025921024  -0.145413119278 5.07604485  0.04797248  0.9460747 0.7000
473   -656.2225633335  -8.319971231096 3.57811538  0.03374100  0.1924774 0.7000
474   -654.9373645734   1.285198760080 2.50645549  0.02360741  0.1667998 0.7000
475   -654.2166873231   0.720677250336 1.75478309  0.01652620  0.2704426 0.7000
476   -653.6321515551   0.584535767944 1.23087122  0.01158777  0.3900480 0.7000
477   -653.1288962866   0.503255268538 0.86427322  0.00813656  0.4884742 0.7000
478   -652.6760450980   0.452851188584 0.61009921  0.00574135  0.5639846 0.7000
479   -652.2140065279   0.462038570071 0.42599341  0.00401422  0.6258428 0.7000
480   -652.8896089475  -0.675602419610 0.29526553  0.00281867  0.5487309 0.7000
481   -653.0498970640  -0.160288116413 0.20520288  0.00203631  0.5310310 0.7000
482   -653.3481870700  -0.298290006085 5.76718810  0.05641401  0.4873530 0.7000
483   -653.0692689756   0.278918094424 3.27408909  0.03213487  0.2765478 0.7000
484   -650.9122835603   2.156985415359 1.95260813  0.01938845  0.5490266 0.7000
485   -649.8174859510   1.094797609207 1.36684487  0.01357303  0.7121257 0.7000
486   -648.8173230978   1.000162853210 0.98888418  0.00980108  0.8922048 0.7000
487   -647.9803831862   0.836939911686 1.62018622  0.01588438  1.0728088 0.7000
488   -644.6733584775   3.307024708613 0.42296297  0.00410893  1.1474626 0.7000
489   -645.4919053135  -0.818546835922 0.54835304  0.00620574  1.3975748 0.7000
490   -647.7013320081  -2.209426694630 0.25874820  0.00322710  0.9151347 0.7000
491   -648.1369505359  -0.435618527848 4.39923206  0.04327922  0.9102019 0.7000
492   -655.6048895736  -7.467939037679 3.14813078  0.03078330  0.2027121 0.7000
493   -654.2200191524   1.384870421177 2.20570396  0.02154182  0.2698318 0.7000
494   -653.5808183795   0.639200772922 1.54183021  0.01505866  0.3518908 0.7000
495   -653.0945492927   0.486269086821 1.07939595  0.01054720  0.4461546 0.7000
496   -652.5863969424   0.508152350259 0.77104966  0.00764548  0.5435608 0.7000
497   -651.2188371299   1.367559812568 0.55359205  0.00541528  0.7245265 0.7000
498   -651.1488708157   0.069966314139 0.38352780  0.00383587  0.7372275 0.7000
499   -652.3900010906  -1.241130274840 0.26015899  0.00278665  0.5943311 0.7000
500   -652.9907831523  -0.600782061685 5.73475856  0.05467738  0.5146008 0.7000
501   -653.7366252862  -0.745842133899 3.47666133  0.03291955  0.2374554 0.7000
502   -651.6111798452   2.125445440930 2.43143764  0.02302010  0.3076070 0.7000
503   -649.9340395113   1.677140333975 1.73927738  0.01648641  0.5049527 0.7000
504   -648.5611077524   1.372931758827 1.22462628  0.01162152  0.6848877 0.7000
505   -647.5533182855   1.007789466933 1.04149228  0.01004165  0.8099256 0.7000
506   -645.6806814277   1.872636857761 0.17740639  0.00245963  0.9667222 0.7000
507   -647.2683032688  -1.587621841087 0.12297038  0.00176181  0.7776456 0.7000
508   -647.6641353776  -0.395832108777 0.25118720  0.00254787  0.7579065 0.7000
509   -647.6234655739   0.040669803697 5.04599096  0.04803723  0.9184474 0.7000
510   -655.5014059178  -7.877940343884 3.53254180  0.03355329  0.2264724 0.7000
511   -654.0379719667   1.463433951096 2.47273742  0.02345449  0.2925706 0.7000
512   -653.4031930315   0.634778935171 1.73005944  0.01640500  0.3660263 0.7000
513   -652.9653097373   0.437883294177 1.21013561  0.01148127  0.4494912 0.7000
514   -652.4745052803   0.490804457006 0.84918450  0.00826928  0.5420837 0.7000
515   -650.4241106447   2.050394635654 0.59445252  0.00565145  0.8299043 0.7000
516   -650.9822151923  -0.558104547664 0.41616414  0.00406107  0.7417468 0.7000
517   -652.2328843681  -1.250669175781 0.29080870  0.00304627  0.6056218 0.7000
518   -652.9753320597  -0.742447691542 6.20678911  0.05856807  0.5041985 0.7000
519   -653.7626842476  -0.787352187954 3.76480165  0.03526687  0.2399824 0.7000
520   -651.6012889737   2.161395273906 2.63867078  0.02471752  0.2873793 0.7000
521   -649.8895794013   1.711709572430 1.88930038  0.01773163  0.4774112 0.7000
522   -648.4902808112   1.399298590037 1.32902143  0.01249087  0.6575536 0.7000
523   -647.4674237967   1.022857014595 1.12579531  0.01083988  0.7832329 0.7000
524   -645.5740596226   1.893364174070 0.20018062  0.00267738  0.9626683 0.7000
525   -647.2088949795  -1.634835356881 0.12577784  0.00187400  0.7765186 0.7000
526   -647.5747134364  -0.365818456982 0.28959600  0.00286450  0.7623559 0.7000
527   -647.5660098332   0.008703603273 5.41818232  0.05100389  0.8696955 0.7000
528   -655.5069900178  -7.940980184619 3.79560251  0.03566429  0.2284000 0.7000
529   -654.0293777462   1.477612271615 2.65697432  0.02493557  0.2924781 0.7000
530   -653.3927193593   0.636658386885 1.86118477  0.01745707  0.3652348 0.7000
531   -652.9490472264   0.443672132841 1.30388762  0.01223034  0.4495383 0.7000
532   -652.4589735710   0.490073655436 0.91195952  0.00876092  0.5421031 0.7000
533   -650.3880515208   2.070922050207 0.63908256  0.00601381  0.8346569 0.7000
534   -650.8956269004  -0.507575379640 0.44663356  0.00431018  0.7491630 0.7000
535   -652.2153251493  -1.319698248860 0.31281350  0.00321365  0.6057874 0.7000
536   -652.9582825686  -0.742957419329 6.22764465  0.05864795  0.5041913 0.7000
537   -653.7788856539  -0.820603085230 3.78023104  0.03536334  0.2397454 0.7000
538   -651.6175436202   2.161342033634 2.65271347  0.02481700  0.2937467 0.7000
539   -649.9009651176   1.716578502654 1.89684587  0.01777828  0.4890154 0.7000
540   -648.5032721614   1.397692956205 1.33301568  0.01251146  0.6721940 0.7000
541   -647.4834674563   1.019804705092 1.12268048  0.01079627  0.8002156 0.7000
542   -645.6091173447   1.874350111532 0.19698873  0.00266858  0.9846562 0.7000
543   -647.2338373848  -1.624720040017 0.12688117  0.00188371  0.7511216 0.7000
544   -647.5782287655  -0.344391380763 0.29939596  0.00294010  0.7801607 0.7000
545   -647.5690835541   0.009145211400 5.45818457  0.05127338  0.8826856 0.7000
546   -655.5157954387  -7.946711884602 3.82453432  0.03586324  0.2268730 0.7000
547   -654.0347989071   1.480996531674 2.67713698  0.02507495  0.2924472 0.7000
548   -653.3914084368   0.643390470221 1.87548687  0.01755611  0.3663285 0.7000
549   -652.9324236883   0.458984748523 1.31420973  0.01230248  0.4527404 0.7000
550   -652.4224036055   0.510020082834 0.91986064  0.00880685  0.5474588 0.7000
551   -650.4039527173   2.018450888220 0.64479829  0.00605436  0.8322732 0.7000
552   -650.8839382789  -0.479985561631 0.45028901  0.00433628  0.7505119 0.7000
553   -652.2105651872  -1.326626908316 0.31517590  0.00322171  0.6064938 0.7000
554   -652.9317572441  -0.721192056862 6.21771803  0.05856622  0.5084478 0.7000
555   -653.7609587023  -0.829201458186 3.77405521  0.03532044  0.2430016 0.7000
556   -651.5949663241   2.165992378176 2.64384625  0.02474244  0.3104947 0.7000
557   -649.8800024399   1.714963884197 1.88998071  0.01771838  0.5132497 0.7000
558   -648.4795073188   1.400495121129 1.32788725  0.01246622  0.7009192 0.7000
559   -647.4572154989   1.022291819863 1.11857535  0.01075022  0.8314563 0.7000
560   -645.5579869384   1.899228560500 0.18657920  0.00260833  1.0068427 0.7000
561   -647.1863695754  -1.628382637042 0.12602270  0.00186782  0.7569678 0.7000
562   -647.5635240880  -0.377154512544 0.29498906  0.00289944  0.7882643 0.7000
563   -647.5406798217   0.022844266237 5.45339375  0.05123264  0.9247073 0.7000
564   -655.5239964679  -7.983316646181 3.81996298  0.03582410  0.2255205 0.7000
565   -654.0378411482   1.486155319741 2.67392685  0.02504748  0.2931650 0.7000
566   -653.3868531979   0.650987950297 1.87307578  0.01753636  0.3679472 0.7000
567   -652.9157918281   0.471061369799 1.31238445  0.01228855  0.4557507 0.7000
568   -652.3871868738   0.528604954287 0.91824263  0.00878652  0.5524217 0.7000
569   -650.4172523069   1.969934566903 0.64339376  0.00604165  0.8301358 0.7000
570   -650.8827547061  -0.465502399169 0.44950459  0.00432763  0.7508302 0.7000
571   -652.1989494733  -1.316194767242 0.31481682  0.00321226  0.6080641 0.7000
572   -652.9049832426  -0.706033769299 6.20441190  0.05845593  0.5126405 0.7000
573   -653.7412599868  -0.836276744239 3.76415762  0.03524414  0.2458534 0.7000
574   -651.5679456252   2.173314361650 2.63208295  0.02464182  0.3266599 0.7000
575   -649.8541890094   1.713756615784 1.88147678  0.01764334  0.5363332 0.7000
576   -648.4504793087   1.403709700743 1.32177452  0.01241142  0.7273391 0.7000
577   -647.4251909291   1.025288379523 1.11591697  0.01071208  0.8595437 0.7000
578   -645.5042059717   1.920984957396 0.17755679  0.00255387  1.0227602 0.7000
579   -647.1291653738  -1.624959402016 0.12498266  0.00184531  0.7599217 0.7000
580   -647.5415902284  -0.412424854589 0.28924490  0.00284846  0.7841434 0.7000
581   -647.5048100440   0.036780184339 5.43812455  0.05110710  0.9659577 0.7000
582   -655.5324094253  -8.027599381318 3.80796459  0.03572439  0.2240831 0.7000
583   -654.0410881367   1.491321288665 2.66554756  0.02497768  0.2940957 0.7000
584   -653.3815068723   0.659581264341 1.86690123  0.01748585  0.3696308 0.7000
585   -652.8999465728   0.481560299498 1.30772859  0.01225166  0.4584327 0.7000
586   -652.3547065498   0.545240022995 0.91471739  0.00875201  0.5567460 0.7000
587   -650.4291831971   1.925523352708 0.64062934  0.00601737  0.8282453 0.7000
588   -650.8945604766  -0.465377279458 0.44786759  0.00431028  0.7496860 0.7000
589   -652.1843183965  -1.289757919948 0.31380028  0.00319720  0.6099031 0.7000
590   -652.8786280275  -0.694309630991 6.20022209  0.05842448  0.5165879 0.7000
591   -653.7203739917  -0.841745964153 3.75782949  0.03519586  0.2484444 0.7000
592   -651.5388524830   2.181521508658 2.62253530  0.02455832  0.3410977 0.7000
593   -649.8267031469   1.712149336088 1.87513723  0.01758596  0.5565534 0.7000
594   -648.4194887997   1.407214347181 1.31737303  0.01237070  0.7501144 0.7000
595   -647.3907078476   1.028780952186 1.11687190  0.01070592  0.8835612 0.7000
596   -645.4489918306   1.941716017001 0.17168868  0.00251232  1.0344915 0.7000
597   -647.0674260249  -1.618434194388 0.12380174  0.00182334  0.8106239 0.7000
598   -647.5174749361  -0.450048911195 0.28452980  0.00280655  0.7739586 0.7000
599   -647.4675409812   0.049933954989 5.42621621  0.05100940  1.0020721 0.7000
600   -655.5398744686  -8.072333487491 3.79877199  0.03564790  0.2227472 0.7000
601   -654.0435852196   1.496289249047 2.65912919  0.02492445  0.2950144 0.7000
602   -653.3682587961   0.675326423455 1.86205763  0.01744651  0.3724705 0.7000
603   -652.8737726390   0.494486157098 1.30396460  0.01222235  0.4623483 0.7000
604   -652.3097570247   0.564015614394 0.91213648  0.00872518  0.5622918 0.7000
605   -650.4286233729   1.881133651751 0.63861707  0.00599721  0.8286349 0.7000
606   -650.9391413149  -0.510517941993 0.44670604  0.00429224  0.7448310 0.7000
607   -652.1546387111  -1.215497396211 0.31298662  0.00317944  0.6135270 0.7000
608   -652.8390809079  -0.684442196773 6.21158278  0.05854556  0.5223220 0.7000
609   -653.6890005359  -0.849919627974 3.75781261  0.03520715  0.2519134 0.7000
610   -651.4950019413   2.193998594600 2.61452089  0.02448888  0.3578069 0.7000
611   -649.7861678863   1.708834054999 1.87084855  0.01754771  0.5793942 0.7000
612   -648.3732572952   1.412910591036 1.31457341  0.01234487  0.7760663 0.7000
613   -647.3385691327   1.034688162502 1.12242652  0.01074342  0.9110235 0.7000
614   -645.3655266822   1.973042450524 0.17249329  0.00247479  1.0464946 0.7000
615   -646.9728615830  -1.607334900856 0.12192492  0.00180691  0.8715275 0.7000
616   -647.4820590229  -0.509197439874 0.28005463  0.00276709  0.7980532 0.7000
617   -647.4154548831   0.066604139855 5.42170734  0.05098237  1.0431595 0.7000
618   -655.5493234559  -8.133868572787 3.79517200  0.03562417  0.2209916 0.7000
619   -654.0461663482   1.503157107613 2.65662217  0.02490814  0.2955183 0.7000
620   -653.3548017844   0.691364563822 1.85990889  0.01743276  0.3748543 0.7000
621   -652.8455379437   0.509263840751 1.30205229  0.01221086  0.4661034 0.7000
622   -652.2599546639   0.585583279773 0.91116229  0.00871177  0.5679474 0.7000
623   -650.4319112584   1.828043405453 0.63781708  0.00598910  0.8281411 0.7000
624   -650.9688352845  -0.536924026026 0.44634065  0.00428264  0.7407110 0.7000
625   -652.1230435076  -1.154208223118 0.31262751  0.00316586  0.6167362 0.7000
626   -652.7945718658  -0.671528358167 6.23005576  0.05871625  0.5282279 0.7000
627   -653.6554453226  -0.860873456807 3.76056150  0.03523510  0.2553915 0.7000
628   -651.4472524121   2.208192910480 2.60777933  0.02442548  0.3745301 0.7000
629   -649.7418914483   1.705360963825 1.86759392  0.01751442  0.6021763 0.7000
630   -648.3232699662   1.418621482031 1.31271529  0.01232441  0.8015325 0.7000
631   -647.2821055024   1.041164463792 1.12989866  0.01079415  0.9379217 0.7000
632   -645.2798255973   2.002279905139 0.17342645  0.00244340  1.0575875 0.7000
633   -646.8686667833  -1.588841186030 0.12009171  0.00180323  0.9333008 0.7000
634   -647.4409678429  -0.572301059584 0.27652768  0.00273357  0.8445748 0.7000
635   -647.3603941336   0.080573709323 5.42054508  0.05097532  1.0813451 0.7000
636   -655.5601204581  -8.199726324560 3.79445178  0.03561830  0.2187989 0.7000
637   -654.0493207967   1.510799661429 2.65611551  0.02490424  0.2950656 0.7000
638   -653.3424559231   0.706864873640 1.85917687  0.01742790  0.3765500 0.7000
639   -652.8159216091   0.526534313985 1.30115277  0.01220583  0.4696488 0.7000
640   -652.2065198855   0.609401723582 0.91118534  0.00870392  0.5735586 0.7000
641   -650.4392481108   1.767271774695 0.63782974  0.00598725  0.8268116 0.7000
642   -650.9830194014  -0.543771290543 0.44647034  0.00427805  0.7374093 0.7000
643   -652.0929226804  -1.109903279000 0.31253216  0.00315390  0.6191099 0.7000
644   -652.7461272155  -0.653204535097 6.26170459  0.05899285  0.5341871 0.7000
645   -653.6211747790  -0.875047563526 3.76965919  0.03531198  0.2588254 0.7000
646   -651.3978303685   2.223344410495 2.60447778  0.02438763  0.3899536 0.7000
647   -649.6969774354   1.700852933083 1.86705477  0.01750148  0.6229726 0.7000
648   -648.2730756477   1.423901787658 1.31316458  0.01232194  0.8243946 0.7000
649   -647.2248571031   1.048218544622 1.14058273  0.01087218  0.9620655 0.7000
650   -645.1941366513   2.030720451866 0.17459369  0.00242018  1.0665974 0.7000
651   -646.7580137215  -1.563877070199 0.12804948  0.00182115  0.9912036 0.7000
652   -647.3980084115  -0.639994690087 0.27366120  0.00270336  0.8905146 0.7000
653   -647.3072244869   0.090783924655 5.42731453  0.05102962  1.1133338 0.7000
654   -655.5705359344  -8.263311447563 3.79986549  0.03565948  0.2164712 0.7000
655   -654.0516965541   1.518839380314 2.65989196  0.02493315  0.2936755 0.7000
656   -653.3323575548   0.719338999320 1.86152241  0.01744668  0.3772790 0.7000
657   -652.7867634859   0.545594068888 1.30252439  0.01221815  0.4727320 0.7000
658   -652.1530455287   0.633717957223 0.91291658  0.00870868  0.5787411 0.7000
659   -650.4489222548   1.704123273861 0.63917037  0.00599663  0.8247954 0.7000
660   -650.9671235525  -0.518201297698 0.44745270  0.00428354  0.7366775 0.7000
661   -652.0689115364  -1.101787983886 0.31299552  0.00314798  0.6201445 0.7000
662   -652.6980560562  -0.629144519774 6.30552492  0.05936562  0.5395857 0.7000
663   -653.5906337766  -0.892577720419 3.78588927  0.03544434  0.2617052 0.7000
664   -651.3525450988   2.238088677828 2.60627028  0.02439048  0.4027360 0.7000
665   -649.6563202995   1.696224799324 1.86999473  0.01751617  0.6402147 0.7000
666   -648.2284407189   1.427879580531 1.31646065  0.01234267  0.8429618 0.7000
667   -647.1734593835   1.054981335401 1.15339488  0.01096956  0.9816924 0.7000
668   -645.1191332264   2.054326157111 0.17593734  0.00240725  1.0732718 0.7000
669   -646.6540333941  -1.534900167710 0.13623522  0.00186226  1.0395427 0.7000
670   -647.3570695604  -0.703036166300 0.27135812  0.00267649  0.9320705 0.7000
671   -647.2612436717   0.095825888692 5.44392716  0.05116071  1.1372017 0.7000
672   -655.5797608064  -8.318517134705 3.81260212  0.03575768  0.2142149 0.7000
673   -654.0531117316   1.526649074830 2.66879129  0.02500120  0.2922027 0.7000
674   -653.3391343258   0.713977405812 1.86756702  0.01749375  0.3746626 0.7000
675   -652.7798994359   0.559234889892 1.30666151  0.01225122  0.4724056 0.7000
676   -652.1287708610   0.651128574903 0.91651170  0.00872916  0.5802199 0.7000
677   -650.4790349501   1.649735910883 0.64190907  0.00602173  0.8186889 0.7000
678   -650.8631842746  -0.384149324517 0.44933834  0.00430808  0.7445446 0.7000
679   -652.0812724966  -1.218088221934 0.31410684  0.00315812  0.6160076 0.7000
680   -652.6827003727  -0.601427876087 6.33931867  0.05960882  0.5397602 0.7000
681   -653.5894189046  -0.906718531914 3.80300606  0.03556460  0.2618560 0.7000
682   -651.3484309011   2.240988003446 2.61651003  0.02445956  0.4050262 0.7000
683   -649.6524754490   1.695955452139 1.87725797  0.01756300  0.6436690 0.7000
684   -648.2256794115   1.426796037467 1.32284535  0.01238673  0.8459145 0.7000
685   -647.1694732574   1.056206154155 1.16189383  0.01102674  0.9849009 0.7000
686   -645.1166881608   2.052785096572 0.17645704  0.00240824  1.0746046 0.7000
687   -646.6418328676  -1.525144706819 0.13793229  0.00187284  1.0507249 0.7000
688   -647.3509486915  -0.709115823859 0.27057402  0.00266267  0.9462764 0.7000
689   -647.2591673255   0.091781366000 5.46707130  0.05132049  1.1381441 0.7000
690   -655.5779549478  -8.318787622348 3.82921442  0.03587173  0.2140140 0.7000
691   -654.0498313304   1.528123617414 2.68042808  0.02508102  0.2912645 0.7000
692   -653.3378927827   0.711938547720 1.87569832  0.01755002  0.3736158 0.7000
693   -652.7692628604   0.568629922253 1.31242851  0.01229156  0.4729123 0.7000
694   -652.1088425689   0.660420291509 0.92066672  0.00875485  0.5814972 0.7000
695   -650.4787130015   1.630129567388 0.64490399  0.00604465  0.8182440 0.7000
[...]
766   -652.0309085899   0.685671267269 0.94410633  0.00892552  0.5904805 0.7000
767   -650.4334597841   1.597448805875 0.66103568  0.00617024  0.8249400 0.7000
768   -650.6866461536  -0.253186369501 0.46273246  0.00442452  0.7653201 0.7000
769   -652.0647328618  -1.378086708254 0.32373127  0.00322495  0.6154581 0.7000
770   -652.6115011180  -0.546768256211 6.56578001  0.06139778  0.5474510 0.7000
771   -653.5778757133  -0.966374595236 3.92484951  0.03649280  0.2625738 0.7000
772   -651.3333345171   2.244541196220 2.68826278  0.02498430  0.4047934 0.7000
773   -649.6525055069   1.680829010131 1.93329000  0.01798036  0.6386242 0.7000
774   -648.2263408196   1.426164687297 1.36837110  0.01273589  0.8366068 0.7000
775   -647.1585461350   1.067794684675 1.21627226  0.01147605  0.9742148 0.7000
776   -645.0679212817   2.090624853295 0.17873812  0.00246246  1.0615796 0.7000
777   -646.5932884893  -1.525367207678 0.16186798  0.00205261  1.0568564 0.7000
778   -647.3686394067  -0.775350917319 0.26472330  0.00260179  0.9538723 0.7000
779   -647.2809201649   0.087719241800 5.63665484  0.05258912  1.1172920 0.7000
780   -655.5599396323  -8.279019467440 3.94618448  0.03675156  0.2165522 0.7000
781   -654.0301071472   1.529832485082 2.76231423  0.02569836  0.2951159 0.7000
782   -653.3070256515   0.723081495717 1.93341782  0.01798604  0.3786446 0.7000
783   -652.7043612568   0.602664394683 1.35317316  0.01260027  0.4825697 0.7000
784   -652.0146860968   0.689675159986 0.94789709  0.00895224  0.5934371 0.7000
785   -650.4199712095   1.594714887318 0.66362303  0.00618865  0.8273742 0.7000
786   -650.6793010779  -0.259329868393 0.46454237  0.00443796  0.7665554 0.7000
787   -652.0575531390  -1.378252061091 0.32504798  0.00323237  0.6173169 0.7000
788   -652.5985561657  -0.541003026692 6.58672738  0.06155021  0.5501327 0.7000
789   -653.5792235580  -0.980667392280 3.93488114  0.03656213  0.2626801 0.7000
790   -651.3358338936   2.243389664336 2.69282897  0.02501074  0.4041311 0.7000
791   -649.6587532980   1.677080595658 1.93784599  0.01801039  0.6363205 0.7000
792   -648.2325973210   1.426155977020 1.37274303  0.01276742  0.8331763 0.7000
793   -647.1623051805   1.070292140489 1.22394677  0.01153794  0.9702372 0.7000
794   -645.0618481585   2.100457021971 0.17871722  0.00246650  1.0577723 0.7000
795   -646.5927146180  -1.530866459483 0.16785363  0.00208846  1.0539883 0.7000
796   -647.3808701328  -0.788155514838 0.26288087  0.00258711  0.9511504 0.7000
797   -647.2933284582   0.087541674642 5.65006964  0.05268035  1.1117513 0.7000
798   -655.5572943162  -8.263965858062 3.95546807  0.03681470  0.2172916 0.7000
799   -654.0278122584   1.529482057797 2.76881677  0.02574291  0.2958072 0.7000
800   -653.2996058558   0.728206402607 1.93800566  0.01801755  0.3805209 0.7000
801   -652.6915438265   0.608062029372 1.35641606  0.01262264  0.4851273 0.7000
802   -651.9978150919   0.693728734587 0.95004722  0.00896634  0.5963020 0.7000
803   -650.4058088343   1.592006257545 0.66511022  0.00619757  0.8300057 0.7000
804   -650.6849000561  -0.279091221806 0.46558713  0.00444384  0.7655511 0.7000
805   -652.0478538023  -1.362953746204 0.32580430  0.00323458  0.6195015 0.7000
806   -652.5842170739  -0.536363271603 6.60899925  0.06171505  0.5530407 0.7000
807   -653.5770398579  -0.992822783946 3.94388147  0.03662275  0.2632974 0.7000
808   -651.3343605106   2.242679347243 2.69543084  0.02501970  0.4039796 0.7000
809   -649.6625332118   1.671827298875 1.94139120  0.01803127  0.6346913 0.7000
810   -648.2365275887   1.426005623089 1.37658804  0.01279403  0.8306672 0.7000
811   -647.1634148683   1.073112720376 1.23304737  0.01161218  0.9673123 0.7000
812   -645.0494332289   2.113981639411 0.17874140  0.00246904  1.0542814 0.7000
813   -646.5842172632  -1.534784034350 0.17602626  0.00214238  1.0532207 0.7000
814   -647.3922978811  -0.808080617846 0.26029545  0.00256607  0.9489989 0.7000
815   -647.3039077861   0.088390094937 5.66115846  0.05275143  1.1075417 0.7000
816   -655.5551987012  -8.251290915011 3.96322770  0.03686408  0.2178885 0.7000
817   -654.0258144386   1.529384262563 2.77424849  0.02577793  0.2967755 0.7000
818   -653.2888290545   0.736985384115 1.94182255  0.01804225  0.3830521 0.7000
819   -652.6737031646   0.615125889929 1.35910617  0.01264016  0.4883589 0.7000
820   -651.9746359934   0.699067171139 0.95189763  0.00897738  0.5997989 0.7000
821   -650.3872958486   1.587340144848 0.66640747  0.00620348  0.8334705 0.7000
822   -650.7062447609  -0.318948912335 0.46649305  0.00444612  0.7617184 0.7000
823   -652.0309728348  -1.324728073908 0.32644231  0.00323353  0.6224576 0.7000
824   -652.5620861484  -0.531113313607 6.63461684  0.06192292  0.5569878 0.7000
825   -653.5688734249  -1.006787276451 3.95300155  0.03669037  0.2647141 0.7000
826   -651.3242429817   2.244630443159 2.69616390  0.02501539  0.4059064 0.7000
827   -649.6585779387   1.665665042963 1.94386301  0.01804497  0.6359371 0.7000
828   -648.2320568576   1.426521081142 1.37973992  0.01281612  0.8315915 0.7000
829   -647.1550591150   1.076997742626 1.24296412  0.01169571  0.9681326 0.7000
830   -645.0230691806   2.131989934370 0.17896936  0.00247104  1.0527683 0.7000
831   -646.5560758969  -1.533006716263 0.18681695  0.00222153  1.0588144 0.7000
832   -647.3957658233  -0.839689926428 0.25732010  0.00254197  0.9514512 0.7000
833   -647.3052148162   0.090551007073 5.67135519  0.05282260  1.1078150 0.7000
834   -655.5560191340  -8.250804317728 3.97048737  0.03691429  0.2178991 0.7000
835   -654.0253919929   1.530627141091 2.77932990  0.02581352  0.2968334 0.7000
836   -653.2789230480   0.746468944856 1.94537937  0.01806730  0.3850850 0.7000
837   -652.6547648993   0.624158148669 1.36160774  0.01265797  0.4914384 0.7000
838   -651.9481601961   0.706604703195 0.95368469  0.00898790  0.6033381 0.7000
839   -650.3750270705   1.573133125659 0.66768695  0.00621052  0.8358118 0.7000
840   -650.7214241465  -0.346397075982 0.46738099  0.00444917  0.7602192 0.7000
841   -652.0135125807  -1.292088434188 0.32704869  0.00323201  0.6250317 0.7000
842   -652.5359548754  -0.522442294768 6.66540041  0.06218096  0.5611669 0.7000
843   -653.5586733636  -1.022718488222 3.96423949  0.03677710  0.2665058 0.7000
844   -651.3107992751   2.247874088541 2.69716246  0.02501312  0.4084171 0.7000
845   -649.6521977659   1.658601509245 1.94646308  0.01805963  0.6381153 0.7000
846   -648.2257048765   1.426492889317 1.38314483  0.01284046  0.8336868 0.7000
847   -647.1448277724   1.080877104121 1.25365478  0.01178771  0.9703251 0.7000
848   -644.9936227210   2.151205051424 0.17941473  0.00247470  1.0520285 0.7000
849   -646.5193272090  -1.525704488036 0.19929533  0.00232198  1.0668881 0.7000
850   -647.3968051060  -0.877477896991 0.25386038  0.00251305  0.9552904 0.7000
851   -647.3037826830   0.093022422983 5.68372368  0.05291314  1.1094182 0.7000
852   -655.5580954798  -8.254312796765 3.97933690  0.03697872  0.2173803 0.7000
853   -654.0258103643   1.532285115524 2.78552411  0.02585896  0.2965186 0.7000
854   -653.2717297513   0.754080613024 1.94971404  0.01809929  0.3863798 0.7000
855   -652.6387327995   0.632996951758 1.36465972  0.01268067  0.4938473 0.7000
856   -651.9248953620   0.713837437468 0.95587945  0.00900161  0.6061949 0.7000
857   -650.3692262299   1.555669132172 0.66926649  0.00622114  0.8369695 0.7000
858   -650.7237054884  -0.354479258518 0.46847134  0.00445558  0.7595950 0.7000
859   -652.0002337694  -1.276528281050 0.32778990  0.00323281  0.6266650 0.7000
860   -652.5128055037  -0.512571734278 6.69796968  0.06245934  0.5645956 0.7000
861   -653.5461484083  -1.033342904577 3.97796073  0.03688594  0.2667306 0.7000
862   -651.2943726524   2.251775755853 2.70212803  0.02504651  0.4120916 0.7000
863   -649.6388837605   1.655488891901 1.95132968  0.01809532  0.6421100 0.7000
864   -648.2107732091   1.428110551401 1.38766086  0.01287543  0.8380253 0.7000
865   -647.1261098189   1.084663390210 1.26188503  0.01185996  0.9749656 0.7000
866   -644.9619198898   2.164189929114 0.17976666  0.00248115  1.0547749 0.7000
867   -646.4829668413  -1.521046951496 0.20785321  0.00239394  1.0752592 0.7000
868   -647.3857013997  -0.902734558427 0.25285170  0.00250479  0.9606433 0.7000
869   -647.2891785274   0.096522872284 5.70112839  0.05304682  1.1137750 0.7000
870   -655.5610544903  -8.271875962831 3.99191437  0.03707546  0.2163444 0.7000
871   -654.0270387004   1.534015789845 2.79434757  0.02592719  0.2964663 0.7000
872   -653.2653181678   0.761720532601 1.95589207  0.01814732  0.3877099 0.7000
873   -652.6215491263   0.643769041571 1.36902144  0.01271496  0.4965854 0.7000
874   -651.8977658854   0.723783240899 0.95899524  0.00902257  0.6096321 0.7000
875   -650.3663551362   1.531410749118 0.67153517  0.00623796  0.8375928 0.7000
876   -650.7256401327  -0.359284996498 0.47005755  0.00446643  0.7588972 0.7000
877   -651.9882953735  -1.262655240723 0.32887500  0.00323535  0.6282270 0.7000
878   -652.4865424891  -0.498247115597 6.73723758  0.06280398  0.5686189 0.7000
879   -653.5392836292  -1.052741140185 3.99495522  0.03702617  0.2701863 0.7000
880   -651.2862643633   2.253019265956 2.70542052  0.02506508  0.4116967 0.7000
881   -649.6420301520   1.644234211325 1.95540931  0.01812388  0.6403156 0.7000
882   -648.2171004316   1.424929720393 1.39260208  0.01291449  0.8355924 0.7000
883   -647.1298386722   1.087261759409 1.27423851  0.01197192  0.9724852 0.7000
884   -644.9446350904   2.185203581711 0.18063760  0.00249062  1.0498305 0.7000
885   -646.4530319568  -1.508396866340 0.22301928  0.00253296  1.0786514 0.7000
886   -647.4013337084  -0.948301751598 0.24718019  0.00245520  0.9586157 0.7000
887   -647.3033830096   0.097950698750 5.72051859  0.05320001  1.1095476 0.7000
888   -655.5607400846  -8.257357074990 4.00523317  0.03718083  0.2157220 0.7000
889   -654.0261479794   1.534592105243 2.80365640  0.02600118  0.2954040 0.7000
890   -653.2588891357   0.767258843643 1.96243690  0.01819936  0.3882330 0.7000
891   -652.6109680975   0.647921038241 1.37362103  0.01275139  0.4976283 0.7000
892   -651.8858127788   0.725155318728 0.96211829  0.00904641  0.6105849 0.7000
893   -650.3574490325   1.528363746263 0.67366609  0.00625409  0.8393215 0.7000
894   -650.7273686293  -0.369919596828 0.47152768  0.00447671  0.7583731 0.7000
895   -651.9767777087  -1.249409079323 0.32993106  0.00324149  0.6292395 0.7000
896   -652.4727418206  -0.495964111955 6.76978654  0.06308237  0.5701485 0.7000
897   -653.5335401779  -1.060798357266 4.01226761  0.03716469  0.2698066 0.7000
898   -651.2765457728   2.256994405112 2.71570343  0.02514433  0.4155339 0.7000
899   -649.6315629697   1.644982803089 1.96300913  0.01818354  0.6453861 0.7000
900   -648.2044329498   1.427130019907 1.39805757  0.01295770  0.8415155 0.7000
901   -647.1150357533   1.089397196459 1.27862772  0.01201173  0.9788619 0.7000
902   -644.9269584037   2.188077349605 0.18099986  0.00250095  1.0550680 0.7000
903   -646.4299623626  -1.503003958856 0.22640624  0.00256332  1.0869625 0.7000
904   -647.3882180035  -0.958255640973 0.24822145  0.00246278  0.9656180 0.7000
905   -647.2889566510   0.099261352484 5.74452061  0.05339092  1.1158151 0.7000
906   -655.5642908240  -8.275334172992 4.02217405  0.03731647  0.2146042 0.7000
907   -654.0283262610   1.535964563018 2.81554011  0.02609655  0.2972757 0.7000
908   -653.2564202607   0.771906000362 1.97076961  0.01826637  0.3895137 0.7000
909   -652.6020506826   0.654369578064 1.37948219  0.01279876  0.4993533 0.7000
910   -651.8709385038   0.731112178846 0.96616144  0.00907661  0.6126071 0.7000
911   -650.3594449308   1.511493572997 0.67653004  0.00627685  0.8391212 0.7000
912   -650.7316928523  -0.372247921548 0.47354704  0.00449160  0.7580759 0.7000
913   -651.9697753002  -1.238082447925 0.33135172  0.00324873  0.6301227 0.7000
914   -652.4567191298  -0.486943829565 6.80639271  0.06340936  0.5723714 0.7000
915   -653.5258819119  -1.069162782068 4.03052055  0.03731621  0.2711894 0.7000
916   -651.2661275110   2.259754400865 2.72353534  0.02520349  0.4167545 0.7000
917   -649.6257787696   1.640348741425 1.96939370  0.01823373  0.6464000 0.7000
918   -648.1988669612   1.426911808390 1.40353895  0.01300252  0.8425638 0.7000
919   -647.1071027373   1.091764223863 1.28619676  0.01208429  0.9800980 0.7000
920   -644.9081148827   2.198987854619 0.18163832  0.00251247  1.0543869 0.7000
921   -646.4013700599  -1.493255177186 0.23519047  0.00264824  1.0920134 0.7000
922   -647.3853059658  -0.983935905945 0.24564186  0.00243969  0.9677602 0.7000
923   -647.2846415277   0.100664438163 5.76816277  0.05358524  1.1160588 0.7000
924   -655.5648661252  -8.280224597535 4.03849346  0.03745152  0.2145879 0.7000
925   -654.0279031008   1.536963024355 2.82696600  0.02619126  0.2981612 0.7000
926   -653.2538687531   0.774034347780 1.97879165  0.01833287  0.3900744 0.7000
927   -652.5967497701   0.657118982991 1.38510807  0.01284536  0.5000582 0.7000
928   -651.8641355224   0.732614247635 0.96997360  0.00910721  0.6133408 0.7000
929   -650.3576697637   1.506465758781 0.67914760  0.00629883  0.8394149 0.7000
930   -650.7234811937  -0.365811430035 0.47538681  0.00450700  0.7593833 0.7000
931   -651.9645929204  -1.241111726661 0.33267390  0.00325872  0.6306501 0.7000
932   -652.4489245958  -0.484331675440 6.82921546  0.06360971  0.5731586 0.7000
933   -653.5219000652  -1.072975469380 4.04365077  0.03742467  0.2717769 0.7000
934   -651.2596132569   2.262286808285 2.73112175  0.02526358  0.4180487 0.7000
935   -649.6199196577   1.639693599224 1.97477469  0.01827700  0.6481731 0.7000
936   -648.1927909974   1.427128660232 1.40745477  0.01303452  0.8446259 0.7000
937   -647.1004605841   1.092330413375 1.28912762  0.01211294  0.9823599 0.7000
938   -644.9009790123   2.199481571734 0.18196466  0.00252084  1.0558333 0.7000
939   -646.3862273334  -1.485248321104 0.23805026  0.00267601  1.0963678 0.7000
940   -647.3780078106  -0.991780477189 0.24528166  0.00243531  0.9713933 0.7000
941   -647.2777057495   0.100302061099 5.78641608  0.05373241  1.1177943 0.7000
942   -655.5646946261  -8.286988876593 4.05096244  0.03755347  0.2140850 0.7000
943   -654.0272724537   1.537422172441 2.83569195  0.02626263  0.2999107 0.7000
944   -653.2535223147   0.773750138969 1.98492286  0.01838303  0.3905352 0.7000
945   -652.5948814532   0.658640861478 1.38940252  0.01288058  0.5003013 0.7000
946   -651.8611838896   0.733697563597 0.97284243  0.00913013  0.6135071 0.7000
947   -650.3588416723   1.502342217375 0.68108920  0.00631560  0.8390941 0.7000
948   -650.7110040026  -0.352162330353 0.47675632  0.00451942  0.7607271 0.7000
949   -651.9640882272  -1.253084224605 0.33366966  0.00326696  0.6302038 0.7000
950   -652.4459344773  -0.481846250107 6.84424791  0.06374797  0.5729027 0.7000
951   -653.5191516968  -1.073217219471 4.05275041  0.03750318  0.2715374 0.7000
952   -651.2545127483   2.264638948489 2.73630718  0.02530654  0.4188187 0.7000
953   -649.6151617564   1.639350991908 1.97826201  0.01830637  0.6495135 0.7000
954   -648.1885236411   1.426638115265 1.40997523  0.01305617  0.8461887 0.7000
955   -647.0964543362   1.092069304918 1.29105327  0.01213465  0.9841550 0.7000
956   -644.8981131882   2.198341147973 0.18217627  0.00252642  1.0569255 0.7000
957   -646.3740876456  -1.475974457404 0.24020460  0.00269736  1.1004494 0.7000
958   -647.3705358751  -0.996448229477 0.24466758  0.00242952  0.9750476 0.7000
959   -647.2716629175   0.098872957653 5.79862953  0.05383434  1.1185748 0.7000
960   -655.5641074023  -8.292444484818 4.05931073  0.03762429  0.2143022 0.7000
961   -654.0259184621   1.538188940191 2.84153211  0.02631223  0.3002432 0.7000
962   -653.2519189182   0.773999543850 1.98902824  0.01841794  0.3904971 0.7000
963   -652.5904498755   0.661469042747 1.39227976  0.01290506  0.5005880 0.7000
964   -651.8549062394   0.735543636096 0.97476160  0.00914571  0.6139177 0.7000
965   -650.3575974138   1.497308825643 0.68238973  0.00632750  0.8390713 0.7000
966   -650.6941808765  -0.336583462750 0.47767392  0.00452889  0.7634541 0.7000
967   -651.9623355413  -1.268154664760 0.33433655  0.00327268  0.6300685 0.7000
968   -652.4398969216  -0.477561380338 6.85130731  0.06380978  0.5732906 0.7000
969   -653.5163683583  -1.076471436660 4.05733793  0.03754158  0.2720747 0.7000
970   -651.2495455830   2.266822775292 2.73932497  0.02533123  0.4204278 0.7000
971   -649.6092268822   1.640318700806 1.98005729  0.01832091  0.6519654 0.7000
972   -648.1822255578   1.427001324314 1.41114949  0.01306571  0.8489718 0.7000
973   -647.0901952539   1.092030303967 1.29059033  0.01213043  0.9871529 0.7000
974   -644.8954552764   2.194739977529 0.18230277  0.00252998  1.0593215 0.7000
975   -646.3641445538  -1.468689277455 0.24018988  0.00269711  1.1051872 0.7000
976   -647.3617036243  -0.997559070499 0.24455491  0.00242814  0.9804029 0.7000
977   -647.2639096696   0.097793954701 5.80527357  0.05388782  1.1214617 0.7000
978   -655.5641162312  -8.300206561552 4.06380298  0.03766127  0.2146199 0.7000
979   -654.0252725105   1.538843720694 2.84466911  0.02633807  0.3003349 0.7000
980   -653.2512486175   0.774023892994 1.99123767  0.01843623  0.3902537 0.7000
981   -652.5869033187   0.664345298791 1.39383007  0.01291809  0.5005336 0.7000
982   -651.8486665382   0.738236780488 0.97578368  0.00915330  0.6139136 0.7000
983   -650.3592040559   1.489462482295 0.68307119  0.00633385  0.8386230 0.7000
984   -650.6814010413  -0.322196985377 0.47815220  0.00453414  0.7655713 0.7000
985   -651.9618673646  -1.280466323379 0.33468734  0.00327516  0.6290461 0.7000
986   -652.4341910742  -0.472323709598 6.85381054  0.06384000  0.5731074 0.7000
987   -653.5135997552  -1.079408680914 4.05924537  0.03756070  0.2715425 0.7000
988   -651.2442763481   2.269323407109 2.73904698  0.02532882  0.4210555 0.7000
989   -649.6051824556   1.639093892473 1.97957729  0.01831698  0.6529694 0.7000
990   -648.1792072582   1.425975197419 1.41100670  0.01306503  0.8499823 0.7000
991   -647.0873917824   1.091815475766 1.29081652  0.01213616  0.9882974 0.7000
992   -644.8918774591   2.195514323289 0.18256398  0.00253063  1.0595512 0.7000
993   -646.3499202147  -1.458042755586 0.24224227  0.00271760  1.1089659 0.7000
994   -647.3559579042  -1.006037689522 0.24268889  0.00241300  0.9839178 0.7000
995   -647.2598536680   0.096104236205 5.80631351  0.05389836  1.1217240 0.7000
996   -655.5642363287  -8.304382660688 4.06450542  0.03766929  0.2148441 0.7000
997   -654.0243460951   1.539890233624 2.84515871  0.02634374  0.2992032 0.7000
998   -653.2486375365   0.775708558603 1.99158379  0.01844031  0.3897776 0.7000
999   -652.5807182574   0.667919279054 1.39407332  0.01292105  0.5006182 0.7000

               *****************************************************
               *                      ERROR                        *
               *        SCF NOT CONVERGED AFTER 1000 CYCLES         *
               *****************************************************


---------------
SCF CONVERGENCE
---------------

  Last Energy change         ...    6.6792e-01  Tolerance :   1.0000e-06
  Last MAX-Density change    ...    1.3941e+00  Tolerance :   1.0000e-05
  Last RMS-Density change    ...    1.2921e-02  Tolerance :   1.0000e-06
  Last DIIS Error            ...    5.0062e-01  Tolerance :   1.0000e-06

     --------------------------------------------------------------------
                                      ERROR
     This wavefunction IS NOT CONVERGED! 
     And it is 'too far' from meeting the convergence thresholds.
     Aborting ...
     Please restart calculation (with larger maxiter?)
     --------------------------------------------------------------------



ORCA finished by error termination in SCF
Calling Command: /sw/apps/orca/orca_4_2_0_linux_x86-64_openmpi314/orca_scf 62_Sm_atom62.gbw b 
[file orca_tools/qcmsg.cpp, line 458]: 
  .... aborting the run

