
                                 *****************
                                 * O   R   C   A *
                                 *****************

           --- An Ab Initio, DFT and Semiempirical electronic structure package ---

                  #######################################################
                  #                        -***-                        #
                  #          Department of theory and spectroscopy      #
                  #               Directorship: Frank Neese             #
                  #        Max Planck Institute fuer Kohlenforschung    #
                  #                Kaiser Wilhelm Platz 1               #
                  #                 D-45470 Muelheim/Ruhr               #
                  #                      Germany                        #
                  #                                                     #
                  #                  All rights reserved                #
                  #                        -***-                        #
                  #######################################################


                         Program Version 4.2.0 -  RELEASE  -


 With contributions from (in alphabetic order):
   Daniel Aravena         : Magnetic Suceptibility
   Michael Atanasov       : Ab Initio Ligand Field Theory (pilot matlab implementation)
   Alexander A. Auer      : GIAO ZORA, VPT2
   Ute Becker             : Parallelization
   Giovanni Bistoni       : ED, misc. LED, open-shell LED, HFLED
   Martin Brehm           : Molecular dynamics
   Dmytro Bykov           : SCF Hessian
   Vijay G. Chilkuri      : MRCI spin determinant printing, contributions to CSF-ICE
   Dipayan Datta          : RHF DLPNO-CCSD density
   Achintya Kumar Dutta   : EOM-CC, STEOM-CC
   Dmitry Ganyushin       : Spin-Orbit,Spin-Spin,Magnetic field MRCI
   Miquel Garcia          : C-PCM Hessian, Gaussian charge scheme
   Yang Guo               : DLPNO-NEVPT2, CIM, IAO-localization
   Andreas Hansen         : Spin unrestricted coupled pair/coupled cluster methods
   Benjamin Helmich-Paris : CASSCF linear response (MC-RPA)
   Lee Huntington         : MR-EOM, pCC
   Robert Izsak           : Overlap fitted RIJCOSX, COSX-SCS-MP3, EOM
   Christian Kollmar      : KDIIS, OOCD, Brueckner-CCSD(T), CCSD density
   Simone Kossmann        : Meta GGA functionals, TD-DFT gradient, OOMP2, MP2 Hessian
   Martin Krupicka        : AUTO-CI
   Lucas Lang             : DCDCAS
   Dagmar Lenk            : GEPOL surface, SMD
   Dimitrios Liakos       : Extrapolation schemes; Compound Job, initial MDCI parallelization
   Dimitrios Manganas     : Further ROCIS development; embedding schemes
   Dimitrios Pantazis     : SARC Basis sets
   Taras Petrenko         : DFT Hessian,TD-DFT gradient, ASA, ECA, R-Raman, ABS, FL, XAS/XES, NRVS
   Peter Pinski           : DLPNO-MP2, DLPNO-MP2 Gradient
   Christoph Reimann      : Effective Core Potentials
   Marius Retegan         : Local ZFS, SOC
   Christoph Riplinger    : Optimizer, TS searches, QM/MM, DLPNO-CCSD(T), (RO)-DLPNO pert. Triples
   Tobias Risthaus        : Range-separated hybrids, TD-DFT gradient, RPA, STAB
   Michael Roemelt        : Original ROCIS implementation
   Masaaki Saitow         : Open-shell DLPNO-CCSD energy and density
   Barbara Sandhoefer     : DKH picture change effects
   Avijit Sen             : IP-ROCIS
   Kantharuban Sivalingam : CASSCF convergence, NEVPT2, FIC-MRCI
   Bernardo de Souza      : ESD, SOC TD-DFT
   Georgi Stoychev        : AutoAux, RI-MP2 NMR
   Willem Van den Heuvel  : Paramagnetic NMR
   Boris Wezisla          : Elementary symmetry handling
   Frank Wennmohs         : Technical directorship


 We gratefully acknowledge several colleagues who have allowed us to
 interface, adapt or use parts of their codes:
   Stefan Grimme, W. Hujo, H. Kruse,             : VdW corrections, initial TS optimization,
                  C. Bannwarth                     DFT functionals, gCP, sTDA/sTD-DF
   Ed Valeev, F. Pavosevic, A. Kumar             : LibInt (2-el integral package), F12 methods
   Garnet Chan, S. Sharma, J. Yang, R. Olivares  : DMRG
   Ulf Ekstrom                                   : XCFun DFT Library
   Mihaly Kallay                                 : mrcc  (arbitrary order and MRCC methods)
   Andreas Klamt, Michael Diedenhofen            : otool_cosmo (COSMO solvation model)
   Jiri Pittner, Ondrej Demel                    : Mk-CCSD
   Frank Weinhold                                : gennbo (NPA and NBO analysis)
   Christopher J. Cramer and Donald G. Truhlar   : smd solvation model
   Lars Goerigk                                  : TD-DFT with DH, B97 family of functionals
   V. Asgeirsson, H. Jonsson                     : NEB implementation
   FAccTs GmbH                                   : IRC, NEB, NEB-TS, Multilevel, MM, QM/MM, CI optimization
   S Lehtola, MJT Oliveira, MAL Marques          : LibXC Library


 Your calculation uses the libint2 library for the computation of 2-el integrals
 For citations please refer to: http://libint.valeyev.net

 Your ORCA version has been built with support for libXC version: 4.2.3
 For citations please refer to: https://tddft.org/programs/libxc/

 This ORCA versions uses:
   CBLAS   interface :  Fast vector & matrix operations
   LAPACKE interface :  Fast linear algebra routines
   SCALAPACK package :  Parallel linear algebra routines


----- Orbital basis set information -----
Your calculation utilizes the basis: def2-SVP
   F. Weigend and R. Ahlrichs, Phys. Chem. Chem. Phys. 7, 3297 (2005).

----- AuxJ basis set information -----
Your calculation utilizes the auxiliary basis: def2/J
   F. Weigend, Phys. Chem. Chem. Phys. 8, 1057 (2006).

================================================================================
                                        WARNINGS
                       Please study these warnings very carefully!
================================================================================


INFO   : the flag for use of LIBINT has been found!

================================================================================
                                       INPUT FILE
================================================================================
NAME = 63_Eu_atom63.inp
|  1> # input to generate an atomic fitting density for Eu
|  2> # this file is use internally by ORCA
|  3> #
|  4> # atomic ground state (S=8): 1s2 2s2 2p6 3s2 3p6 4s2 3d10 4p6 5s2 4d10 5p6 4f7 6s2 
|  5> #
|  6> ! RHF AllowRHF def2-SVP def2/J  NoMulliken NoLoewdin NoMayer NoPrintMOs 
|  7> 
|  8> %output print[p_atomdensfit] 2 end
|  9> 
| 10> %scf
| 11>   guess hcore
| 12>   maxiter 1000
| 13>   maxdisk 500000
| 14>   SCFMode Conventional
| 15>   lshift 0.300000
| 16>   hftyp rohf
| 17>   rohf_case sahf
| 18>   rohf_numop   2
| 19>   rohf_norb[1] 7
| 20>   rohf_nel[1]  7
| 21> end
| 22> 
| 23> %basis
| 24>   NewECP 63
| 25>     N_core 28
| 26>     lmax h
| 27>     s 1
| 28>       1      23.4713840000    607.6593310000  2
| 29>     p 1
| 30>       1      16.7724790000    264.3854760000  2
| 31>     d 1
| 32>       1      13.9813430000    115.3813750000  2
| 33>     f 1
| 34>       1      23.9628880000    -49.4007940000  2
| 35>     g 1
| 36>       1      21.2324580000    -26.7482730000  2
| 37>     h 1
| 38>       1       1.0000000000      0.0000000000  2
| 39>   end
| 40>   NewGTO 63
| 41>     s 6 
| 42>      1  171703.5269700000      0.0011215376
| 43>      2   25966.1055570000      0.0086519540
| 44>      3    5930.2497628000      0.0427772845
| 45>      4    1719.5688544000      0.1528540160
| 46>      5     565.0039913000      0.3860205833
| 47>      6     191.2917737100      0.5336345539
| 48>     s 1 
| 49>      1      43.5040357030      1.0000000000
| 50>     s 1 
| 51>      1      29.0575428210      1.0000000000
| 52>     s 1 
| 53>      1      15.0747590690      1.0000000000
| 54>     s 1 
| 55>      1       3.7902972839      1.0000000000
| 56>     s 1 
| 57>      1       1.9535099853      1.0000000000
| 58>     s 1 
| 59>      1       0.7711562252      1.0000000000
| 60>     s 1 
| 61>      1       0.3448641041      1.0000000000
| 62>     s 1 
| 63>      1       0.0773289799      1.0000000000
| 64>     s 1 
| 65>      1       0.0372554961      1.0000000000
| 66>     s 1 
| 67>      1       0.0150152577      1.0000000000
| 68>     p 9 
| 69>      1    3785.7622080000      0.0000655636
| 70>      2    1043.2238891000      0.0004577889
| 71>      3     359.6699393200      0.0019750364
| 72>      4     130.2369002600      0.0075261874
| 73>      5      34.6699660580      0.0318135682
| 74>      6      28.8906921970      0.0338264273
| 75>      7      13.7986145350     -0.4235087849
| 76>      8       7.5409236257      0.3942337197
| 77>      9       3.7688038069      0.8914070958
| 78>     p 3 
| 79>      1      28.2346176060      0.2310615790
| 80>      2      12.9079753180     -1.0534343211
| 81>      3       7.5328604185     -0.1349767596
| 82>     p 1 
| 83>      1       1.8972535339      1.0000000000
| 84>     p 1 
| 85>      1       0.8815206612      1.0000000000
| 86>     p 1 
| 87>      1       0.4098784741      1.0000000000
| 88>     p 1 
| 89>      1       0.1807699386      1.0000000000
| 90>     p 1 
| 91>      1       0.0670000000      1.0000000000
| 92>     p 1 
| 93>      1       0.0300000000      1.0000000000
| 94>     d 6 
| 95>      1     599.4743238300      0.0004246776
| 96>      2     202.2699735400      0.0032026767
| 97>      3      80.1262854340      0.0152148001
| 98>      4      35.4241872340      0.0467077047
| 99>      5       9.4853007820      0.2545286122
|100>      6       5.9107203308      0.7434742473
|101>     d 1 
|102>      1       3.1499951119      1.0000000000
|103>     d 1 
|104>      1       1.5208282362      1.0000000000
|105>     d 1 
|106>      1       0.6124028801      1.0000000000
|107>     d 1 
|108>      1       0.2265816927      1.0000000000
|109>     d 1 
|110>      1       0.0762308658      1.0000000000
|111>     f 6 
|112>      1     158.7470249900      0.0027015296
|113>      2      58.1457525820      0.0272861288
|114>      3      27.2469078190      0.1108129134
|115>      4      13.5415609330      0.2383990027
|116>      5       6.7176077659      0.3931199535
|117>      6       3.3193943428      0.4435142959
|118>     f 1 
|119>      1       1.6790647033      1.0000000000
|120>     f 1 
|121>      1       0.8452808094      1.0000000000
|122>     f 1 
|123>      1       0.4062415166      1.0000000000
|124>     f 1 
|125>      1       0.1767589747      1.0000000000
|126>   end
|127>   NewAuxGTO 63
|128>     S 1
|129>      1 1310.72 1.0
|130>     S 1
|131>      1  655.36 1.0
|132>     S 1
|133>      1  327.68 1.0
|134>     S 1
|135>      1  163.84 1.0
|136>     S 1
|137>      1   81.82 1.0
|138>     S 1
|139>      1   40.96 1.0
|140>     S 1
|141>      1   20.48 1.0
|142>     S 1
|143>      1   10.24 1.0
|144>     S 1
|145>      1    5.12 1.0
|146>     S 1
|147>      1    2.56 1.0
|148>     S 1
|149>      1    1.28 1.0
|150>     S 1
|151>      1    0.64 1.0
|152>     S 1
|153>      1    0.32 1.0
|154>     S 1
|155>      1    0.16 1.0
|156>     S 1
|157>      1    0.08 1.0
|158>     S 1
|159>      1    0.04 1.0
|160>     S 1
|161>      1    0.02 1.0
|162>     S 1
|163>      1    0.01 1.0
|164>   end
|165> end
|166> 
|167> * xyz 0 8
|168> 63  0.0 0.0 0.0
|169> *
|170> 
|171> 
|172>                          ****END OF INPUT****
================================================================================

                       ****************************
                       * Single Point Calculation *
                       ****************************

---------------------------------
CARTESIAN COORDINATES (ANGSTROEM)
---------------------------------
  Eu     0.000000    0.000000    0.000000

----------------------------
CARTESIAN COORDINATES (A.U.)
----------------------------
  NO LB      ZA    FRAG     MASS         X           Y           Z
   0 Eu   35.0000*   0   151.960    0.000000    0.000000    0.000000
* core charge reduced due to ECP

--------------------------------
INTERNAL COORDINATES (ANGSTROEM)
--------------------------------
 Eu     0   0   0     0.000000000000     0.00000000     0.00000000

---------------------------
INTERNAL COORDINATES (A.U.)
---------------------------
 Eu     0   0   0     0.000000000000     0.00000000     0.00000000

---------------------
BASIS SET INFORMATION
---------------------
There are 1 groups of distinct atoms

 Group   1 Type Eu  : 16s18p11d10f contracted to 11s8p6d5f pattern {61111111111/93111111/611111/61111}

Atom   0Eu   basis set group =>   1
---------------------------------
AUXILIARY/J BASIS SET INFORMATION
---------------------------------
There are 1 groups of distinct atoms

 Group   1 Type Eu  : 18s contracted to 18s pattern {111111111111111111}

Atom   0Eu   basis set group =>   1
-------------------------
ECP PARAMETER INFORMATION
-------------------------

 Group 1, Type Eu ECP (replacing 28 core electrons, lmax=5)

Atom   0Eu   ECP group =>   1

------------------------------------------------------------------------------
                           ORCA GTO INTEGRAL CALCULATION
------------------------------------------------------------------------------

                         BASIS SET STATISTICS AND STARTUP INFO

 # of primitive gaussian shells          ...   55
 # of primitive gaussian functions       ...  195
 # of contracted shells                  ...   30
 # of contracted basis functions         ...  100
 Highest angular momentum                ...    3
 Maximum contraction depth               ...    9
 Integral package used                   ... LIBINT
 Integral threshhold            Thresh   ...  1.000e-10
 Primitive cut-off              TCut     ...  1.000e-11
 Storage cut-off                TCutStore... -1.000e+00
 Buffer length                           ... 1048576 integrals/buffer
 Generate file with integrals 4 distinct ...false


------------------------------ INTEGRAL EVALUATION ----------------------------


 * One electron integrals 

   ECP integrals                         ... done
 Pre-screening matrix                    ... done
 Shell pair data                         ... done (   0.000 sec)
 Statistics run                          ... done
 Maximum amount of storage needed        ...   150 MB
 Maximum amount of storage dedicated     ... 500000 MB
 Beginning two electron integral evaluation:
 Starting repulsion integrals
  <ss|ss>  ...         2211 b.         0 skpd (  0.0%)     0.000 s. (  0.000 ms/b)
  <ss|sp>  ...         5808 b.         0 skpd (  0.0%)     0.001 s. (  0.000 ms/b)
  <ss|sd>  ...         4356 b.         0 skpd (  0.0%)     0.002 s. (  0.001 ms/b)
  <ss|sf>  ...         3630 b.         0 skpd (  0.0%)     0.003 s. (  0.001 ms/b)
  <ss|pp>  ...         2376 b.         0 skpd (  0.0%)     0.003 s. (  0.001 ms/b)
  <ss|pd>  ...         3168 b.         0 skpd (  0.0%)     0.004 s. (  0.001 ms/b)
  <ss|pf>  ...         2640 b.         0 skpd (  0.0%)     0.005 s. (  0.002 ms/b)
  <ss|dd>  ...         1386 b.         0 skpd (  0.0%)     0.003 s. (  0.002 ms/b)
  <ss|df>  ...         1980 b.         0 skpd (  0.0%)     0.006 s. (  0.003 ms/b)
  <ss|ff>  ...          990 b.         0 skpd (  0.0%)     0.005 s. (  0.005 ms/b)
  <sp|sp>  ...         3916 b.         0 skpd (  0.0%)     0.004 s. (  0.001 ms/b)
  <sp|sd>  ...         5808 b.         0 skpd (  0.0%)     0.007 s. (  0.001 ms/b)
  <sp|sf>  ...         4838 b.         2 skpd (  0.0%)     0.010 s. (  0.002 ms/b)
  <sp|pp>  ...         3168 b.         0 skpd (  0.0%)     0.009 s. (  0.003 ms/b)
  <sp|pd>  ...         4224 b.         0 skpd (  0.0%)     0.015 s. (  0.004 ms/b)
  <sp|pf>  ...         3520 b.         0 skpd (  0.0%)     0.021 s. (  0.006 ms/b)
  <sp|dd>  ...         1848 b.         0 skpd (  0.0%)     0.018 s. (  0.010 ms/b)
  <sp|df>  ...         2640 b.         0 skpd (  0.0%)     0.022 s. (  0.009 ms/b)
  <sp|ff>  ...         1320 b.         0 skpd (  0.0%)     0.021 s. (  0.016 ms/b)
  <sd|sd>  ...         2209 b.         2 skpd (  0.1%)     0.004 s. (  0.002 ms/b)
  <sd|sf>  ...         3617 b.        13 skpd (  0.4%)     0.013 s. (  0.003 ms/b)
  <sd|pp>  ...         2376 b.         0 skpd (  0.0%)     0.011 s. (  0.005 ms/b)
  <sd|pd>  ...         3168 b.         0 skpd (  0.0%)     0.027 s. (  0.008 ms/b)
  <sd|pf>  ...         2640 b.         0 skpd (  0.0%)     0.029 s. (  0.011 ms/b)
  <sd|dd>  ...         1386 b.         0 skpd (  0.0%)     0.016 s. (  0.011 ms/b)
  <sd|df>  ...         1980 b.         0 skpd (  0.0%)     0.037 s. (  0.018 ms/b)
  <sd|ff>  ...          990 b.         0 skpd (  0.0%)     0.038 s. (  0.038 ms/b)
  <sf|sf>  ...         1524 b.        16 skpd (  1.0%)     0.018 s. (  0.012 ms/b)
  <sf|pp>  ...         1980 b.         0 skpd (  0.0%)     0.021 s. (  0.011 ms/b)
  <sf|pd>  ...         2640 b.         0 skpd (  0.0%)     0.038 s. (  0.014 ms/b)
  <sf|pf>  ...         2200 b.         0 skpd (  0.0%)     0.058 s. (  0.026 ms/b)
  <sf|dd>  ...         1155 b.         0 skpd (  0.0%)     0.031 s. (  0.027 ms/b)
  <sf|df>  ...         1650 b.         0 skpd (  0.0%)     0.083 s. (  0.050 ms/b)
  <sf|ff>  ...          825 b.         0 skpd (  0.0%)     0.082 s. (  0.099 ms/b)
  <pp|pp>  ...          666 b.         0 skpd (  0.0%)     0.009 s. (  0.013 ms/b)
  <pp|pd>  ...         1728 b.         0 skpd (  0.0%)     0.024 s. (  0.014 ms/b)
  <pp|pf>  ...         1440 b.         0 skpd (  0.0%)     0.042 s. (  0.029 ms/b)
  <pp|dd>  ...          756 b.         0 skpd (  0.0%)     0.019 s. (  0.025 ms/b)
  <pp|df>  ...         1080 b.         0 skpd (  0.0%)     0.044 s. (  0.041 ms/b)
  <pp|ff>  ...          540 b.         0 skpd (  0.0%)     0.046 s. (  0.085 ms/b)
  <pd|pd>  ...         1176 b.         0 skpd (  0.0%)     0.029 s. (  0.025 ms/b)
  <pd|pf>  ...         1920 b.         0 skpd (  0.0%)     0.082 s. (  0.043 ms/b)
  <pd|dd>  ...         1008 b.         0 skpd (  0.0%)     0.041 s. (  0.041 ms/b)
  <pd|df>  ...         1440 b.         0 skpd (  0.0%)     0.107 s. (  0.074 ms/b)
  <pd|ff>  ...          720 b.         0 skpd (  0.0%)     0.109 s. (  0.152 ms/b)
  <pf|pf>  ...          820 b.         0 skpd (  0.0%)     0.079 s. (  0.097 ms/b)
  <pf|dd>  ...          840 b.         0 skpd (  0.0%)     0.071 s. (  0.084 ms/b)
  <pf|df>  ...         1200 b.         0 skpd (  0.0%)     0.188 s. (  0.157 ms/b)
  <pf|ff>  ...          600 b.         0 skpd (  0.0%)     0.205 s. (  0.342 ms/b)
  <dd|dd>  ...          231 b.         0 skpd (  0.0%)     0.027 s. (  0.116 ms/b)
  <dd|df>  ...          630 b.         0 skpd (  0.0%)     0.089 s. (  0.141 ms/b)
  <dd|ff>  ...          315 b.         0 skpd (  0.0%)     0.099 s. (  0.313 ms/b)
  <df|df>  ...          465 b.         0 skpd (  0.0%)     0.141 s. (  0.303 ms/b)
  <df|ff>  ...          450 b.         0 skpd (  0.0%)     0.258 s. (  0.573 ms/b)
  <ff|ff>  ...          120 b.         0 skpd (  0.0%)     0.189 s. (  1.575 ms/b)


                                      INTEGRAL STATISTICS

Integral type statistics:
 Number of integrals retained            ...   12752517 
 One   Center Integrals retained         ...   12752517 (100.0%)
 Two   Center Integrals retained         ...          0 (  0.0%)
 Three Center Integrals retained         ...          0 (  0.0%)
 Four  Center Integrals retained         ...          0 (  0.0%)

Storage statistics:
 Number of char integrals                ...          0 (  0.0%)
 Number of short int integrals           ...          0 (  0.0%)
 Number of double/float integrals        ...   12752517 (100.0%)
 Amount of memory used                   ...        158 MB
 Amount of memory estimated              ...        150 MB ( 95.5%)

Prescreening statistics:
 Total number of shell quadruples        ...     108345 
 Number of skipped shell quadruples      ...         56 (  0.1%)
 # of negligible batches done            ...          0 (  0.0%)

Timings:
 Total evaluation time               ...     3.032 sec (   0.051 min)
 One electron matrix time            ...     0.085 sec (   0.001 min) =  2.8%
 Schwartz matrix evaluation time     ...     0.214 sec (   0.004 min) =  7.1%
 Statistics run                      ...     0.092 sec (   0.002 min) =  3.0%
 Repulsion integral time             ...     2.562 sec (   0.043 min) = 84.5%

-------------------------------------------------------------------------------
                                 ORCA SCF
-------------------------------------------------------------------------------

------------
SCF SETTINGS
------------
Hamiltonian:
 Ab initio Hamiltonian  Method          .... Hartree-Fock(GTOs)


General Settings:
 Integral files         IntName         .... 63_Eu_atom63
 Hartree-Fock type      HFTyp           .... ROHF
 Total Charge           Charge          ....    0
 Multiplicity           Mult            ....    8
 Number of Electrons    NEL             ....   35
 Basis Dimension        Dim             ....  100
 Nuclear Repulsion      ENuc            ....      0.0000000000 Eh

Convergence Acceleration:
 DIIS                   CNVDIIS         .... on
   Start iteration      DIISMaxIt       ....    12
   Startup error        DIISStart       ....  0.200000
   # of expansion vecs  DIISMaxEq       ....     5
   Bias factor          DIISBfac        ....   1.050
   Max. coefficient     DIISMaxC        ....  10.000
 Newton-Raphson         CNVNR           .... off
 SOSCF                  CNVSOSCF        .... off
 Level Shifting         CNVShift        .... on
   Level shift para.    LevelShift      ....    0.3000
   Turn off err/grad.   ShiftErr        ....    0.0010
 Zerner damping         CNVZerner       .... off
 Static damping         CNVDamp         .... on
   Fraction old density DampFac         ....    0.7000
   Max. Damping (<1)    DampMax         ....    0.9800
   Min. Damping (>=0)   DampMin         ....    0.0000
   Turn off err/grad.   DampErr         ....    0.1000
 Fernandez-Rico         CNVRico         .... off

SCF Procedure:
 Maximum # iterations   MaxIter         ....  1000
 SCF integral mode      SCFMode         .... Conventional
 Integral Threshold     Thresh          ....  1.000e-10 Eh
 Primitive CutOff       TCut            ....  1.000e-11 Eh
 Integral Buffer length BufferLength    .... 1048576
 Integral index format  IndFormat       ....     0
 Integral value format  ValFormat       ....     0
 Integral Storage       Thresh          ....  1.000e-10 Eh

Convergence Tolerance:
 Convergence Check Mode ConvCheckMode   .... Total+1el-Energy
 Convergence forced     ConvForced      .... 0
 Energy Change          TolE            ....  1.000e-06 Eh
 1-El. energy change                    ....  1.000e-03 Eh
 DIIS Error             TolErr          ....  1.000e-06


Diagonalization of the overlap matrix:
Smallest eigenvalue                        ... 1.376e-03
Time for diagonalization                   ...    0.002 sec
Threshold for overlap eigenvalues          ... 1.000e-08
Number of eigenvalues below threshold      ... 0
Time for construction of square roots      ...    0.003 sec
Total time needed                          ...    0.004 sec

--------------------
INITIAL GUESS: HCORE
--------------------
AVERAGE-CONFIGURATION (SAHF) CASE FOUND

-------------------
FINAL ROHF SETTINGS
-------------------
Number of operators             ... 2
  operator   0:  14 orbitals  28 electrons n(mue)= 2.000
  operator   1:   7 orbitals   7 electrons n(mue)= 1.000
Vector coupling coefficients a and b (Zerner convention):
   1.000    1.000           1.000    1.000 
   1.000    1.000           1.000    2.000 

                      -----------------
                      INTIAL GUESS DONE 
                      -----------------

 InCore treatment chosen:
   Memory dedicated               ...    1024 MB
   Memory needed                  ...    158 MB
   Number of tiny    integrals    ...       0
   Number of small   integrals    ...       0
   Number of regular integrals    ... 12752517

--------------
SCF ITERATIONS
--------------
ITER       Energy         Delta-E        Max-DP      RMS-DP      [F,P]     Damp
  0   -519.9151184426   0.000000000000 6.01131794  0.11247876  6.8529634 0.7000
  1   -590.8273239600 -70.912205517346 3.05921723  0.04953295  1.4140243 0.7000
  2   -672.3599764999 -81.532652539891 2.14145055  0.03452062  0.6177089 0.7000
  3   -681.6127847266  -9.252808226748 1.49899406  0.02415727  0.3743299 0.7000
  4   -689.9049002372  -8.292115510586 1.04928500  0.01687086  0.3010580 0.7000
                            ****Activating DIIS****
  5   -695.1435529941  -5.238652756876 2.44831138  0.03939430  0.0974007 0.0000
  6   -707.4031288708 -12.259575876722 0.07571108  0.00098886  0.2199171 0.7000
  7   -707.0900372724   0.313091598367 0.01968523  0.00031699  0.2989985 0.7000
  8   -707.1876101413  -0.097572868881 0.01009792  0.00019151  0.2689031 0.7000
  9   -707.1903859501  -0.002775808798 0.02140156  0.00029110  0.2694878 0.7000
 10   -707.1212494805   0.069136469672 5.54217229  0.05301450  0.2901522 0.7000
 11   -705.3108356281   1.810413852390 3.38781035  0.03240463  0.2356023 0.7000
 12   -703.8393466153   1.471489012754 2.86657620  0.02747665  0.3192770 0.7000
 13   -702.3183202720   1.521026343316 1.77167538  0.01693564  0.6559319 0.7000
 14   -701.4935972903   0.824722981646 1.22357164  0.01170314  0.8128369 0.7000
 15   -700.8456252878   0.647972002564 1.08338986  0.01041737  0.9487194 0.7000
 16   -699.9943781921   0.851247095646 0.50423119  0.00587881  1.1770215 0.7000
 17   -701.1347915267  -1.140413334604 0.66044445  0.00666303  0.6955056 0.7000
 18   -700.4718832335   0.662908293226 4.82673981  0.04629552  0.9030457 0.7000
 19   -708.2997513003  -7.827868066739 3.37871936  0.03242613  0.1015670 0.7000
 20   -706.9827023120   1.317048988293 2.36510367  0.02269047  0.2156411 0.7000
 21   -706.1368964009   0.845805911075 1.65557260  0.01588356  0.3539985 0.7000
 22   -705.5169215175   0.619974883396 1.15890090  0.01111934  0.4722356 0.7000
 23   -705.0750681844   0.441853333088 0.81123063  0.00778602  0.5562249 0.7000
 24   -704.7318566479   0.343211536543 0.56786178  0.00546289  0.6188011 0.7000
 25   -704.3378442610   0.394012386884 0.39750326  0.00381457  0.6737556 0.7000
 26   -704.6756269406  -0.337782679618 0.27825236  0.00269590  0.6385080 0.7000
 27   -704.9103529822  -0.234726041636 0.19477657  0.00206676  0.6091244 0.7000
 28   -705.5869191066  -0.676566124362 5.72090647  0.05527277  0.4804181 0.7000
 29   -702.5392233407   3.047695765879 2.91667630  0.02716806  0.3764395 0.7000
 30   -699.9629531749   2.576270165831 1.49459668  0.01882829  0.4306022 0.7000
 31   -700.9880072211  -1.025054046191 0.87435672  0.01146372  0.8114875 0.7000
 32   -705.0212176102  -4.033210389138 3.23556803  0.03069358  0.5490122 0.7000
 33   -705.5880200268  -0.566802416592 2.40667313  0.02248932  0.4901904 0.7000
 34   -707.2762100917  -1.688190064859 1.68467409  0.01608329  0.2820272 0.7000
 35   -707.3115419707  -0.035331879016 1.17926740  0.01129390  0.1852254 0.7000
 36   -706.9559323096   0.355609661066 0.82548662  0.00789885  0.2221037 0.7000
 37   -706.7045347605   0.251397549070 0.57784044  0.00552222  0.2995509 0.7000
 38   -706.5393051039   0.165229656675 0.40449102  0.00387575  0.3540232 0.7000
 39   -706.2962530809   0.243052022941 0.28314438  0.00273932  0.4265360 0.7000
 40   -706.0236349971   0.272618083825 0.19819660  0.00191226  0.4831887 0.7000
 41   -706.2165358161  -0.192900818962 0.13873626  0.00141160  0.4382133 0.7000
 42   -706.4804916329  -0.263955816817 0.09711407  0.00138594  0.3968212 0.7000
 43   -706.8308650891  -0.350373456206 6.02609622  0.05726469  0.3287818 0.7000
 44   -704.5036932438   2.327171845245 3.21402809  0.03090365  0.2799972 0.7000
 45   -702.8576878298   1.646005413998 2.10904380  0.02035705  0.6614799 0.7000
 46   -701.5152873929   1.342400436895 1.55586151  0.01495895  0.8936947 0.7000
 47   -700.4031980620   1.112089330964 1.13028934  0.01082809  1.1147001 0.7000
 48   -699.6352623930   0.767935669021 1.42969255  0.01476369  1.3474802 0.7000
 49   -695.2677168673   4.367545525691 0.24491407  0.00373531  1.1984071 0.7000
 50   -698.8396354398  -3.571918572567 0.55751636  0.00789718  1.3481960 0.7000
 51   -702.3993809645  -3.559745524657 4.52674483  0.04295860  0.8938117 0.7000
 52   -708.1339719760  -5.734591011479 3.16872411  0.03014200  0.2596502 0.7000
 53   -706.9403157804   1.193656195533 2.21810682  0.02108334  0.2353148 0.7000
 54   -706.2169916014   0.723324179085 1.55267478  0.01475672  0.3310225 0.7000
 55   -705.6414591144   0.575532486946 1.08687240  0.01033042  0.4119888 0.7000
 56   -705.1830584469   0.458400667489 0.76081046  0.00725914  0.4795147 0.7000
 57   -704.5717039722   0.611354474718 0.53256698  0.00511083  0.6286490 0.7000
 58   -704.0757366505   0.495967321748 0.37279695  0.00358308  0.6888020 0.7000
 59   -704.9094119181  -0.833675267642 0.26095773  0.00258726  0.5507427 0.7000
 60   -705.2390420264  -0.329630108261 5.15229290  0.04803611  0.4840506 0.7000
 61   -703.8190276182   1.420014408137 2.67515567  0.02501372  0.2831871 0.7000
 62   -701.3380265894   2.481001028849 1.37206960  0.01608433  0.3289856 0.7000
 63   -701.6497553241  -0.311728734696 0.85538401  0.01040591  0.6641912 0.7000
 64   -700.9828489481   0.666906375928 0.58124834  0.00714178  0.7522768 0.7000
 65   -700.5894959899   0.393352958261 1.40219309  0.01516884  0.8707513 0.7000
 66   -693.7137567423   6.875739247540 0.39344640  0.00616435  0.9809476 0.7000
 67   -696.1275449673  -2.413788225006 3.71043848  0.03476903  1.0268158 0.7000
 68   -708.4948396744 -12.367294707102 2.59729546  0.02442540  0.4659138 0.7000
 69   -707.7378512060   0.756988468444 1.81811466  0.01718761  0.1973116 0.7000
 70   -706.9738397924   0.764011413582 1.27268217  0.01201521  0.2396831 0.7000
 71   -706.5807528911   0.393086901366 0.89087731  0.00840083  0.2766001 0.7000
 72   -706.3522731925   0.228479698572 0.62361367  0.00586480  0.3351777 0.7000
 73   -706.2626031118   0.089670080685 0.43652561  0.00419136  0.3855280 0.7000
 74   -705.4971670276   0.765436084192 0.30556959  0.00297660  0.5481477 0.7000
 75   -705.0838858406   0.413281187028 0.21389925  0.00210555  0.5978669 0.7000
 76   -705.8463948567  -0.762509016163 0.14972901  0.00173330  0.4745922 0.7000
 77   -706.3299902138  -0.483595357036 5.35785989  0.05122659  0.3747404 0.7000
 78   -704.7560158513   1.573974362454 3.06232995  0.02942880  0.2572685 0.7000
 79   -701.8783939988   2.877621852478 2.13702214  0.02053210  0.3818626 0.7000
 80   -699.6789275482   2.199466450631 1.57722131  0.01512391  0.5668699 0.7000
 81   -697.9343740785   1.744553469735 1.12140155  0.01075059  0.7492526 0.7000
 82   -696.6804761545   1.253897923994 1.48229411  0.01458891  0.8894725 0.7000
 83   -691.2818005790   5.398675575519 0.40145774  0.00461930  1.2604133 0.7000
 84   -695.4635273177  -4.181726738732 0.29404948  0.00350920  0.9839154 0.7000
 85   -696.0790014509  -0.615474133240 3.85235340  0.03863309  0.9595221 0.7000
 86   -705.8603861249  -9.781384673919 3.19669216  0.03047618  1.5073741 0.7000
 87   -707.5862227484  -1.725836623521 2.23768496  0.02126492  0.2512183 0.7000
 88   -706.1236758161   1.462546932321 1.56637948  0.01486885  0.3106259 0.7000
 89   -705.2235576287   0.900118187312 1.09646553  0.01042428  0.4016072 0.7000
 90   -704.3408103312   0.882747297543 0.76752558  0.00726516  0.5613243 0.7000
 91   -704.1547758012   0.186034530018 0.53726828  0.00522300  0.6141688 0.7000
 92   -702.7245056559   1.430270145271 0.37608782  0.00357188  0.8597164 0.7000
 93   -703.0150287721  -0.290523116211 0.26326142  0.00262116  0.7903424 0.7000
 94   -704.0326813324  -1.017652560261 0.18428306  0.00193040  0.6530414 0.7000
 95   -704.4083083446  -0.375627012235 5.46232900  0.05145255  0.6064350 0.7000
 96   -703.5479425836   0.860365761009 2.74233406  0.02566520  0.3037354 0.7000
 97   -700.6918449979   2.856097585698 1.42510824  0.01706112  0.3556154 0.7000
 98   -701.4473189804  -0.755473982529 0.92175134  0.01128824  0.7787011 0.7000
 99   -700.8970541232   0.550264857264 0.68891887  0.00820221  0.8686102 0.7000
100   -700.6302028968   0.266851226410 0.93508545  0.01202171  1.0329406 0.7000
101   -694.2850476690   6.345155227750 3.52957114  0.03137762  0.9090347 0.7000
102   -705.7056506343 -11.420602965307 2.72278439  0.02648419  1.4246699 0.7000
103   -708.0396203024  -2.333969668082 1.90594715  0.01855444  0.1020608 0.7000
104   -707.0412791570   0.998341145419 1.33416136  0.01296315  0.1820120 0.7000
105   -706.5185778390   0.522701318026 0.93391323  0.00907250  0.2509600 0.7000
106   -706.1178238199   0.400754019019 0.65373964  0.00634860  0.3319117 0.7000
107   -705.8615946431   0.256229176813 0.45761839  0.00446860  0.3901839 0.7000
108   -705.4061661175   0.455428525674 0.32033005  0.00317518  0.4639514 0.7000
109   -704.9001127208   0.506053396694 0.22422867  0.00220646  0.5376664 0.7000
110   -705.5535465305  -0.653433809749 0.15695906  0.00163423  0.4558988 0.7000
111   -705.8648853721  -0.311338841581 5.05965388  0.04702605  0.4197698 0.7000
112   -704.7426746572   1.122210714932 2.85134998  0.02659633  0.2419967 0.7000
113   -701.4720004546   3.270674202574 2.01222432  0.01875948  0.4038692 0.7000
114   -698.9621262875   2.509874167070 1.53456864  0.01425207  0.6139595 0.7000
115   -696.9160741535   2.046052133996 1.10174509  0.01022704  0.7997448 0.7000
116   -695.4575093427   1.458564810796 1.43387493  0.01395104  0.9496119 0.7000
117   -690.1029060639   5.354603278873 0.53983231  0.00633515  1.3081996 0.7000
118   -694.5299339472  -4.427027883307 0.63513932  0.00723924  1.0023062 0.7000
119   -697.0975232576  -2.567589310405 3.30473672  0.02917976  1.8446531 0.7000
120   -707.3351690710 -10.237645813457 3.12035607  0.03034834  1.4914306 0.7000
121   -707.3296382623   0.005530808763 2.18429982  0.02121497  0.1559476 0.7000
122   -706.2952190536   1.034419208665 1.52902209  0.01485213  0.2448325 0.7000
123   -705.4701330171   0.825086036478 1.07031189  0.01039955  0.3727836 0.7000
124   -704.9025384764   0.567594540667 0.74921028  0.00728149  0.4621262 0.7000
125   -704.5168788244   0.385659652069 0.52444938  0.00510246  0.5557680 0.7000
126   -704.1584365093   0.358442315115 0.36712725  0.00356322  0.6273754 0.7000
127   -704.2095982931  -0.051161783823 0.25700327  0.00250809  0.6134685 0.7000
128   -704.3247518370  -0.115153543893 0.17990706  0.00182686  0.6217627 0.7000
129   -704.6760696054  -0.351317768393 5.50382798  0.05177852  0.5715479 0.7000
130   -703.2124750713   1.463594534081 2.77597121  0.02583134  0.3140696 0.7000
131   -700.5271944598   2.685280611507 2.45202151  0.02175198  0.3611001 0.7000
132   -707.0814804064  -6.554285946584 1.83104140  0.01652482  0.2808135 0.7000
133   -707.2712658608  -0.189785454412 1.32045331  0.01229071  0.1992313 0.7000
134   -707.5230793834  -0.251813522624 0.91842344  0.00915963  0.1255319 0.7000
135   -707.7079830736  -0.184903690220 2.10812722  0.02167820  0.0274075 0.0000
136   -707.9370206326  -0.229037558927 0.01208079  0.00015904  0.1304802 0.7000
137   -707.9169778368   0.020042795746 0.00813605  0.00010498  0.1405421 0.7000
138   -707.9144221346   0.002555702170 0.00518538  0.00006293  0.1411719 0.7000
139   -707.9144301594  -0.000008024779 0.00930370  0.00012972  0.1408706 0.7000
140   -707.9216467569  -0.007216597528 3.76621073  0.03755973  0.1373500 0.7000
141   -704.9105653672   3.011081389699 1.08020504  0.01126253  0.2635255 0.7000
142   -707.0338277297  -2.123262362477 0.76138201  0.00786177  0.2597642 0.7000
143   -707.5729608113  -0.539133081571 0.53294830  0.00565901  0.1857412 0.7000
144   -707.8253054869  -0.252344675643 0.36934073  0.00417077  0.1072245 0.7000
145   -707.9462503913  -0.120944904365 0.81745742  0.01028443  0.0414988 0.0000
146   -708.0429154947  -0.096665103364 0.02195333  0.00053385  0.0911739 0.0000
147   -708.0555684128  -0.012652918172 0.00564105  0.00012258  0.0798056 0.0000
148   -708.0589707510  -0.003402338159 0.00828321  0.00017522  0.0781195 0.0000
149   -708.0605260974  -0.001555346417 0.01432820  0.00031436  0.0762278 0.0000
150   -708.0625588695  -0.002032772045 0.14942021  0.00374549  0.0722831 0.0000
151   -708.0994969786  -0.036938109126 0.07900476  0.00214496  0.0198281 0.0000
152   -708.1198510113  -0.020354032670 0.07067833  0.00099921  0.0174901 0.0000
153   -708.1243175002  -0.004466488987 0.04305555  0.00048580  0.0120875 0.0000
154   -708.1259278469  -0.001610346700 0.06066481  0.00055739  0.0093652 0.0000
155   -708.1273203607  -0.001392513772 0.03908206  0.00036999  0.0069358 0.0000
156   -708.1279381288  -0.000617768119 0.01853355  0.00019495  0.0071637 0.0000
157   -708.1281991764  -0.000261047546 0.00971436  0.00011949  0.0073058 0.0000
158   -708.1283446554  -0.000145479044 0.00623453  0.00009035  0.0073991 0.0000
159   -708.1284484489  -0.000103793462 0.00400498  0.00006466  0.0074732 0.0000
160   -708.1285210943  -0.000072645386 0.00344869  0.00005442  0.0075261 0.0000
161   -708.1285807033  -0.000059609015 0.00401608  0.00005904  0.0075707 0.0000
162   -708.1286414544  -0.000060751166 0.00402427  0.00005778  0.0076174 0.0000
163   -708.1286986032  -0.000057148712 0.00374940  0.00005305  0.0076636 0.0000
164   -708.1287494224  -0.000050819277 0.00297920  0.00004238  0.0077063 0.0000
165   -708.1287897031  -0.000040280695 0.00205831  0.00003094  0.0077416 0.0000
166   -708.1288197503  -0.000030047181 0.00130916  0.00002242  0.0077683 0.0000
167   -708.1288422642  -0.000022513917 0.00078432  0.00001679  0.0077887 0.0000
168   -708.1288595390  -0.000017274765 0.00057275  0.00001343  0.0078043 0.0000
169   -708.1288734174  -0.000013878414 0.00051320  0.00001156  0.0078169 0.0000
170   -708.1288852299  -0.000011812479 0.00047665  0.00001054  0.0078277 0.0000
171   -708.1288958127  -0.000010582848 0.00045531  0.00000995  0.0078375 0.0000
172   -708.1289056155  -0.000009802762 0.00044127  0.00000955  0.0078466 0.0000
173   -708.1289148373  -0.000009221841 0.00043030  0.00000922  0.0078552 0.0000
174   -708.1289235692  -0.000008731873 0.00042065  0.00000892  0.0078634 0.0000
175   -708.1289318645  -0.000008295258 0.00041207  0.00000866  0.0078712 0.0000
176   -708.1289397694  -0.000007904944 0.00040455  0.00000843  0.0078785 0.0000
177   -708.1289473269  -0.000007557496 0.00039801  0.00000823  0.0078856 0.0000
178   -708.1289545748  -0.000007247899 0.00039228  0.00000805  0.0078923 0.0000
179   -708.1289615446  -0.000006969800 0.00038721  0.00000789  0.0078988 0.0000
180   -708.1289682624  -0.000006717809 0.00038265  0.00000775  0.0079050 0.0000
181   -708.1289747503  -0.000006487876 0.00037854  0.00000762  0.0079109 0.0000
182   -708.1289810274  -0.000006277125 0.00037482  0.00000750  0.0079165 0.0000
183   -708.1289871107  -0.000006083262 0.00037144  0.00000739  0.0079220 0.0000
184   -708.1289930151  -0.000005904367 0.00036836  0.00000729  0.0079272 0.0000
185   -708.1289987538  -0.000005738766 0.00036555  0.00000720  0.0079321 0.0000
186   -708.1290043388  -0.000005585025 0.00036297  0.00000712  0.0079369 0.0000
187   -708.1290097808  -0.000005441914 0.00036059  0.00000704  0.0079415 0.0000
188   -708.1290150891  -0.000005308385 0.00035841  0.00000697  0.0079458 0.0000
189   -708.1290202727  -0.000005183523 0.00035640  0.00000691  0.0079500 0.0000
190   -708.1290253392  -0.000005066528 0.00035455  0.00000685  0.0079539 0.0000
191   -708.1290302959  -0.000004956694 0.00035284  0.00000679  0.0079577 0.0000
192   -708.1290351493  -0.000004853395 0.00035126  0.00000674  0.0079613 0.0000
193   -708.1290399054  -0.000004756075 0.00034979  0.00000669  0.0079647 0.0000
194   -708.1290445696  -0.000004664243 0.00034844  0.00000665  0.0079679 0.0000
195   -708.1290491470  -0.000004577451 0.00034720  0.00000661  0.0079710 0.0000
196   -708.1290536424  -0.000004495304 0.00034605  0.00000658  0.0079739 0.0000
197   -708.1290580598  -0.000004417440 0.00034499  0.00000654  0.0079766 0.0000
198   -708.1290624033  -0.000004343535 0.00034401  0.00000651  0.0079791 0.0000
199   -708.1290666766  -0.000004273296 0.00034311  0.00000648  0.0079814 0.0000
200   -708.1290708831  -0.000004206456 0.00034229  0.00000646  0.0079836 0.0000
201   -708.1290750259  -0.000004142771 0.00034154  0.00000644  0.0079856 0.0000
202   -708.1290791079  -0.000004082021 0.00034087  0.00000641  0.0079875 0.0000
203   -708.1290831319  -0.000004024005 0.00034025  0.00000640  0.0079891 0.0000
204   -708.1290871004  -0.000003968539 0.00033971  0.00000638  0.0079906 0.0000
205   -708.1290910159  -0.000003915457 0.00033922  0.00000637  0.0079920 0.0000
206   -708.1290948805  -0.000003864598 0.00033880  0.00000635  0.0079931 0.0000
207   -708.1290986963  -0.000003815833 0.00033843  0.00000634  0.0079941 0.0000
208   -708.1291024653  -0.000003769025 0.00033813  0.00000633  0.0079950 0.0000
209   -708.1291061894  -0.000003724063 0.00033788  0.00000633  0.0079956 0.0000
210   -708.1291098702  -0.000003680838 0.00033769  0.00000632  0.0079961 0.0000
211   -708.1291135095  -0.000003639255 0.00033756  0.00000632  0.0079964 0.0000
212   -708.1291171087  -0.000003599224 0.00033749  0.00000632  0.0079966 0.0000
213   -708.1291206694  -0.000003560668 0.00033748  0.00000632  0.0079965 0.0000
214   -708.1291241929  -0.000003523516 0.00033753  0.00000632  0.0079963 0.0000
215   -708.1291276806  -0.000003487705 0.00033765  0.00000632  0.0079960 0.0000
216   -708.1291311338  -0.000003453179 0.00033782  0.00000633  0.0079954 0.0000
217   -708.1291345537  -0.000003419888 0.00033807  0.00000633  0.0079947 0.0000
218   -708.1291379415  -0.000003387795 0.00033839  0.00000634  0.0079938 0.0000
219   -708.1291412983  -0.000003356861 0.00033878  0.00000635  0.0079927 0.0000
220   -708.1291446254  -0.000003327063 0.00033925  0.00000637  0.0079915 0.0000
221   -708.1291479238  -0.000003298381 0.00033981  0.00000638  0.0079900 0.0000
222   -708.1291511946  -0.000003270797 0.00034045  0.00000640  0.0079884 0.0000
223   -708.1291544389  -0.000003244316 0.00034119  0.00000642  0.0079866 0.0000
224   -708.1291576578  -0.000003218937 0.00034204  0.00000644  0.0079846 0.0000
225   -708.1291608525  -0.000003194674 0.00034300  0.00000646  0.0079824 0.0000
226   -708.1291640240  -0.000003171548 0.00034408  0.00000649  0.0079800 0.0000
227   -708.1291671736  -0.000003149600 0.00034530  0.00000652  0.0079773 0.0000
228   -708.1291703025  -0.000003128871 0.00034667  0.00000655  0.0079745 0.0000
229   -708.1291734119  -0.000003109428 0.00034821  0.00000659  0.0079715 0.0000
230   -708.1291765033  -0.000003091343 0.00034993  0.00000663  0.0079683 0.0000
231   -708.1291795780  -0.000003074719 0.00035187  0.00000667  0.0079649 0.0000
232   -708.1291826377  -0.000003059676 0.00035404  0.00000672  0.0079612 0.0000
233   -708.1291856840  -0.000003046363 0.00035649  0.00000678  0.0079573 0.0000
234   -708.1291887190  -0.000003034970 0.00035924  0.00000684  0.0079531 0.0000
235   -708.1291917447  -0.000003025717 0.00036236  0.00000691  0.0079487 0.0000
236   -708.1291947636  -0.000003018890 0.00036590  0.00000698  0.0079440 0.0000
237   -708.1291977785  -0.000003014839 0.00036993  0.00000707  0.0079391 0.0000
238   -708.1292007925  -0.000003013997 0.00037455  0.00000717  0.0079339 0.0000
239   -708.1292038094  -0.000003016915 0.00037988  0.00000729  0.0079283 0.0000
240   -708.1292068337  -0.000003024296 0.00038606  0.00000742  0.0079225 0.0000
241   -708.1292098707  -0.000003037042 0.00039329  0.00000757  0.0079162 0.0000
242   -708.1292129270  -0.000003056330 0.00040185  0.00000775  0.0079096 0.0000
243   -708.1292160108  -0.000003083721 0.00041207  0.00000796  0.0079026 0.0000
244   -708.1292191321  -0.000003121330 0.00042445  0.00000822  0.0078950 0.0000
245   -708.1292223042  -0.000003172068 0.00043968  0.00000854  0.0078870 0.0000
246   -708.1292255442  -0.000003240040 0.00045879  0.00000893  0.0078783 0.0000
247   -708.1292288754  -0.000003331219 0.00048329  0.00000943  0.0078688 0.0000
248   -708.1292323300  -0.000003454539 0.00051562  0.00001009  0.0078585 0.0000
249   -708.1292359539  -0.000003623931 0.00055975  0.00001099  0.0078469 0.0000
250   -708.1292398160  -0.000003862070 0.00062267  0.00001227  0.0078339 0.0000
251   -708.1292440239  -0.000004207969 0.00071752  0.00001420  0.0078187 0.0000
252   -708.1292487572  -0.000004733315 0.00087150  0.00001733  0.0078004 0.0000
253   -708.1292543383  -0.000005581039 0.00114799  0.00002297  0.0077770 0.0000
254   -708.1292614042  -0.000007065882 0.00172036  0.00003475  0.0077441 0.0000
255   -708.1292713684  -0.000009964194 0.00317457  0.00006519  0.0076909 0.0000
256   -708.1292876954  -0.000016327043 0.00800533  0.00017164  0.0075802 0.0000
257   -708.1293156278  -0.000027932373 0.03085792  0.00058794  0.0072245 0.0000
258   -708.1292308819   0.000084745859 0.02005541  0.00033873  0.0053381 0.0000
259   -708.1290542420   0.000176639906 0.01085228  0.00018076  0.0037610 0.0000
260   -708.1289383319   0.000115910144 0.01140608  0.00019049  0.0027240 0.0000
261   -708.1288023611   0.000135970717 0.00501988  0.00009072  0.0015297 0.0000
262   -708.1287494018   0.000052959383 0.00193197  0.00003976  0.0012662 0.0000
263   -708.1287332647   0.000016137041 0.00100279  0.00002059  0.0012786 0.0000
264   -708.1287403363  -0.000007071578 0.00075548  0.00001541  0.0012932 0.0000
265   -708.1287481775  -0.000007841179 0.00065010  0.00001417  0.0013029 0.0000
266   -708.1287529985  -0.000004821028 0.00138859  0.00002977  0.0013117 0.0000
267   -708.1287710584  -0.000018059867 0.00095587  0.00002198  0.0013317 0.0000
268   -708.1287906900  -0.000019631601 0.00082678  0.00002084  0.0013458 0.0000
269   -708.1288115042  -0.000020814232 0.00093953  0.00002511  0.0013582 0.0000
270   -708.1288372394  -0.000025735201 0.00132188  0.00003651  0.0013721 0.0000
271   -708.1288743614  -0.000037121952 0.00199551  0.00005698  0.0013909 0.0000
272   -708.1289306415  -0.000056280190 0.00250542  0.00007102  0.0014169 0.0000
273   -708.1289976175  -0.000066975985 0.00216274  0.00005175  0.0014431 0.0000
274   -708.1290445357  -0.000046918205 0.00080770  0.00001458  0.0014555 0.0000
275   -708.1290573389  -0.000012803202 0.00031995  0.00000864  0.0014538 0.0000
276   -708.1290524712   0.000004867783 0.00011194  0.00000313  0.0014477 0.0000
277   -708.1290551014  -0.000002630217 0.00025839  0.00000646  0.0014487 0.0000
278   -708.1290606634  -0.000005562020 0.00039370  0.00000718  0.0014502 0.0000
279   -708.1290667555  -0.000006092083 0.00032538  0.00000603  0.0014473 0.0000
280   -708.1290718077  -0.000005052210 0.00013666  0.00000265  0.0014446 0.0000
281   -708.1290737291  -0.000001921461 0.00012122  0.00000241  0.0014424 0.0000
282   -708.1290758187  -0.000002089514 0.00019954  0.00000403  0.0014414 0.0000
283   -708.1290793628  -0.000003544133 0.00025559  0.00000507  0.0014401 0.0000
284   -708.1290837318  -0.000004369008 0.00020210  0.00000405  0.0014380 0.0000
285   -708.1290871913  -0.000003459447 0.00013925  0.00000285  0.0014361 0.0000
286   -708.1290896121  -0.000002420809 0.00014606  0.00000305  0.0014346 0.0000
287   -708.1290922286  -0.000002616578 0.00017784  0.00000374  0.0014332 0.0000
288   -708.1290954408  -0.000003212139 0.00018518  0.00000391  0.0014315 0.0000
289   -708.1290987855  -0.000003344747 0.00015435  0.00000330  0.0014297 0.0000
290   -708.1291015955  -0.000002810001 0.00013803  0.00000299  0.0014281 0.0000
291   -708.1291041379  -0.000002542368 0.00014720  0.00000321  0.0014267 0.0000
292   -708.1291068717  -0.000002733853 0.00015586  0.00000342  0.0014251 0.0000
293   -708.1291097786  -0.000002906903 0.00014991  0.00000331  0.0014235 0.0000
294   -708.1291125854  -0.000002806740 0.00013663  0.00000305  0.0014220 0.0000
295   -708.1291151591  -0.000002573760 0.00013496  0.00000303  0.0014205 0.0000
296   -708.1291177152  -0.000002556095 0.00013920  0.00000315  0.0014190 0.0000
297   -708.1291203606  -0.000002645360 0.00013869  0.00000315  0.0014175 0.0000
298   -708.1291230030  -0.000002642363 0.00013313  0.00000304  0.0014160 0.0000
299   -708.1291255464  -0.000002543388 0.00012895  0.00000296  0.0014146 0.0000
300   -708.1291280171  -0.000002470743 0.00012970  0.00000299  0.0014132 0.0000
301   -708.1291305075  -0.000002490356 0.00013008  0.00000301  0.0014117 0.0000
302   -708.1291330081  -0.000002500628 0.00012770  0.00000297  0.0014103 0.0000
303   -708.1291354654  -0.000002457367 0.00012486  0.00000292  0.0014089 0.0000
304   -708.1291378705  -0.000002405087 0.00012384  0.00000290  0.0014075 0.0000
305   -708.1291402575  -0.000002386950 0.00012394  0.00000291  0.0014061 0.0000
306   -708.1291426465  -0.000002389055 0.00012288  0.00000290  0.0014047 0.0000
307   -708.1291450147  -0.000002368209 0.00012111  0.00000286  0.0014033 0.0000
308   -708.1291473479  -0.000002333122 0.00011994  0.00000284  0.0014020 0.0000
309   -708.1291496572  -0.000002309281 0.00011952  0.00000284  0.0014007 0.0000
310   -708.1291519563  -0.000002299101 0.00011898  0.00000283  0.0013993 0.0000
311   -708.1291542424  -0.000002286139 0.00011790  0.00000281  0.0013980 0.0000
312   -708.1291565045  -0.000002262135 0.00011691  0.00000279  0.0013967 0.0000
313   -708.1291587443  -0.000002239791 0.00011634  0.00000278  0.0013954 0.0000
314   -708.1291609694  -0.000002225065 0.00011588  0.00000277  0.0013941 0.0000
315   -708.1291631814  -0.000002212018 0.00011522  0.00000276  0.0013928 0.0000
316   -708.1291653761  -0.000002194715 0.00011446  0.00000274  0.0013915 0.0000
317   -708.1291675515  -0.000002175355 0.00011389  0.00000273  0.0013903 0.0000
318   -708.1291697110  -0.000002159544 0.00011347  0.00000272  0.0013890 0.0000
319   -708.1291718570  -0.000002145987 0.00011299  0.00000271  0.0013878 0.0000
320   -708.1291739882  -0.000002131212 0.00011244  0.00000270  0.0013865 0.0000
321   -708.1291761031  -0.000002114930 0.00011194  0.00000269  0.0013853 0.0000
322   -708.1291782026  -0.000002099470 0.00011154  0.00000268  0.0013841 0.0000
323   -708.1291802884  -0.000002085790 0.00011116  0.00000267  0.0013829 0.0000
324   -708.1291823605  -0.000002072136 0.00011074  0.00000266  0.0013817 0.0000
325   -708.1291844183  -0.000002057725 0.00011033  0.00000265  0.0013892 0.0000
326   -708.1291864616  -0.000002043374 0.00010998  0.00000265  0.0014035 0.0000
327   -708.1291884915  -0.000002029884 0.00010965  0.00000264  0.0014177 0.0000
328   -708.1291905084  -0.000002016876 0.00010932  0.00000263  0.0014318 0.0000
329   -708.1291925120  -0.000002003612 0.00010899  0.00000262  0.0014458 0.0000
330   -708.1291945023  -0.000001990273 0.00010868  0.00000261  0.0014597 0.0000
331   -708.1291964796  -0.000001977314 0.00010839  0.00000261  0.0014736 0.0000
332   -708.1291984444  -0.000001964758 0.00010811  0.00000260  0.0014873 0.0000
333   -708.1292003966  -0.000001952267 0.00010784  0.00000259  0.0015009 0.0000
334   -708.1292023363  -0.000001939726 0.00010757  0.00000258  0.0015145 0.0000
335   -708.1292042637  -0.000001927359 0.00010732  0.00000257  0.0015279 0.0000
336   -708.1292061790  -0.000001915263 0.00010708  0.00000257  0.0015413 0.0000
337   -708.1292080823  -0.000001903318 0.00010685  0.00000256  0.0015546 0.0000
338   -708.1292099737  -0.000001891411 0.00010662  0.00000255  0.0015678 0.0000
339   -708.1292118533  -0.000001879592 0.00010640  0.00000255  0.0015810 0.0000
340   -708.1292137212  -0.000001867949 0.00010619  0.00000254  0.0015940 0.0000
341   -708.1292155777  -0.000001856459 0.00010598  0.00000253  0.0016070 0.0000
342   -708.1292174227  -0.000001845046 0.00010578  0.00000253  0.0016199 0.0000
343   -708.1292192565  -0.000001833714 0.00010558  0.00000252  0.0016328 0.0000
344   -708.1292210790  -0.000001822498 0.00010540  0.00000251  0.0016455 0.0000
345   -708.1292228904  -0.000001811407 0.00010521  0.00000251  0.0016582 0.0000
346   -708.1292246908  -0.000001800412 0.00010503  0.00000250  0.0016709 0.0000
347   -708.1292264803  -0.000001789497 0.00010486  0.00000249  0.0016834 0.0000
348   -708.1292282589  -0.000001778670 0.00010469  0.00000249  0.0016960 0.0000
349   -708.1292300269  -0.000001767947 0.00010452  0.00000248  0.0017084 0.0000
350   -708.1292317842  -0.000001757315 0.00010436  0.00000248  0.0017208 0.0000
351   -708.1292335310  -0.000001746761 0.00010420  0.00000247  0.0017331 0.0000
352   -708.1292352673  -0.000001736287 0.00010405  0.00000246  0.0017453 0.0000
353   -708.1292369932  -0.000001725899 0.00010390  0.00000246  0.0017575 0.0000
354   -708.1292387087  -0.000001715591 0.00010375  0.00000245  0.0017697 0.0000
355   -708.1292404141  -0.000001705363 0.00010361  0.00000245  0.0017817 0.0000
356   -708.1292421093  -0.000001695204 0.00010346  0.00000244  0.0017938 0.0000
357   -708.1292437944  -0.000001685120 0.00010332  0.00000244  0.0018057 0.0000
358   -708.1292454695  -0.000001675112 0.00010319  0.00000243  0.0018176 0.0000
359   -708.1292471347  -0.000001665174 0.00010305  0.00000243  0.0018295 0.0000
360   -708.1292487900  -0.000001655302 0.00010292  0.00000242  0.0018413 0.0000
361   -708.1292504355  -0.000001645501 0.00010279  0.00000241  0.0018530 0.0000
362   -708.1292520713  -0.000001635763 0.00010266  0.00000241  0.0018647 0.0000
363   -708.1292536974  -0.000001626094 0.00010253  0.00000240  0.0018764 0.0000
364   -708.1292553139  -0.000001616488 0.00010241  0.00000240  0.0018880 0.0000
365   -708.1292569208  -0.000001606941 0.00010228  0.00000239  0.0018995 0.0000
366   -708.1292585183  -0.000001597459 0.00010216  0.00000239  0.0019110 0.0000
367   -708.1292601063  -0.000001588037 0.00010204  0.00000238  0.0019225 0.0000
368   -708.1292616850  -0.000001578672 0.00010192  0.00000238  0.0019339 0.0000
369   -708.1292632543  -0.000001569366 0.00010180  0.00000237  0.0019452 0.0000
370   -708.1292648145  -0.000001560118 0.00010169  0.00000237  0.0019565 0.0000
371   -708.1292663654  -0.000001550926 0.00010157  0.00000236  0.0019678 0.0000
372   -708.1292679072  -0.000001541790 0.00010146  0.00000236  0.0019790 0.0000
373   -708.1292694399  -0.000001532708 0.00010134  0.00000235  0.0019902 0.0000
374   -708.1292709636  -0.000001523677 0.00010123  0.00000235  0.0020013 0.0000
375   -708.1292724783  -0.000001514702 0.00010112  0.00000234  0.0020124 0.0000
376   -708.1292739840  -0.000001505777 0.00010101  0.00000234  0.0020234 0.0000
377   -708.1292754809  -0.000001496904 0.00010090  0.00000233  0.0020344 0.0000
378   -708.1292769690  -0.000001488081 0.00010079  0.00000233  0.0020454 0.0000
379   -708.1292784483  -0.000001479309 0.00010068  0.00000232  0.0020563 0.0000
380   -708.1292799189  -0.000001470582 0.00010057  0.00000232  0.0020672 0.0000
381   -708.1292813808  -0.000001461909 0.00010047  0.00000231  0.0020780 0.0000
382   -708.1292828341  -0.000001453278 0.00010036  0.00000231  0.0020888 0.0000
383   -708.1292842788  -0.000001444697 0.00010026  0.00000230  0.0020996 0.0000
384   -708.1292857150  -0.000001436163 0.00010015  0.00000230  0.0021103 0.0000
385   -708.1292871426  -0.000001427672 0.00010005  0.00000230  0.0021210 0.0000
386   -708.1292885619  -0.000001419229 0.00009994  0.00000229  0.0021316 0.0000
387   -708.1292899727  -0.000001410829 0.00009984  0.00000229  0.0021422 0.0000
388   -708.1292913752  -0.000001402473 0.00009973  0.00000228  0.0021527 0.0000
389   -708.1292927693  -0.000001394160 0.00009963  0.00000228  0.0021633 0.0000
390   -708.1292941552  -0.000001385892 0.00009953  0.00000227  0.0021737 0.0000
391   -708.1292955329  -0.000001377665 0.00009943  0.00000227  0.0021842 0.0000
392   -708.1292969024  -0.000001369479 0.00009932  0.00000226  0.0021946 0.0000
393   -708.1292982637  -0.000001361337 0.00009922  0.00000226  0.0022050 0.0000
394   -708.1292996169  -0.000001353234 0.00009912  0.00000225  0.0022153 0.0000
395   -708.1293009621  -0.000001345173 0.00009902  0.00000225  0.0022256 0.0000
396   -708.1293022993  -0.000001337152 0.00009892  0.00000225  0.0022358 0.0000
397   -708.1293036284  -0.000001329170 0.00009882  0.00000224  0.0022461 0.0000
398   -708.1293049497  -0.000001321227 0.00009872  0.00000224  0.0022563 0.0000
399   -708.1293062630  -0.000001313324 0.00009861  0.00000223  0.0022664 0.0000
400   -708.1293075684  -0.000001305459 0.00009851  0.00000223  0.0022765 0.0000
401   -708.1293088661  -0.000001297632 0.00009841  0.00000222  0.0022866 0.0000
402   -708.1293101559  -0.000001289841 0.00009831  0.00000222  0.0022967 0.0000
403   -708.1293114380  -0.000001282092 0.00009821  0.00000221  0.0023067 0.0000
404   -708.1293127124  -0.000001274376 0.00009811  0.00000221  0.0023166 0.0000
405   -708.1293139791  -0.000001266698 0.00009801  0.00000221  0.0023266 0.0000
406   -708.1293152381  -0.000001259057 0.00009791  0.00000220  0.0023365 0.0000
407   -708.1293164896  -0.000001251452 0.00009781  0.00000220  0.0023464 0.0000
408   -708.1293177335  -0.000001243882 0.00009771  0.00000219  0.0023562 0.0000
409   -708.1293189698  -0.000001236347 0.00009761  0.00000219  0.0023660 0.0000
410   -708.1293201987  -0.000001228847 0.00009751  0.00000218  0.0023758 0.0000
411   -708.1293214200  -0.000001221382 0.00009740  0.00000218  0.0023856 0.0000
412   -708.1293226340  -0.000001213954 0.00009730  0.00000217  0.0023953 0.0000
413   -708.1293238406  -0.000001206556 0.00009720  0.00000217  0.0024050 0.0000
414   -708.1293250397  -0.000001199193 0.00009710  0.00000217  0.0024146 0.0000
415   -708.1293262316  -0.000001191867 0.00009700  0.00000216  0.0024242 0.0000
416   -708.1293274162  -0.000001184572 0.00009690  0.00000216  0.0024338 0.0000
417   -708.1293285935  -0.000001177308 0.00009680  0.00000215  0.0024434 0.0000
418   -708.1293297636  -0.000001170080 0.00009669  0.00000215  0.0024529 0.0000
419   -708.1293309265  -0.000001162884 0.00009659  0.00000214  0.0024624 0.0000
420   -708.1293320822  -0.000001155719 0.00009649  0.00000214  0.0024718 0.0000
421   -708.1293332308  -0.000001148588 0.00009639  0.00000214  0.0024812 0.0000
422   -708.1293343723  -0.000001141489 0.00009628  0.00000213  0.0024906 0.0000
423   -708.1293355067  -0.000001134419 0.00009618  0.00000213  0.0025000 0.0000
424   -708.1293366341  -0.000001127383 0.00009608  0.00000212  0.0025093 0.0000
425   -708.1293377544  -0.000001120378 0.00009597  0.00000212  0.0025186 0.0000
426   -708.1293388678  -0.000001113403 0.00009587  0.00000211  0.0025279 0.0000
427   -708.1293399743  -0.000001106460 0.00009576  0.00000211  0.0025371 0.0000
428   -708.1293410738  -0.000001099548 0.00009566  0.00000211  0.0025463 0.0000
429   -708.1293421665  -0.000001092666 0.00009556  0.00000210  0.0025555 0.0000
430   -708.1293432523  -0.000001085812 0.00009545  0.00000210  0.0025646 0.0000
431   -708.1293443313  -0.000001078992 0.00009534  0.00000209  0.0025738 0.0000
432   -708.1293454035  -0.000001072199 0.00009524  0.00000209  0.0025828 0.0000
433   -708.1293464689  -0.000001065437 0.00009513  0.00000209  0.0025919 0.0000
434   -708.1293475277  -0.000001058703 0.00009503  0.00000208  0.0026009 0.0000
435   -708.1293485797  -0.000001052002 0.00009492  0.00000208  0.0026099 0.0000
436   -708.1293496250  -0.000001045326 0.00009481  0.00000207  0.0026189 0.0000
437   -708.1293506637  -0.000001038683 0.00009471  0.00000207  0.0026278 0.0000
438   -708.1293516957  -0.000001032066 0.00009460  0.00000206  0.0026367 0.0000
439   -708.1293527212  -0.000001025481 0.00009449  0.00000206  0.0026456 0.0000
440   -708.1293537401  -0.000001018920 0.00009438  0.00000206  0.0026544 0.0000
441   -708.1293547525  -0.000001012392 0.00009427  0.00000205  0.0026632 0.0000
442   -708.1293557584  -0.000001005892 0.00009416  0.00000205  0.0026720 0.0000
                 **** Energy Check signals convergence ****

               *****************************************************
               *                     SUCCESS                       *
               *           SCF CONVERGED AFTER 443 CYCLES          *
               *****************************************************


----------------
TOTAL SCF ENERGY
----------------

Total Energy       :         -708.12935676 Eh          -19269.17942 eV

Components:
Nuclear Repulsion  :            0.00000000 Eh               0.00000 eV
Electronic Energy  :         -708.12935676 Eh          -19269.17942 eV
One Electron Energy:        -1255.91730517 Eh          -34175.24731 eV
Two Electron Energy:          547.78794841 Eh           14906.06789 eV

Virial components:
Potential Energy   :        -1060.55661242 Eh          -28859.21260 eV
Kinetic Energy     :          352.42725566 Eh            9590.03317 eV
Virial Ratio       :            3.00929226


---------------
SCF CONVERGENCE
---------------

  Last Energy change         ...   -9.9942e-07  Tolerance :   1.0000e-06
  Last MAX-Density change    ...    9.4053e-05  Tolerance :   1.0000e-05
  Last RMS-Density change    ...    2.0432e-06  Tolerance :   1.0000e-06
  Last DIIS Error            ...    2.6808e-03  Tolerance :   1.0000e-06

             **** THE GBW FILE WAS UPDATED (63_Eu_atom63.gbw) ****
             **** DENSITY FILE WAS UPDATED (63_Eu_atom63.scfp) ****
             **** ENERGY FILE WAS UPDATED (63_Eu_atom63.en.tmp) ****
             **** THE GBW FILE WAS UPDATED (63_Eu_atom63.gbw) ****
             **** DENSITY FILE WAS UPDATED (63_Eu_atom63.scfp) ****
----------------
ORBITAL ENERGIES
----------------

  NO   OCC          E(Eh)            E(eV) 
   0   2.0000     -14.523231      -395.1972 
   1   2.0000     -10.484516      -285.2982 
   2   2.0000     -10.482620      -285.2466 
   3   2.0000     -10.479786      -285.1695 
   4   2.0000      -5.513708      -150.0356 
   5   2.0000      -5.511974      -149.9884 
   6   2.0000      -5.511881      -149.9859 
   7   2.0000      -5.511023      -149.9626 
   8   2.0000      -5.508450      -149.8925 
   9   2.0000      -1.946304       -52.9616 
  10   2.0000      -1.019734       -27.7484 
  11   2.0000      -1.015244       -27.6262 
  12   2.0000      -1.014097       -27.5950 
  13   2.0000      -0.355837        -9.6828 
  14   1.0000      -0.464736       -12.6461 
  15   1.0000      -0.458285       -12.4706 
  16   1.0000      -0.455453       -12.3935 
  17   1.0000      -0.446226       -12.1424 
  18   1.0000      -0.444630       -12.0990 
  19   1.0000      -0.175047        -4.7633 
  20   1.0000      -0.140241        -3.8161 
  21   0.0000       0.026126         0.7109 
  22   0.0000       0.026966         0.7338 
  23   0.0000       0.027300         0.7429 
  24   0.0000       0.048576         1.3218 
  25   0.0000       0.113310         3.0833 
  26   0.0000       0.115718         3.1489 
  27   0.0000       0.118127         3.2144 
  28   0.0000       0.129174         3.5150 
  29   0.0000       0.191752         5.2178 
  30   0.0000       0.191836         5.2201 
  31   0.0000       0.191796         5.2190 
  32   0.0000       0.288057         7.8384 
  33   0.0000       0.336462         9.1556 
  34   0.0000       0.379219        10.3191 
  35   0.0000       0.380558        10.3555 
  36   0.0000       0.380457        10.3528 
  37   0.0000       0.389797        10.6069 
  38   0.0000       0.491953        13.3867 
  39   0.0000       0.585745        15.9389 
  40   0.0000       0.584210        15.8972 
  41   0.0000       0.578134        15.7318 
  42   0.0000       0.589023        16.0281 
  43   0.0000       0.578000        15.7282 
  44   0.0000       0.579367        15.7654 
  45   0.0000       0.686536        18.6816 
  46   0.0000       0.772338        21.0164 
  47   0.0000       0.778076        21.1725 
  48   0.0000       0.779194        21.2030 
  49   0.0000       1.449112        39.4324 
  50   0.0000       1.448333        39.4111 
  51   0.0000       1.448237        39.4085 
  52   0.0000       1.434627        39.0382 
  53   0.0000       1.455281        39.6002 
  54   0.0000       1.625174        44.2232 
  55   0.0000       1.620987        44.1093 
  56   0.0000       1.623266        44.1713 
  57   0.0000       1.618866        44.0516 
  58   0.0000       1.620747        44.1028 
  59   0.0000       1.621448        44.1219 
  60   0.0000       1.703415        46.3523 
  61   0.0000       1.700101        46.2621 
  62   0.0000       2.660508        72.3961 
  63   0.0000       2.667242        72.5793 
  64   0.0000       2.667641        72.5902 
  65   0.0000       3.852030       104.8191 
  66   0.0000       3.841563       104.5343 
  67   0.0000       3.842592       104.5622 
  68   0.0000       3.845526       104.6421 
  69   0.0000       3.848551       104.7244 
  70   0.0000       3.848641       104.7269 
  71   0.0000       3.925002       106.8047 
  72   0.0000       5.222795       142.1195 
  73   0.0000       5.220101       142.0462 
  74   0.0000       5.213986       141.8798 
  75   0.0000       5.218816       142.0112 
  76   0.0000       5.208597       141.7331 
  77   0.0000       7.402571       201.4342 
  78   0.0000       8.565058       233.0671 
  79   0.0000       8.548032       232.6038 
  80   0.0000       8.548389       232.6135 
  81   0.0000       8.553369       232.7490 
  82   0.0000       8.554967       232.7925 
  83   0.0000       8.555408       232.8045 
  84   0.0000       8.634233       234.9494 
  85   0.0000       8.976469       244.2621 
  86   0.0000       8.980978       244.3848 
  87   0.0000       8.966315       243.9858 
  88   0.0000       9.220482       250.9021 
  89   0.0000      15.988492       435.0690 
  90   0.0000      15.990470       435.1228 
  91   0.0000      15.961380       434.3312 
  92   0.0000      15.970768       434.5867 
  93   0.0000      15.963568       434.3908 
  94   0.0000      42.777651      1164.0390 
  95   0.0000      42.778919      1164.0736 
  96   0.0000      42.760558      1163.5739 
  97   0.0000      63.377037      1724.5768 
  98   0.0000     219.661603      5977.2961 
  99   0.0000     521.320679     14185.8569 
CleanUpVectors: The p-vectors have cracked symmetry
CleanUpVectors: The p-vectors have cracked symmetry
CleanUpVectors: The p-vectors have cracked symmetry
CleanUpVectors: The d-vectors have cracked symmetry at i=4
CleanUpVectors: The d-vectors have cracked symmetry at i=5
CleanUpVectors: The d-vectors have cracked symmetry at i=6
CleanUpVectors: The d-vectors have cracked symmetry at i=7
CleanUpVectors: The d-vectors have cracked symmetry at i=8
CleanUpVectors: The p-vectors have cracked symmetry
CleanUpVectors: The p-vectors have cracked symmetry
CleanUpVectors: The p-vectors have cracked symmetry
CleanUpVectors: The f-vectors have cracked symmetry
CleanUpVectors: The d-vectors have cracked symmetry at i=15
CleanUpVectors: The f-vectors have cracked symmetry
CleanUpVectors: The f-vectors have cracked symmetry
CleanUpVectors: The f-vectors have cracked symmetry
CleanUpVectors: The f-vectors have cracked symmetry
CleanUpVectors: The f-vectors have cracked symmetry
CleanUpVectors: The p-vectors have cracked symmetry
CleanUpVectors: The p-vectors have cracked symmetry
CleanUpVectors: The p-vectors have cracked symmetry
CleanUpVectors: The d-vectors have cracked symmetry at i=25
CleanUpVectors: The d-vectors have cracked symmetry at i=26
CleanUpVectors: The d-vectors have cracked symmetry at i=27
CleanUpVectors: The d-vectors have cracked symmetry at i=28
CleanUpVectors: The p-vectors have cracked symmetry
CleanUpVectors: The p-vectors have cracked symmetry
CleanUpVectors: The p-vectors have cracked symmetry
CleanUpVectors: The d-vectors have cracked symmetry at i=33
CleanUpVectors: The d-vectors have cracked symmetry at i=34
CleanUpVectors: The d-vectors have cracked symmetry at i=35
CleanUpVectors: The d-vectors have cracked symmetry at i=36
CleanUpVectors: The d-vectors have cracked symmetry at i=37
CleanUpVectors: The f-vectors have cracked symmetry
CleanUpVectors: The f-vectors have cracked symmetry
CleanUpVectors: The f-vectors have cracked symmetry
CleanUpVectors: The f-vectors have cracked symmetry
CleanUpVectors: The f-vectors have cracked symmetry
CleanUpVectors: The f-vectors have cracked symmetry
CleanUpVectors: The f-vectors have cracked symmetry
CleanUpVectors: The f-vectors have cracked symmetry
CleanUpVectors: The p-vectors have cracked symmetry
CleanUpVectors: The p-vectors have cracked symmetry
CleanUpVectors: The p-vectors have cracked symmetry
CleanUpVectors: The d-vectors have cracked symmetry at i=49
CleanUpVectors: The d-vectors have cracked symmetry at i=50
CleanUpVectors: The d-vectors have cracked symmetry at i=51
CleanUpVectors: The d-vectors have cracked symmetry at i=52
CleanUpVectors: The d-vectors have cracked symmetry at i=53
CleanUpVectors: The f-vectors have cracked symmetry
CleanUpVectors: The f-vectors have cracked symmetry
CleanUpVectors: The f-vectors have cracked symmetry
CleanUpVectors: The f-vectors have cracked symmetry
CleanUpVectors: The f-vectors have cracked symmetry
CleanUpVectors: The f-vectors have cracked symmetry
CleanUpVectors: The f-vectors have cracked symmetry
CleanUpVectors: The p-vectors have cracked symmetry
CleanUpVectors: The p-vectors have cracked symmetry
CleanUpVectors: The p-vectors have cracked symmetry
CleanUpVectors: The f-vectors have cracked symmetry
CleanUpVectors: The f-vectors have cracked symmetry
CleanUpVectors: The f-vectors have cracked symmetry
CleanUpVectors: The f-vectors have cracked symmetry
CleanUpVectors: The f-vectors have cracked symmetry
CleanUpVectors: The f-vectors have cracked symmetry
CleanUpVectors: The f-vectors have cracked symmetry
CleanUpVectors: The d-vectors have cracked symmetry at i=72
CleanUpVectors: The d-vectors have cracked symmetry at i=73
CleanUpVectors: The d-vectors have cracked symmetry at i=74
CleanUpVectors: The d-vectors have cracked symmetry at i=75
CleanUpVectors: The d-vectors have cracked symmetry at i=76
CleanUpVectors: The f-vectors have cracked symmetry
CleanUpVectors: The f-vectors have cracked symmetry
CleanUpVectors: The f-vectors have cracked symmetry
CleanUpVectors: The f-vectors have cracked symmetry
CleanUpVectors: The f-vectors have cracked symmetry
CleanUpVectors: The f-vectors have cracked symmetry
CleanUpVectors: The f-vectors have cracked symmetry
CleanUpVectors: The p-vectors have cracked symmetry
CleanUpVectors: The p-vectors have cracked symmetry
CleanUpVectors: The p-vectors have cracked symmetry
CleanUpVectors: The d-vectors have cracked symmetry at i=89
CleanUpVectors: The d-vectors have cracked symmetry at i=90
CleanUpVectors: The d-vectors have cracked symmetry at i=91
CleanUpVectors: The d-vectors have cracked symmetry at i=92
CleanUpVectors: The d-vectors have cracked symmetry at i=93
CleanUpVectors: The p-vectors have cracked symmetry
CleanUpVectors: The p-vectors have cracked symmetry
CleanUpVectors: The p-vectors have cracked symmetry
--------------------------
ATOM BASIS FOR ELEMENT Eu
--------------------------
 NewGTO Eu
 S 16
    1     171703.526970000006        -0.000031897350
    2      25966.105556999999        -0.000246067899
    3       5930.249762800000        -0.001216617255
    4       1719.568854400000        -0.004347280002
    5        565.003991300000        -0.010978707697
    6        191.291773710000        -0.015176956975
    7         43.504035703000         0.127608689236
    8         29.057542821000        -0.554877391785
    9         15.074759069000         1.042190920334
   10          3.790297283900        -0.965043322148
   11          1.953509985300        -0.419620957894
   12          0.771156225200        -0.021601793100
   13          0.344864104100         0.001916438050
   14          0.077328979900        -0.000795119826
   15          0.037255496100         0.000521186561
   16          0.015015257700        -0.000153185527
 P 55
    1       3785.762208000000        -0.000046778808
    2       1043.223889100000        -0.000326626654
    3        359.669939320000        -0.001409163766
    4        130.236900260000        -0.005369840565
    5         34.669966058000        -0.022698582954
    6         28.890692197000        -0.024134732743
    7         13.798614535000         0.302168220344
    8          7.540923625700        -0.281280827526
    9          3.768803806900        -0.636007812218
   10       3785.762208000000         0.000005422509
   11       1043.223889100000         0.000037861929
   12        359.669939320000         0.000163347536
   13        130.236900260000         0.000622461524
   14         34.669966058000         0.002631175800
   15         28.890692197000         0.002797651503
   16         13.798614535000        -0.035026755210
   17          7.540923625700         0.032605529066
   18          3.768803806900         0.073724794504
   19       3785.762208000000         0.000005437227
   20       1043.223889100000         0.000037964698
   21        359.669939320000         0.000163790908
   22        130.236900260000         0.000624151064
   23         34.669966058000         0.002638317567
   24         28.890692197000         0.002805245133
   25         13.798614535000        -0.035121827890
   26          7.540923625700         0.032694029842
   27          3.768803806900         0.073924904784
   28         28.234617606000        -0.000135466740
   29         12.907975318000         0.000617607278
   30          7.532860418500         0.000079134150
   31         28.234617606000         0.000015136410
   32         12.907975318000        -0.000069008502
   33          7.532860418500        -0.000008842074
   34         28.234617606000         0.000015530497
   35         12.907975318000        -0.000070805189
   36          7.532860418500        -0.000009072284
   37          1.897253533900        -0.283506442035
   38          1.897253533900         0.032840978380
   39          1.897253533900         0.032945057890
   40          0.881520661200        -0.028462302386
   41          0.881520661200         0.003263849707
   42          0.881520661200         0.003296126623
   43          0.409878474100         0.000539933630
   44          0.409878474100        -0.000054735663
   45          0.409878474100        -0.000062254652
   46          0.180769938600        -0.000602768958
   47          0.180769938600         0.000064925771
   48          0.180769938600         0.000070725298
   49          0.067000000000         0.000228522667
   50          0.067000000000        -0.000027436316
   51          0.067000000000        -0.000023253091
   52          0.030000000000        -0.000078036466
   53          0.030000000000         0.000008388507
   54          0.030000000000         0.000008961696
   55        158.747024990000        -0.003128571666
 D 55
    1     171703.526970000006        -0.000000000000
    2      25966.105556999999        -0.000000000003
    3       5930.249762800000        -0.000000000068
    4       1719.568854400000        -0.000000000832
    5        565.003991300000        -0.000000006395
    6        191.291773710000        -0.000000026110
    7         43.504035703000         0.000000566248
    8         29.057542821000        -0.000003958468
    9         15.074759069000         0.000015126286
   10          3.790297283900        -0.000069461790
   11          1.953509985300        -0.000103850399
   12          0.771156225200         0.000427620886
   13          0.344864104100         0.000102033445
   14          0.077328979900        -0.000232020994
   15          0.037255496100        -0.000406416819
   16          0.015015257700        -0.000325500083
   17        599.474323830000         0.000186293450
   18        202.269973540000         0.001404919149
   19         80.126285434000         0.006674280928
   20         35.424187234000         0.020489282843
   21          9.485300782000         0.111654142727
   22          5.910720330800         0.326140071264
   23        599.474323830000        -0.000009354658
   24        202.269973540000        -0.000070547503
   25         80.126285434000        -0.000335146586
   26         35.424187234000        -0.001028861875
   27          9.485300782000        -0.005606672107
   28          5.910720330800        -0.016377004882
   29        599.474323830000        -0.000032328779
   30        202.269973540000        -0.000243805247
   31         80.126285434000        -0.001158233701
   32         35.424187234000        -0.003555645644
   33          9.485300782000        -0.019376108441
   34          5.910720330800        -0.056597321276
   35        599.474323830000        -0.000018308968
   36        202.269973540000        -0.000138075810
   37         80.126285434000        -0.000655950022
   38         35.424187234000        -0.002013691915
   39          9.485300782000        -0.010973397467
   40          5.910720330800        -0.032053128924
   41        599.474323830000        -0.000010579671
   42        202.269973540000        -0.000079785854
   43         80.126285434000        -0.000379034767
   44         35.424187234000        -0.001163593597
   45          9.485300782000        -0.006340878134
   46          5.910720330800        -0.018521609642
   47          3.149995111900         0.423838321543
   48          3.149995111900        -0.021284522260
   49          3.149995111900        -0.073565438319
   50          3.149995111900        -0.041586555127
   51          3.149995111900        -0.024091675970
   52          1.520828236200         0.215114534764
   53          1.520828236200        -0.010788768409
   54          1.520828236200        -0.037370952940
   55          1.520828236200        -0.020966419898
 S 16
    1     171703.526970000006        -0.000035965142
    2      25966.105556999999        -0.000277448346
    3       5930.249762800000        -0.001371769525
    4       1719.568854400000        -0.004901678155
    5        565.003991300000        -0.012378795862
    6        191.291773710000        -0.017112437764
    7         43.504035703000         0.041435240220
    8         29.057542821000        -0.236018031254
    9         15.074759069000         0.511265743650
   10          3.790297283900        -0.713015512152
   11          1.953509985300        -0.456956133430
   12          0.771156225200         0.668765536838
   13          0.344864104100         0.700815706281
   14          0.077328979900         0.061469048210
   15          0.037255496100        -0.026344856648
   16          0.015015257700         0.007722723980
 P 55
    1       3785.762208000000        -0.000025545392
    2       1043.223889100000        -0.000178367219
    3        359.669939320000        -0.000769528815
    4        130.236900260000        -0.002932410801
    5         34.669966058000        -0.012395446200
    6         28.890692197000        -0.013179711785
    7         13.798614535000         0.165010737731
    8          7.540923625700        -0.153604362520
    9          3.768803806900        -0.347316862699
   10       3785.762208000000         0.000001438484
   11       1043.223889100000         0.000010044021
   12        359.669939320000         0.000043332872
   13        130.236900260000         0.000165126735
   14         34.669966058000         0.000697998916
   15         28.890692197000         0.000742161629
   16         13.798614535000        -0.009291905608
   17          7.540923625700         0.008649602184
   18          3.768803806900         0.019557730295
   19       3785.762208000000         0.000002315455
   20       1043.223889100000         0.000016167346
   21        359.669939320000         0.000069750703
   22        130.236900260000         0.000265796046
   23         34.669966058000         0.001123533095
   24         28.890692197000         0.001194619551
   25         13.798614535000        -0.014956704418
   26          7.540923625700         0.013922821503
   27          3.768803806900         0.031481076482
   28         28.234617606000         0.007897810790
[...]
  BAS[ATNO][ 26].a[ 35] =       202.269973540000;     BAS[ATNO][ 26].d[ 35] =        -0.001295468498;
  BAS[ATNO][ 26].a[ 36] =        80.126285434000;     BAS[ATNO][ 26].d[ 36] =        -0.006154319050;
  BAS[ATNO][ 26].a[ 37] =        35.424187234000;     BAS[ATNO][ 26].d[ 37] =        -0.018893059057;
  BAS[ATNO][ 26].a[ 38] =         9.485300782000;     BAS[ATNO][ 26].d[ 38] =        -0.102955692918;
  BAS[ATNO][ 26].a[ 39] =         5.910720330800;     BAS[ATNO][ 26].d[ 39] =        -0.300732030225;
  BAS[ATNO][ 26].a[ 40] =       599.474323830000;     BAS[ATNO][ 26].d[ 40] =        -0.000073957460;
  BAS[ATNO][ 26].a[ 41] =       202.269973540000;     BAS[ATNO][ 26].d[ 41] =        -0.000557745058;
  BAS[ATNO][ 26].a[ 42] =        80.126285434000;     BAS[ATNO][ 26].d[ 42] =        -0.002649652264;
  BAS[ATNO][ 26].a[ 43] =        35.424187234000;     BAS[ATNO][ 26].d[ 43] =        -0.008134130892;
  BAS[ATNO][ 26].a[ 44] =         9.485300782000;     BAS[ATNO][ 26].d[ 44] =        -0.044326071272;
  BAS[ATNO][ 26].a[ 45] =         5.910720330800;     BAS[ATNO][ 26].d[ 45] =        -0.129475787378;
  BAS[ATNO][ 26].a[ 46] =         3.149995111900;     BAS[ATNO][ 26].d[ 46] =         3.206167807358;
  BAS[ATNO][ 26].a[ 47] =         3.149995111900;     BAS[ATNO][ 26].d[ 47] =        -0.815957681332;
  BAS[ATNO][ 26].a[ 48] =         3.149995111900;     BAS[ATNO][ 26].d[ 48] =         0.441795385707;
  BAS[ATNO][ 26].a[ 49] =         3.149995111900;     BAS[ATNO][ 26].d[ 49] =         0.698214087560;
  BAS[ATNO][ 26].a[ 50] =         3.149995111900;     BAS[ATNO][ 26].d[ 50] =         0.300668303320;
  BAS[ATNO][ 26].a[ 51] =         1.520828236200;     BAS[ATNO][ 26].d[ 51] =        -2.338747216537;
  BAS[ATNO][ 26].a[ 52] =         1.520828236200;     BAS[ATNO][ 26].d[ 52] =         0.595230639766;
  BAS[ATNO][ 26].a[ 53] =         1.520828236200;     BAS[ATNO][ 26].d[ 53] =        -0.322297003716;
  BAS[ATNO][ 26].a[ 54] =         1.520828236200;     BAS[ATNO][ 26].d[ 54] =        -0.509378003546;

  // Basis function  28 L = p
  InitBFNGauss(BAS[ATNO][ 27]);
  BAS[ATNO][ 27].l  = 1;
  BAS[ATNO][ 27].ng = 55;
  BAS[ATNO][ 27].a[  0] =      3785.762208000000;     BAS[ATNO][ 27].d[  0] =        -0.000177132507;
  BAS[ATNO][ 27].a[  1] =      1043.223889100000;     BAS[ATNO][ 27].d[  1] =        -0.001236803585;
  BAS[ATNO][ 27].a[  2] =       359.669939320000;     BAS[ATNO][ 27].d[  2] =        -0.005335935624;
  BAS[ATNO][ 27].a[  3] =       130.236900260000;     BAS[ATNO][ 27].d[  3] =        -0.020333423453;
  BAS[ATNO][ 27].a[  4] =        34.669966058000;     BAS[ATNO][ 27].d[  4] =        -0.085950391532;
  BAS[ATNO][ 27].a[  5] =        28.890692197000;     BAS[ATNO][ 27].d[  5] =        -0.091388512357;
  BAS[ATNO][ 27].a[  6] =        13.798614535000;     BAS[ATNO][ 27].d[  6] =         1.144189348729;
  BAS[ATNO][ 27].a[  7] =         7.540923625700;     BAS[ATNO][ 27].d[  7] =        -1.065097204765;
  BAS[ATNO][ 27].a[  8] =         3.768803806900;     BAS[ATNO][ 27].d[  8] =        -2.408305425439;
  BAS[ATNO][ 27].a[  9] =      3785.762208000000;     BAS[ATNO][ 27].d[  9] =         0.000020101840;
  BAS[ATNO][ 27].a[ 10] =      1043.223889100000;     BAS[ATNO][ 27].d[ 10] =         0.000140358361;
  BAS[ATNO][ 27].a[ 11] =       359.669939320000;     BAS[ATNO][ 27].d[ 11] =         0.000605547386;
  BAS[ATNO][ 27].a[ 12] =       130.236900260000;     BAS[ATNO][ 27].d[ 12] =         0.002307533729;
  BAS[ATNO][ 27].a[ 13] =        34.669966058000;     BAS[ATNO][ 27].d[ 13] =         0.009754059758;
  BAS[ATNO][ 27].a[ 14] =        28.890692197000;     BAS[ATNO][ 27].d[ 14] =         0.010371203608;
  BAS[ATNO][ 27].a[ 15] =        13.798614535000;     BAS[ATNO][ 27].d[ 15] =        -0.129848056341;
  BAS[ATNO][ 27].a[ 16] =         7.540923625700;     BAS[ATNO][ 27].d[ 16] =         0.120872303178;
  BAS[ATNO][ 27].a[ 17] =         3.768803806900;     BAS[ATNO][ 27].d[ 17] =         0.273305968908;
  BAS[ATNO][ 27].a[ 18] =      3785.762208000000;     BAS[ATNO][ 27].d[ 18] =         0.000020517436;
  BAS[ATNO][ 27].a[ 19] =      1043.223889100000;     BAS[ATNO][ 27].d[ 19] =         0.000143260199;
  BAS[ATNO][ 27].a[ 20] =       359.669939320000;     BAS[ATNO][ 27].d[ 20] =         0.000618066774;
  BAS[ATNO][ 27].a[ 21] =       130.236900260000;     BAS[ATNO][ 27].d[ 21] =         0.002355240828;
  BAS[ATNO][ 27].a[ 22] =        34.669966058000;     BAS[ATNO][ 27].d[ 22] =         0.009955720039;
  BAS[ATNO][ 27].a[ 23] =        28.890692197000;     BAS[ATNO][ 27].d[ 23] =         0.010585623027;
  BAS[ATNO][ 27].a[ 24] =        13.798614535000;     BAS[ATNO][ 27].d[ 24] =        -0.132532599610;
  BAS[ATNO][ 27].a[ 25] =         7.540923625700;     BAS[ATNO][ 27].d[ 25] =         0.123371277264;
  BAS[ATNO][ 27].a[ 26] =         3.768803806900;     BAS[ATNO][ 27].d[ 26] =         0.278956432380;
  BAS[ATNO][ 27].a[ 27] =        28.234617606000;     BAS[ATNO][ 27].d[ 27] =        -0.311048899015;
  BAS[ATNO][ 27].a[ 28] =        12.907975318000;     BAS[ATNO][ 27].d[ 28] =         1.418105022828;
  BAS[ATNO][ 27].a[ 29] =         7.532860418500;     BAS[ATNO][ 27].d[ 29] =         0.181702092784;
  BAS[ATNO][ 27].a[ 30] =        28.234617606000;     BAS[ATNO][ 27].d[ 30] =         0.035296976630;
  BAS[ATNO][ 27].a[ 31] =        12.907975318000;     BAS[ATNO][ 27].d[ 31] =        -0.160922671671;
  BAS[ATNO][ 27].a[ 32] =         7.532860418500;     BAS[ATNO][ 27].d[ 32] =        -0.020619055534;
  BAS[ATNO][ 27].a[ 33] =        28.234617606000;     BAS[ATNO][ 27].d[ 33] =         0.036028348760;
  BAS[ATNO][ 27].a[ 34] =        12.907975318000;     BAS[ATNO][ 27].d[ 34] =        -0.164257075023;
  BAS[ATNO][ 27].a[ 35] =         7.532860418500;     BAS[ATNO][ 27].d[ 35] =        -0.021046293332;
  BAS[ATNO][ 27].a[ 36] =         1.897253533900;     BAS[ATNO][ 27].d[ 36] =         3.206605936812;
  BAS[ATNO][ 27].a[ 37] =         1.897253533900;     BAS[ATNO][ 27].d[ 37] =        -0.363923554207;
  BAS[ATNO][ 27].a[ 38] =         1.897253533900;     BAS[ATNO][ 27].d[ 38] =        -0.371431559651;
  BAS[ATNO][ 27].a[ 39] =         0.881520661200;     BAS[ATNO][ 27].d[ 39] =        -2.344833207334;
  BAS[ATNO][ 27].a[ 40] =         0.881520661200;     BAS[ATNO][ 27].d[ 40] =         0.266134783163;
  BAS[ATNO][ 27].a[ 41] =         0.881520661200;     BAS[ATNO][ 27].d[ 41] =         0.271614478038;
  BAS[ATNO][ 27].a[ 42] =         0.409878474100;     BAS[ATNO][ 27].d[ 42] =         1.367077447683;
  BAS[ATNO][ 27].a[ 43] =         0.409878474100;     BAS[ATNO][ 27].d[ 43] =        -0.155163647473;
  BAS[ATNO][ 27].a[ 44] =         0.409878474100;     BAS[ATNO][ 27].d[ 44] =        -0.158356686396;
  BAS[ATNO][ 27].a[ 45] =         0.180769938600;     BAS[ATNO][ 27].d[ 45] =        -0.626338364513;
  BAS[ATNO][ 27].a[ 46] =         0.180769938600;     BAS[ATNO][ 27].d[ 46] =         0.071087456952;
  BAS[ATNO][ 27].a[ 47] =         0.180769938600;     BAS[ATNO][ 27].d[ 47] =         0.072551843619;
  BAS[ATNO][ 27].a[ 48] =         0.067000000000;     BAS[ATNO][ 27].d[ 48] =         0.258785164180;
  BAS[ATNO][ 27].a[ 49] =         0.067000000000;     BAS[ATNO][ 27].d[ 49] =        -0.029369499268;
  BAS[ATNO][ 27].a[ 50] =         0.067000000000;     BAS[ATNO][ 27].d[ 50] =        -0.029975760919;
  BAS[ATNO][ 27].a[ 51] =         0.030000000000;     BAS[ATNO][ 27].d[ 51] =        -0.092632644203;
  BAS[ATNO][ 27].a[ 52] =         0.030000000000;     BAS[ATNO][ 27].d[ 52] =         0.010512464293;
  BAS[ATNO][ 27].a[ 53] =         0.030000000000;     BAS[ATNO][ 27].d[ 53] =         0.010729756214;
  BAS[ATNO][ 27].a[ 54] =       158.747024990000;     BAS[ATNO][ 27].d[ 54] =         0.000000385544;

-------------------------------------------
RADIAL EXPECTATION VALUES <R**-3> TO <R**3>
-------------------------------------------
   0 :     0.000000     6.220508     1.905320     0.580504     0.366063     0.250296
   1 :    10.147065     3.789500     1.818505     0.613118     0.414970     0.308741
   2 :    10.150886     3.790449     1.818751     0.613014     0.414811     0.308559
   3 :    10.150029     3.790240     1.818697     0.613035     0.414838     0.308407
   4 :     9.029568     3.561626     1.737829     0.662796     0.499759     2.128489
   5 :     9.042025     3.565158     1.738770     0.662366     0.499062     2.123922
   6 :     9.033699     3.562810     1.738150     0.662644     0.499506     2.126775
   7 :     9.029622     3.561698     1.737866     0.662757     0.499671     2.127666
   8 :     9.030066     3.561877     1.737929     0.662711     0.499576     2.126838
   9 :     0.000000     3.957511     0.878012     1.415502     2.253509     3.969123
  10 :     1.682731     0.783990     0.734492     1.656900     3.128900     6.620346
  11 :     0.000000     0.398258     0.260686     4.730663    25.540080   154.826558
  12 :     0.000000     0.072085     0.121247     9.756873   102.951934  1143.928867
  13 :     0.000000     0.664523     0.272568     5.515093    40.508832   369.518730
  14 :     0.000000     6.155988     0.691615     2.516558    10.200483    67.888171
  15 :     0.000000  1530.405346    23.163675     0.413142     0.884204     4.375552
  16 :     0.000000   625.374243    10.182427     0.871810     1.852962     8.865828
  17 :     0.000000    54.249748     3.325938     0.453613     0.424598     1.509727
  18 :     0.000000   108.681411     6.157571     0.236829     0.114088     0.308502
  19 :     0.000000  1674.287706    20.764020     0.132816     0.052216     0.143757
  20 :     1.677332     0.781932     0.733366     1.660692     3.147205     6.702054
  21 :     1.676237     0.781522     0.733119     1.661653     3.152036     6.720331
  22 :     7.200352     2.826834     1.461242     0.912296     1.112311    12.566659
  23 :     0.388734     0.259335     0.401716     3.193592    12.174043   267.031072
  24 :     7.390146     2.890438     1.482625     0.890277     1.047423    11.268320
  25 :     7.366052     2.882029     1.479621     0.893930     1.059067    11.553767
  26 :     7.426358     2.902951     1.487052     0.884831     1.029193    10.915542
  27 :     7.366029     2.881497     1.479130     0.895860     1.068763    11.698961
  28 :     7.391335     2.890190     1.482179     0.892248     1.057104    11.459701
  29 :     0.034204     0.038357     0.164334     6.853254    50.765807   401.005596
  30 :     0.036095     0.038878     0.164073     6.876256    51.089340   404.550985
  31 :     0.036564     0.038990     0.163963     6.883816    51.195190   405.704389
  32 :     0.176408     0.146899     0.308505     3.979499    18.082160   451.182313
  33 :     0.174633     0.145843     0.307587     3.986474    18.116352   453.285891
  34 :     0.172410     0.144548     0.306381     3.998273    18.208948   456.287523
  35 :     0.166650     0.141092     0.303080     4.031192    18.468346   464.714738
  36 :     0.130977     0.091393     0.225658     5.813362    40.912439   331.810857
  37 :     0.135895     0.093394     0.227037     5.792366    40.647395   328.994813
  38 :     0.137028     0.093866     0.227417     5.785429    40.558488   328.034538
  39 :     0.318848     0.205389     0.329589     4.265855    21.711388   606.154514
  40 :     0.475606     0.296018     0.411322     3.516529    16.003434   423.341601
  41 :     0.477715     0.296867     0.412521     3.502752    15.873054   421.434513
  42 :     0.479747     0.298099     0.413695     3.491307    15.783716   418.554802
  43 :     0.485863     0.301665     0.416998     3.459436    15.534893   410.515707
  44 :     1.596624     0.724584     0.590843     2.762937     9.475095   251.353008
  45 :     0.284852     0.176921     0.316111     3.684103    14.373132   407.930273
  46 :     0.222066     0.153837     0.306566     3.708161    14.496896   411.986036
  47 :     0.235279     0.158767     0.308600     3.703397    14.472283   411.337538
  48 :     0.218710     0.152645     0.306136     3.708359    14.493652   412.137377
  49 :     0.244307     0.162143     0.310022     3.699684    14.451798   410.826400
  50 :     0.238457     0.159950     0.309107     3.702019    14.465010   411.082323
  51 :     4.167716     1.703786     0.992117     2.059339     6.815623   188.583622
  52 :     0.614793     0.285601     0.383673     3.769127    18.819616   120.765722
  53 :     0.617261     0.286270     0.384171     3.763319    18.754502   119.848153
  54 :     0.618498     0.286642     0.384388     3.761579    18.735780   119.573621
  55 :     1.398093     0.641694     0.596595     2.462500     8.078755   167.200179
  56 :     1.398785     0.640520     0.596667     2.461978     8.074950   167.086480
  57 :     1.399176     0.640662     0.596738     2.461561     8.071538   166.966516
  58 :     1.357435     0.623417     0.587232     2.489723     8.177785   168.140414
  59 :     1.400589     0.641180     0.596981     2.460136     8.059985   166.563191
  60 :     1.503556     0.648585     0.566625     2.522592     7.656366   187.087700
  61 :     1.352988     0.598908     0.550251     2.533031     7.649963   185.637729
  62 :     1.348759     0.597497     0.549799     2.533158     7.648730   185.583452
  63 :     1.380853     0.608223     0.553324     2.531334     7.652557   185.976014
  64 :     1.381116     0.608255     0.553304     2.531888     7.657278   186.176826
  65 :     1.382331     0.608676     0.553460     2.531585     7.655782   186.121681
  66 :     2.460241     0.985358     0.688127     2.362888     7.067830   171.877330
  67 :     1.920929     0.785538     0.668865     2.256689     7.420961    35.957058
  68 :     1.921764     0.785443     0.668732     2.256797     7.417228    35.896605
  69 :     1.922007     0.785382     0.668665     2.256956     7.416773    35.887914
  70 :     2.778554     1.162553     0.818717     1.805667     4.263667    87.560382
  71 :     2.718344     1.145950     0.815235     1.800111     4.226973    86.435803
  72 :     2.717160     1.145563     0.815116     1.800174     4.227001    86.433015
  73 :     2.726059     1.148139     0.815726     1.800692     4.231113    86.567034
  74 :     2.720792     1.146283     0.815066     1.801569     4.234256    86.639663
  75 :     2.724254     1.147369     0.815378     1.801481     4.234499    86.653010
  76 :     3.186085     1.299477     0.863827     1.759943     4.114485    84.086527
  77 :     3.895391     1.583474     1.006256     1.461743     3.044202    45.254198
  78 :     3.895358     1.583098     1.006217     1.461807     3.044374    45.256147
  79 :     3.895262     1.583001     1.006157     1.461933     3.044805    45.262133
  80 :     3.895094     1.582736     1.005989     1.462256     3.045786    45.271848
  81 :     3.879168     1.577122     1.003957     1.464923     3.057367    45.583915
  82 :     8.321259     2.744601     1.304768     1.217467     2.155825    36.538587
  83 :     8.388607     2.764856     1.311017     1.211172     2.136415    36.131817
  84 :     8.388123     2.764716     1.310974     1.211216     2.136544    36.134932
  85 :     8.381464     2.762751     1.310380     1.211807     2.138356    36.171552
  86 :     8.374983     2.760867     1.309839     1.212261     2.139663    36.196938
  87 :     8.374882     2.760822     1.309822     1.212292     2.139781    36.198584
  88 :     8.669857     2.843177     1.331251     1.200392     2.111427    35.689255
  89 :    13.475617     2.863364     1.315643     1.227088     2.548101     9.605889
  90 :    13.469557     2.861900     1.315135     1.227696     2.549942     9.609982
  91 :    13.469137     2.861790     1.315089     1.227772     2.550168     9.610569
  92 :    25.132955     5.830716     1.946118     0.829975     1.116961    12.458931
  93 :    25.132545     5.830606     1.946088     0.830000     1.117027    12.459834
  94 :    25.133333     5.830793     1.946134     0.829974     1.116963    12.458950
  95 :    25.130918     5.830193     1.945976     0.830087     1.117256    12.462649
  96 :    25.117857     5.827147     1.945268     0.830440     1.117973    12.466631
  97 :    62.131685    13.066235     3.231213     0.471814     0.505816     1.571155
  98 :    62.129036    13.065689     3.231103     0.471865     0.505947     1.571552
  99 :    62.129365    13.065760     3.231119     0.471856     0.505919     1.571432
Making the total density                ... o.k.
o.k.
Initializing the integrals              ... done
Making exponents                        ... done
Making rho(0)                           ... done (        58.073807224)
Integral calculation                    ... Two index integrals                     ... done
Solving the equation system             ... done
atomic density will be written to file 63_Eu_atom63.adf

-------
TIMINGS
-------

Total SCF time: 0 days 0 hours 2 min 31 sec 

Total time                  ....     151.152 sec
Sum of individual times     ....     149.192 sec  ( 98.7%)

Fock matrix formation       ....     145.786 sec  ( 96.4%)
Diagonalization             ....       1.532 sec  (  1.0%)
Density matrix formation    ....       0.071 sec  (  0.0%)
Population analysis         ....       0.000 sec  (  0.0%)
Initial guess               ....       0.001 sec  (  0.0%)
Orbital Transformation      ....       0.000 sec  (  0.0%)
Orbital Orthonormalization  ....       0.000 sec  (  0.0%)
DIIS solution               ....       1.801 sec  (  1.2%)

-------------------------   --------------------
FINAL SINGLE POINT ENERGY      -708.129356757831
-------------------------   --------------------


                            ***************************************
                            *     ORCA property calculations      *
                            ***************************************

                                    ---------------------
                                    Active property flags
                                    ---------------------
   (+) Dipole Moment


------------------------------------------------------------------------------
                       ORCA ELECTRIC PROPERTIES CALCULATION
------------------------------------------------------------------------------

Dipole Moment Calculation                       ... on
Quadrupole Moment Calculation                   ... off
Polarizability Calculation                      ... off
GBWName                                         ... 63_Eu_atom63.gbw
Electron density file                           ... 63_Eu_atom63.scfp
The origin for moment calculation is the CENTER OF MASS  = ( 0.000000,  0.000000  0.000000)

-------------
DIPOLE MOMENT
-------------
                                X             Y             Z
Electronic contribution:     -0.00000       0.00000       0.00000
Nuclear contribution   :      0.00000       0.00000       0.00000
                        -----------------------------------------
Total Dipole Moment    :     -0.00000       0.00000       0.00000
                        -----------------------------------------
Magnitude (a.u.)       :      0.00000
Magnitude (Debye)      :      0.00000



--------------------
Rotational spectrum 
--------------------
 
Rotational constants in cm-1:     0.000000     0.000000     0.000000 
Rotational constants in MHz :     0.000000     0.000000     0.000000 

 Dipole components along the rotational axes: 
x,y,z [a.u.] :    -0.000000     0.000000     0.000000 
x,y,z [Debye]:    -0.000001     0.000000     0.000000 

 

Timings for individual modules:

Sum of individual times         ...      154.539 sec (=   2.576 min)
GTO integral calculation        ...        3.357 sec (=   0.056 min)   2.2 %
SCF iterations                  ...      151.182 sec (=   2.520 min)  97.8 %
                             ****ORCA TERMINATED NORMALLY****
TOTAL RUN TIME: 0 days 0 hours 2 minutes 34 seconds 850 msec
