
                                 *****************
                                 * O   R   C   A *
                                 *****************

           --- An Ab Initio, DFT and Semiempirical electronic structure package ---

                  #######################################################
                  #                        -***-                        #
                  #          Department of theory and spectroscopy      #
                  #               Directorship: Frank Neese             #
                  #        Max Planck Institute fuer Kohlenforschung    #
                  #                Kaiser Wilhelm Platz 1               #
                  #                 D-45470 Muelheim/Ruhr               #
                  #                      Germany                        #
                  #                                                     #
                  #                  All rights reserved                #
                  #                        -***-                        #
                  #######################################################


                         Program Version 4.2.0 -  RELEASE  -


 With contributions from (in alphabetic order):
   Daniel Aravena         : Magnetic Suceptibility
   Michael Atanasov       : Ab Initio Ligand Field Theory (pilot matlab implementation)
   Alexander A. Auer      : GIAO ZORA, VPT2
   Ute Becker             : Parallelization
   Giovanni Bistoni       : ED, misc. LED, open-shell LED, HFLED
   Martin Brehm           : Molecular dynamics
   Dmytro Bykov           : SCF Hessian
   Vijay G. Chilkuri      : MRCI spin determinant printing, contributions to CSF-ICE
   Dipayan Datta          : RHF DLPNO-CCSD density
   Achintya Kumar Dutta   : EOM-CC, STEOM-CC
   Dmitry Ganyushin       : Spin-Orbit,Spin-Spin,Magnetic field MRCI
   Miquel Garcia          : C-PCM Hessian, Gaussian charge scheme
   Yang Guo               : DLPNO-NEVPT2, CIM, IAO-localization
   Andreas Hansen         : Spin unrestricted coupled pair/coupled cluster methods
   Benjamin Helmich-Paris : CASSCF linear response (MC-RPA)
   Lee Huntington         : MR-EOM, pCC
   Robert Izsak           : Overlap fitted RIJCOSX, COSX-SCS-MP3, EOM
   Christian Kollmar      : KDIIS, OOCD, Brueckner-CCSD(T), CCSD density
   Simone Kossmann        : Meta GGA functionals, TD-DFT gradient, OOMP2, MP2 Hessian
   Martin Krupicka        : AUTO-CI
   Lucas Lang             : DCDCAS
   Dagmar Lenk            : GEPOL surface, SMD
   Dimitrios Liakos       : Extrapolation schemes; Compound Job, initial MDCI parallelization
   Dimitrios Manganas     : Further ROCIS development; embedding schemes
   Dimitrios Pantazis     : SARC Basis sets
   Taras Petrenko         : DFT Hessian,TD-DFT gradient, ASA, ECA, R-Raman, ABS, FL, XAS/XES, NRVS
   Peter Pinski           : DLPNO-MP2, DLPNO-MP2 Gradient
   Christoph Reimann      : Effective Core Potentials
   Marius Retegan         : Local ZFS, SOC
   Christoph Riplinger    : Optimizer, TS searches, QM/MM, DLPNO-CCSD(T), (RO)-DLPNO pert. Triples
   Tobias Risthaus        : Range-separated hybrids, TD-DFT gradient, RPA, STAB
   Michael Roemelt        : Original ROCIS implementation
   Masaaki Saitow         : Open-shell DLPNO-CCSD energy and density
   Barbara Sandhoefer     : DKH picture change effects
   Avijit Sen             : IP-ROCIS
   Kantharuban Sivalingam : CASSCF convergence, NEVPT2, FIC-MRCI
   Bernardo de Souza      : ESD, SOC TD-DFT
   Georgi Stoychev        : AutoAux, RI-MP2 NMR
   Willem Van den Heuvel  : Paramagnetic NMR
   Boris Wezisla          : Elementary symmetry handling
   Frank Wennmohs         : Technical directorship


 We gratefully acknowledge several colleagues who have allowed us to
 interface, adapt or use parts of their codes:
   Stefan Grimme, W. Hujo, H. Kruse,             : VdW corrections, initial TS optimization,
                  C. Bannwarth                     DFT functionals, gCP, sTDA/sTD-DF
   Ed Valeev, F. Pavosevic, A. Kumar             : LibInt (2-el integral package), F12 methods
   Garnet Chan, S. Sharma, J. Yang, R. Olivares  : DMRG
   Ulf Ekstrom                                   : XCFun DFT Library
   Mihaly Kallay                                 : mrcc  (arbitrary order and MRCC methods)
   Andreas Klamt, Michael Diedenhofen            : otool_cosmo (COSMO solvation model)
   Jiri Pittner, Ondrej Demel                    : Mk-CCSD
   Frank Weinhold                                : gennbo (NPA and NBO analysis)
   Christopher J. Cramer and Donald G. Truhlar   : smd solvation model
   Lars Goerigk                                  : TD-DFT with DH, B97 family of functionals
   V. Asgeirsson, H. Jonsson                     : NEB implementation
   FAccTs GmbH                                   : IRC, NEB, NEB-TS, Multilevel, MM, QM/MM, CI optimization
   S Lehtola, MJT Oliveira, MAL Marques          : LibXC Library


 Your calculation uses the libint2 library for the computation of 2-el integrals
 For citations please refer to: http://libint.valeyev.net

 Your ORCA version has been built with support for libXC version: 4.2.3
 For citations please refer to: https://tddft.org/programs/libxc/

 This ORCA versions uses:
   CBLAS   interface :  Fast vector & matrix operations
   LAPACKE interface :  Fast linear algebra routines
   SCALAPACK package :  Parallel linear algebra routines


----- Orbital basis set information -----
Your calculation utilizes the basis: def2-SVP
   F. Weigend and R. Ahlrichs, Phys. Chem. Chem. Phys. 7, 3297 (2005).

----- AuxJ basis set information -----
Your calculation utilizes the auxiliary basis: def2/J
   F. Weigend, Phys. Chem. Chem. Phys. 8, 1057 (2006).

================================================================================
                                        WARNINGS
                       Please study these warnings very carefully!
================================================================================


INFO   : the flag for use of LIBINT has been found!

================================================================================
                                       INPUT FILE
================================================================================
NAME = 68_Er_atom68.inp
|  1> # input to generate an atomic fitting density for Er
|  2> # this file is use internally by ORCA
|  3> #
|  4> # atomic ground state (S=3): 1s2 2s2 2p6 3s2 3p6 4s2 3d10 4p6 5s2 4d10 5p6 6s2 4f12 
|  5> #
|  6> ! RHF AllowRHF def2-SVP def2/J  NoMulliken NoLoewdin NoMayer NoPrintMOs 
|  7> 
|  8> %output print[p_atomdensfit] 2 end
|  9> 
| 10> %scf
| 11>   guess hcore
| 12>   maxiter 1000
| 13>   maxdisk 500000
| 14>   SCFMode Conventional
| 15>   hftyp rohf
| 16>   rohf_case sahf
| 17>   rohf_numop   3
| 18>   rohf_norb[1] 1,7
| 19>   rohf_nel[1]  2,12
| 20> end
| 21> 
| 22> %basis
| 23>   NewECP 68
| 24>     N_core 28
| 25>     lmax h
| 26>     s 1
| 27>       1      29.7985920000    800.9528760000  2
| 28>     p 1
| 29>       1      18.1142370000    262.0198690000  2
| 30>     d 1
| 31>       1      11.3695870000     80.1705520000  2
| 32>     f 1
| 33>       1      21.8212330000    -42.3362850000  2
| 34>     g 1
| 35>       1      26.2507350000    -32.1852780000  2
| 36>     h 1
| 37>       1       1.0000000000      0.0000000000  2
| 38>   end
| 39>   NewGTO 68
| 40>     s 6 
| 41>      1  105311.4794900000      0.0025572334
| 42>      2   17892.1624120000      0.0163004488
| 43>      3    4746.1385373000      0.0616824463
| 44>      4    1560.1148058000      0.1917014724
| 45>      5     567.4851970600      0.3629275569
| 46>      6     204.6627407600      0.4988538536
| 47>     s 1 
| 48>      1      53.3980040300      1.0000000000
| 49>     s 1 
| 50>      1      37.8379348030      1.0000000000
| 51>     s 1 
| 52>      1      19.0160999230      1.0000000000
| 53>     s 1 
| 54>      1       4.6055126336      1.0000000000
| 55>     s 1 
| 56>      1       2.2821388609      1.0000000000
| 57>     s 1 
| 58>      1       0.8813728187      1.0000000000
| 59>     s 1 
| 60>      1       0.3836037000      1.0000000000
| 61>     s 1 
| 62>      1       0.0754212430      1.0000000000
| 63>     s 1 
| 64>      1       0.0316873606      1.0000000000
| 65>     s 1 
| 66>      1       0.0112148515      1.0000000000
| 67>     p 9 
| 68>      1    4216.1936100000      0.0001980910
| 69>      2    1013.4274757000      0.0016298625
| 70>      3     319.3280487700      0.0079120883
| 71>      4     115.2769880900      0.0221448835
| 72>      5      33.0365189110      0.1514443693
| 73>      6      25.6621314580     -0.1550440340
| 74>      7      14.2703991440     -0.2080255446
| 75>      8       7.3934195516      0.5143096441
| 76>      9       3.8100377620      0.6802369301
| 77>     p 3 
| 78>      1      23.3044468410      0.3734058646
| 79>      2      14.2678393050     -1.3708011323
| 80>      3       7.3382101816      0.0368218577
| 81>     p 1 
| 82>      1       1.9166139014      1.0000000000
| 83>     p 1 
| 84>      1       0.9178202841      1.0000000000
| 85>     p 1 
| 86>      1       0.4367059202      1.0000000000
| 87>     p 1 
| 88>      1       0.2010335040      1.0000000000
| 89>     p 1 
| 90>      1       0.0670000000      1.0000000000
| 91>     p 1 
| 92>      1       0.0300000000      1.0000000000
| 93>     d 6 
| 94>      1     673.7601221100      0.0010587719
| 95>      2     202.7178575000      0.0095960921
| 96>      3      77.6005583040      0.0465123688
| 97>      4      32.7779218120      0.1344779898
| 98>      5      13.7083951310      0.2589593582
| 99>      6       6.4239979678      0.6984505540
|100>     d 1 
|101>      1       3.1483218651      1.0000000000
|102>     d 1 
|103>      1       1.4658128799      1.0000000000
|104>     d 1 
|105>      1       0.5729372628      1.0000000000
|106>     d 1 
|107>      1       0.2050614618      1.0000000000
|108>     d 1 
|109>      1       0.0679212106      1.0000000000
|110>     f 6 
|111>      1     181.1496923300      0.0032219844
|112>      2      65.8545459450      0.0314898125
|113>      3      29.9880610430      0.1367574785
|114>      4      14.4842979080      0.2812870932
|115>      5       7.0491520751      0.3898898006
|116>      6       3.4582103172      0.3944138134
|117>     f 1 
|118>      1       1.7109183161      1.0000000000
|119>     f 1 
|120>      1       0.9186319413      1.0000000000
|121>     f 1 
|122>      1       0.5135668342      1.0000000000
|123>     f 1 
|124>      1       0.2257460255      1.0000000000
|125>   end
|126>   NewAuxGTO 68
|127>     S 1
|128>      1 1310.72 1.0
|129>     S 1
|130>      1  655.36 1.0
|131>     S 1
|132>      1  327.68 1.0
|133>     S 1
|134>      1  163.84 1.0
|135>     S 1
|136>      1   81.82 1.0
|137>     S 1
|138>      1   40.96 1.0
|139>     S 1
|140>      1   20.48 1.0
|141>     S 1
|142>      1   10.24 1.0
|143>     S 1
|144>      1    5.12 1.0
|145>     S 1
|146>      1    2.56 1.0
|147>     S 1
|148>      1    1.28 1.0
|149>     S 1
|150>      1    0.64 1.0
|151>     S 1
|152>      1    0.32 1.0
|153>     S 1
|154>      1    0.16 1.0
|155>     S 1
|156>      1    0.08 1.0
|157>     S 1
|158>      1    0.04 1.0
|159>     S 1
|160>      1    0.02 1.0
|161>     S 1
|162>      1    0.01 1.0
|163>   end
|164> end
|165> 
|166> * xyz 0 3
|167> 68  0.0 0.0 0.0
|168> *
|169> 
|170> 
|171>                          ****END OF INPUT****
================================================================================

                       ****************************
                       * Single Point Calculation *
                       ****************************

---------------------------------
CARTESIAN COORDINATES (ANGSTROEM)
---------------------------------
  Er     0.000000    0.000000    0.000000

----------------------------
CARTESIAN COORDINATES (A.U.)
----------------------------
  NO LB      ZA    FRAG     MASS         X           Y           Z
   0 Er   40.0000*   0   167.260    0.000000    0.000000    0.000000
* core charge reduced due to ECP

--------------------------------
INTERNAL COORDINATES (ANGSTROEM)
--------------------------------
 Er     0   0   0     0.000000000000     0.00000000     0.00000000

---------------------------
INTERNAL COORDINATES (A.U.)
---------------------------
 Er     0   0   0     0.000000000000     0.00000000     0.00000000

---------------------
BASIS SET INFORMATION
---------------------
There are 1 groups of distinct atoms

 Group   1 Type Er  : 16s18p11d10f contracted to 11s8p6d5f pattern {61111111111/93111111/611111/61111}

Atom   0Er   basis set group =>   1
---------------------------------
AUXILIARY/J BASIS SET INFORMATION
---------------------------------
There are 1 groups of distinct atoms

 Group   1 Type Er  : 18s contracted to 18s pattern {111111111111111111}

Atom   0Er   basis set group =>   1
-------------------------
ECP PARAMETER INFORMATION
-------------------------

 Group 1, Type Er ECP (replacing 28 core electrons, lmax=5)

Atom   0Er   ECP group =>   1

------------------------------------------------------------------------------
                           ORCA GTO INTEGRAL CALCULATION
------------------------------------------------------------------------------

                         BASIS SET STATISTICS AND STARTUP INFO

 # of primitive gaussian shells          ...   55
 # of primitive gaussian functions       ...  195
 # of contracted shells                  ...   30
 # of contracted basis functions         ...  100
 Highest angular momentum                ...    3
 Maximum contraction depth               ...    9
 Integral package used                   ... LIBINT
 Integral threshhold            Thresh   ...  1.000e-10
 Primitive cut-off              TCut     ...  1.000e-11
 Storage cut-off                TCutStore... -1.000e+00
 Buffer length                           ... 1048576 integrals/buffer
 Generate file with integrals 4 distinct ...false


------------------------------ INTEGRAL EVALUATION ----------------------------


 * One electron integrals 

   ECP integrals                         ... done
 Pre-screening matrix                    ... done
 Shell pair data                         ... done (   0.000 sec)
 Statistics run                          ... done
 Maximum amount of storage needed        ...   150 MB
 Maximum amount of storage dedicated     ... 500000 MB
 Beginning two electron integral evaluation:
 Starting repulsion integrals
  <ss|ss>  ...         2211 b.         0 skpd (  0.0%)     0.000 s. (  0.000 ms/b)
  <ss|sp>  ...         5808 b.         0 skpd (  0.0%)     0.001 s. (  0.000 ms/b)
  <ss|sd>  ...         4356 b.         0 skpd (  0.0%)     0.002 s. (  0.001 ms/b)
  <ss|sf>  ...         3630 b.         0 skpd (  0.0%)     0.003 s. (  0.001 ms/b)
  <ss|pp>  ...         2376 b.         0 skpd (  0.0%)     0.003 s. (  0.001 ms/b)
  <ss|pd>  ...         3168 b.         0 skpd (  0.0%)     0.004 s. (  0.001 ms/b)
  <ss|pf>  ...         2640 b.         0 skpd (  0.0%)     0.005 s. (  0.002 ms/b)
  <ss|dd>  ...         1386 b.         0 skpd (  0.0%)     0.003 s. (  0.002 ms/b)
  <ss|df>  ...         1980 b.         0 skpd (  0.0%)     0.005 s. (  0.003 ms/b)
  <ss|ff>  ...          990 b.         0 skpd (  0.0%)     0.005 s. (  0.005 ms/b)
  <sp|sp>  ...         3916 b.         0 skpd (  0.0%)     0.004 s. (  0.001 ms/b)
  <sp|sd>  ...         5808 b.         0 skpd (  0.0%)     0.007 s. (  0.001 ms/b)
  <sp|sf>  ...         4838 b.         2 skpd (  0.0%)     0.009 s. (  0.002 ms/b)
  <sp|pp>  ...         3168 b.         0 skpd (  0.0%)     0.009 s. (  0.003 ms/b)
  <sp|pd>  ...         4224 b.         0 skpd (  0.0%)     0.014 s. (  0.003 ms/b)
  <sp|pf>  ...         3520 b.         0 skpd (  0.0%)     0.020 s. (  0.006 ms/b)
  <sp|dd>  ...         1848 b.         0 skpd (  0.0%)     0.018 s. (  0.010 ms/b)
  <sp|df>  ...         2640 b.         0 skpd (  0.0%)     0.022 s. (  0.008 ms/b)
  <sp|ff>  ...         1320 b.         0 skpd (  0.0%)     0.021 s. (  0.016 ms/b)
  <sd|sd>  ...         2207 b.         4 skpd (  0.2%)     0.004 s. (  0.002 ms/b)
  <sd|sf>  ...         3616 b.        14 skpd (  0.4%)     0.012 s. (  0.003 ms/b)
  <sd|pp>  ...         2376 b.         0 skpd (  0.0%)     0.011 s. (  0.005 ms/b)
  <sd|pd>  ...         3168 b.         0 skpd (  0.0%)     0.026 s. (  0.008 ms/b)
  <sd|pf>  ...         2640 b.         0 skpd (  0.0%)     0.028 s. (  0.011 ms/b)
  <sd|dd>  ...         1386 b.         0 skpd (  0.0%)     0.015 s. (  0.011 ms/b)
  <sd|df>  ...         1980 b.         0 skpd (  0.0%)     0.036 s. (  0.018 ms/b)
  <sd|ff>  ...          990 b.         0 skpd (  0.0%)     0.037 s. (  0.037 ms/b)
  <sf|sf>  ...         1526 b.        14 skpd (  0.9%)     0.018 s. (  0.012 ms/b)
  <sf|pp>  ...         1980 b.         0 skpd (  0.0%)     0.021 s. (  0.010 ms/b)
  <sf|pd>  ...         2640 b.         0 skpd (  0.0%)     0.037 s. (  0.014 ms/b)
  <sf|pf>  ...         2200 b.         0 skpd (  0.0%)     0.056 s. (  0.025 ms/b)
  <sf|dd>  ...         1155 b.         0 skpd (  0.0%)     0.030 s. (  0.026 ms/b)
  <sf|df>  ...         1650 b.         0 skpd (  0.0%)     0.081 s. (  0.049 ms/b)
  <sf|ff>  ...          825 b.         0 skpd (  0.0%)     0.079 s. (  0.096 ms/b)
  <pp|pp>  ...          666 b.         0 skpd (  0.0%)     0.008 s. (  0.013 ms/b)
  <pp|pd>  ...         1728 b.         0 skpd (  0.0%)     0.024 s. (  0.014 ms/b)
  <pp|pf>  ...         1440 b.         0 skpd (  0.0%)     0.042 s. (  0.029 ms/b)
  <pp|dd>  ...          756 b.         0 skpd (  0.0%)     0.018 s. (  0.024 ms/b)
  <pp|df>  ...         1080 b.         0 skpd (  0.0%)     0.042 s. (  0.039 ms/b)
  <pp|ff>  ...          540 b.         0 skpd (  0.0%)     0.044 s. (  0.082 ms/b)
  <pd|pd>  ...         1176 b.         0 skpd (  0.0%)     0.028 s. (  0.024 ms/b)
  <pd|pf>  ...         1920 b.         0 skpd (  0.0%)     0.080 s. (  0.041 ms/b)
  <pd|dd>  ...         1008 b.         0 skpd (  0.0%)     0.040 s. (  0.039 ms/b)
  <pd|df>  ...         1440 b.         0 skpd (  0.0%)     0.104 s. (  0.072 ms/b)
  <pd|ff>  ...          720 b.         0 skpd (  0.0%)     0.106 s. (  0.147 ms/b)
  <pf|pf>  ...          820 b.         0 skpd (  0.0%)     0.078 s. (  0.095 ms/b)
  <pf|dd>  ...          840 b.         0 skpd (  0.0%)     0.068 s. (  0.081 ms/b)
  <pf|df>  ...         1200 b.         0 skpd (  0.0%)     0.187 s. (  0.156 ms/b)
  <pf|ff>  ...          600 b.         0 skpd (  0.0%)     0.199 s. (  0.331 ms/b)
  <dd|dd>  ...          231 b.         0 skpd (  0.0%)     0.027 s. (  0.115 ms/b)
  <dd|df>  ...          630 b.         0 skpd (  0.0%)     0.086 s. (  0.136 ms/b)
  <dd|ff>  ...          315 b.         0 skpd (  0.0%)     0.096 s. (  0.303 ms/b)
  <df|df>  ...          465 b.         0 skpd (  0.0%)     0.134 s. (  0.287 ms/b)
  <df|ff>  ...          450 b.         0 skpd (  0.0%)     0.252 s. (  0.559 ms/b)
  <ff|ff>  ...          120 b.         0 skpd (  0.0%)     0.183 s. (  1.526 ms/b)


                                      INTEGRAL STATISTICS

Integral type statistics:
 Number of integrals retained            ...   12752530 
 One   Center Integrals retained         ...   12752530 (100.0%)
 Two   Center Integrals retained         ...          0 (  0.0%)
 Three Center Integrals retained         ...          0 (  0.0%)
 Four  Center Integrals retained         ...          0 (  0.0%)

Storage statistics:
 Number of char integrals                ...          0 (  0.0%)
 Number of short int integrals           ...          0 (  0.0%)
 Number of double/float integrals        ...   12752530 (100.0%)
 Amount of memory used                   ...        158 MB
 Amount of memory estimated              ...        150 MB ( 95.4%)

Prescreening statistics:
 Total number of shell quadruples        ...     108345 
 Number of skipped shell quadruples      ...         58 (  0.1%)
 # of negligible batches done            ...          0 (  0.0%)

Timings:
 Total evaluation time               ...     2.992 sec (   0.050 min)
 One electron matrix time            ...     0.103 sec (   0.002 min) =  3.5%
 Schwartz matrix evaluation time     ...     0.211 sec (   0.004 min) =  7.1%
 Statistics run                      ...     0.089 sec (   0.001 min) =  3.0%
 Repulsion integral time             ...     2.491 sec (   0.042 min) = 83.2%

-------------------------------------------------------------------------------
                                 ORCA SCF
-------------------------------------------------------------------------------

------------
SCF SETTINGS
------------
Hamiltonian:
 Ab initio Hamiltonian  Method          .... Hartree-Fock(GTOs)


General Settings:
 Integral files         IntName         .... 68_Er_atom68
 Hartree-Fock type      HFTyp           .... ROHF
 Total Charge           Charge          ....    0
 Multiplicity           Mult            ....    3
 Number of Electrons    NEL             ....   40
 Basis Dimension        Dim             ....  100
 Nuclear Repulsion      ENuc            ....      0.0000000000 Eh

Convergence Acceleration:
 DIIS                   CNVDIIS         .... on
   Start iteration      DIISMaxIt       ....    12
   Startup error        DIISStart       ....  0.200000
   # of expansion vecs  DIISMaxEq       ....     5
   Bias factor          DIISBfac        ....   1.050
   Max. coefficient     DIISMaxC        ....  10.000
 Newton-Raphson         CNVNR           .... off
 SOSCF                  CNVSOSCF        .... off
 Level Shifting         CNVShift        .... on
   Level shift para.    LevelShift      ....    0.2500
   Turn off err/grad.   ShiftErr        ....    0.0010
 Zerner damping         CNVZerner       .... off
 Static damping         CNVDamp         .... on
   Fraction old density DampFac         ....    0.7000
   Max. Damping (<1)    DampMax         ....    0.9800
   Min. Damping (>=0)   DampMin         ....    0.0000
   Turn off err/grad.   DampErr         ....    0.1000
 Fernandez-Rico         CNVRico         .... off

SCF Procedure:
 Maximum # iterations   MaxIter         ....  1000
 SCF integral mode      SCFMode         .... Conventional
 Integral Threshold     Thresh          ....  1.000e-10 Eh
 Primitive CutOff       TCut            ....  1.000e-11 Eh
 Integral Buffer length BufferLength    .... 1048576
 Integral index format  IndFormat       ....     0
 Integral value format  ValFormat       ....     0
 Integral Storage       Thresh          ....  1.000e-10 Eh

Convergence Tolerance:
 Convergence Check Mode ConvCheckMode   .... Total+1el-Energy
 Convergence forced     ConvForced      .... 0
 Energy Change          TolE            ....  1.000e-06 Eh
 1-El. energy change                    ....  1.000e-03 Eh
 DIIS Error             TolErr          ....  1.000e-06


Diagonalization of the overlap matrix:
Smallest eigenvalue                        ... 1.264e-03
Time for diagonalization                   ...    0.017 sec
Threshold for overlap eigenvalues          ... 1.000e-08
Number of eigenvalues below threshold      ... 0
Time for construction of square roots      ...    0.005 sec
Total time needed                          ...    0.022 sec

--------------------
INITIAL GUESS: HCORE
--------------------
AVERAGE-CONFIGURATION (SAHF) CASE FOUND

-------------------
FINAL ROHF SETTINGS
-------------------
Number of operators             ... 3
  operator   0:  13 orbitals  26 electrons n(mue)= 2.000
  operator   1:   1 orbitals   2 electrons n(mue)= 2.000
  operator   2:   7 orbitals  12 electrons n(mue)= 1.714
Vector coupling coefficients a and b (Zerner convention):
   1.000    1.000    1.000           1.000    1.000    1.000 
   1.000    1.000    1.000           1.000    1.000    1.000 
   1.000    1.000    0.988           1.000    1.000    1.005 

                      -----------------
                      INTIAL GUESS DONE 
                      -----------------

 InCore treatment chosen:
   Memory dedicated               ...    1024 MB
   Memory needed                  ...    158 MB
   Number of tiny    integrals    ...       0
   Number of small   integrals    ...       0
   Number of regular integrals    ... 12752530

--------------
SCF ITERATIONS
--------------
ITER       Energy         Delta-E        Max-DP      RMS-DP      [F,P]     Damp
  0   -741.2627076762   0.000000000000 3.91199579  0.07275043 13.3024059 0.7000
  1   -851.3630015079-110.100293831727 2.75644875  0.03589057  5.5590594 0.7000
  2   -959.9804323566-108.617430848710 1.92951412  0.02498028  1.9274404 0.7000
  3   -975.9885957093 -16.008163352691 1.35065990  0.01742255  0.4293292 0.7000
  4   -986.4913526790 -10.502756969643 0.94546193  0.01218188  0.2123299 0.7000
                            ****Activating DIIS****
  5   -993.8618604465  -7.370507767523 0.66182331  0.00858514  0.1259957 0.7000
  6   -999.2290071692  -5.367146722675 1.54425413  0.02017525  0.0582081 0.0000
  7  -1011.7606589784 -12.531651809219 0.00638875  0.00008350  0.1019774 0.7000
  8  -1011.7795654740  -0.018906495668 0.06700500  0.00090162  0.0890689 0.0000
  9  -1011.8440145993  -0.064449125246 0.11771743  0.00162939  0.0714239 0.0000
 10  -1011.6613251297   0.182689469639 0.01174810  0.00021001  0.1631777 0.7000
 11  -1011.7210798865  -0.059754756848 0.04381065  0.00068832  0.1368631 0.7000
 12  -1011.8307114726  -0.109631586089 0.16763480  0.00214194  0.0397338 0.0000
 13  -1011.9057270363  -0.075015563757 0.01694730  0.00026292  0.0270399 0.0000
 14  -1011.9118662765  -0.006139240160 0.01506040  0.00013224  0.0200436 0.0000
 15  -1011.9142452421  -0.002378965634 0.04918527  0.00045538  0.0201798 0.0000
 16  -1011.9189424804  -0.004697238275 0.03040705  0.00025040  0.0164346 0.0000
 17  -1011.9202194148  -0.001276934418 0.00673151  0.00008561  0.0147570 0.0000
 18  -1011.9207336867  -0.000514271902 0.01562128  0.00018468  0.0128026 0.0000
 19  -1011.9217881816  -0.001054494858 0.01687805  0.00016921  0.0085313 0.0000
 20  -1011.9233889740  -0.001600792434 0.00783278  0.00007624  0.0095212 0.0000
 21  -1011.9226045105   0.000784463496 0.00126844  0.00001340  0.0081444 0.0000
 22  -1011.9224880387   0.000116471860 0.00222520  0.00002166  0.0079187 0.0000
 23  -1011.9222976614   0.000190377261 0.00589330  0.00005709  0.0076723 0.0000
 24  -1011.9218374266   0.000460234827 0.00421723  0.00004510  0.0081791 0.0000
 25  -1011.9215691812   0.000268245426 0.00630771  0.00006437  0.0081575 0.0000
 26  -1011.9212286420   0.000340539173 0.01271846  0.00012788  0.0077217 0.0000
 27  -1011.9207624690   0.000466173018 0.00951057  0.00009682  0.0071443 0.0000
 28  -1011.9206696083   0.000092860674 0.00873755  0.00008967  0.0057121 0.0000
 29  -1011.9207762526  -0.000106644267 0.00315674  0.00003643  0.0042647 0.0000
 30  -1011.9208600570  -0.000083804430 0.00218333  0.00002090  0.0031262 0.0000
 31  -1011.9208780648  -0.000018007827 0.00140806  0.00001494  0.0024907 0.0000
 32  -1011.9208982597  -0.000020194891 0.00227618  0.00002641  0.0021369 0.0000
 33  -1011.9209076031  -0.000009343350 0.00548832  0.00004798  0.0021496 0.0000
 34  -1011.9210125630  -0.000104959989 0.00245557  0.00002271  0.0028107 0.0000
 35  -1011.9210421595  -0.000029596474 0.00450796  0.00004092  0.0030083 0.0000
 36  -1011.9209315974   0.000110562112 0.00715074  0.00006254  0.0022651 0.0000
 37  -1011.9208608781   0.000070719337 0.00995225  0.00008679  0.0015101 0.0000
 38  -1011.9208200233   0.000040854792 0.00328848  0.00003164  0.0008022 0.0000
 39  -1011.9208249820  -0.000004958714 0.00286563  0.00003070  0.0006702 0.0000
 40  -1011.9208326806  -0.000007698613 0.00370936  0.00004144  0.0005189 0.0000
 41  -1011.9208439089  -0.000011228313 0.00455997  0.00004646  0.0004626 0.0000
 42  -1011.9208571156  -0.000013206683 0.00444960  0.00004691  0.0004901 0.0000
 43  -1011.9208710332  -0.000013917630 0.00151017  0.00001640  0.0005437 0.0000
 44  -1011.9208759383  -0.000004905026 0.00043191  0.00000439  0.0005710 0.0000
 45  -1011.9208745408   0.000001397499 0.00005013  0.00000041  0.0005688 0.0000
                 **** Energy Check signals convergence ****

               *****************************************************
               *                     SUCCESS                       *
               *           SCF CONVERGED AFTER  46 CYCLES          *
               *****************************************************


----------------
TOTAL SCF ENERGY
----------------

Total Energy       :        -1011.92087463 Eh          -27535.76689 eV

Components:
Nuclear Repulsion  :            0.00000000 Eh               0.00000 eV
Electronic Energy  :        -1011.92087463 Eh          -27535.76689 eV
One Electron Energy:        -1841.08167667 Eh          -50098.37937 eV
Two Electron Energy:          829.16080204 Eh           22562.61248 eV

Virial components:
Potential Energy   :        -1618.60469777 Eh          -44044.47300 eV
Kinetic Energy     :          606.68382314 Eh           16508.70611 eV
Virial Ratio       :            2.66795427


---------------
SCF CONVERGENCE
---------------

  Last Energy change         ...   -9.3153e-08  Tolerance :   1.0000e-06
  Last MAX-Density change    ...    2.7450e-04  Tolerance :   1.0000e-05
  Last RMS-Density change    ...    2.7739e-06  Tolerance :   1.0000e-06
  Last DIIS Error            ...    5.6767e-04  Tolerance :   1.0000e-06

             **** THE GBW FILE WAS UPDATED (68_Er_atom68.gbw) ****
             **** DENSITY FILE WAS UPDATED (68_Er_atom68.scfp) ****
             **** ENERGY FILE WAS UPDATED (68_Er_atom68.en.tmp) ****
             **** THE GBW FILE WAS UPDATED (68_Er_atom68.gbw) ****
             **** DENSITY FILE WAS UPDATED (68_Er_atom68.scfp) ****
----------------
ORBITAL ENERGIES
----------------

  NO   OCC          E(Eh)            E(eV) 
   0   2.0000     -17.525460      -476.8920 
   1   2.0000     -12.115676      -329.6843 
   2   2.0000     -12.105234      -329.4002 
   3   2.0000     -12.103714      -329.3588 
   4   2.0000      -6.014186      -163.6543 
   5   2.0000      -6.014055      -163.6508 
   6   2.0000      -6.012905      -163.6195 
   7   2.0000      -6.005378      -163.4146 
   8   2.0000      -6.000154      -163.2725 
   9   2.0000      -2.145673       -58.3867 
  10   2.0000      -1.087227       -29.5850 
  11   2.0000      -1.076257       -29.2865 
  12   2.0000      -1.075025       -29.2529 
  13   2.0000      -0.337098        -9.1729 
  14   1.7143      -0.341812        -9.3012 
  15   1.7143      -0.339513        -9.2386 
  16   1.7143      -0.337620        -9.1871 
  17   1.7143      -0.336146        -9.1470 
  18   1.7143      -0.329913        -8.9774 
  19   1.7143      -0.322150        -8.7661 
  20   1.7143      -0.048635        -1.3234 
  21   0.0000      -0.020854        -0.5675 
  22   0.0000       0.025507         0.6941 
  23   0.0000       0.031269         0.8509 
  24   0.0000       0.032116         0.8739 
  25   0.0000       0.032547         0.8856 
  26   0.0000       0.115890         3.1535 
  27   0.0000       0.120642         3.2828 
  28   0.0000       0.121104         3.2954 
  29   0.0000       0.138173         3.7599 
  30   0.0000       0.179943         4.8965 
  31   0.0000       0.191455         5.2097 
  32   0.0000       0.192398         5.2354 
  33   0.0000       0.233893         6.3646 
  34   0.0000       0.332665         9.0523 
  35   0.0000       0.345144         9.3918 
  36   0.0000       0.349547         9.5117 
  37   0.0000       0.349803         9.5186 
  38   0.0000       0.366085         9.9617 
  39   0.0000       0.711867        19.3709 
  40   0.0000       0.713324        19.4105 
  41   0.0000       0.714188        19.4340 
  42   0.0000       0.715715        19.4756 
  43   0.0000       0.723693        19.6927 
  44   0.0000       0.726267        19.7627 
  45   0.0000       0.726750        19.7759 
  46   0.0000       0.759873        20.6772 
  47   0.0000       0.782357        21.2890 
  48   0.0000       0.782761        21.3000 
  49   0.0000       1.240168        33.7467 
  50   0.0000       1.245138        33.8819 
  51   0.0000       1.245549        33.8931 
  52   0.0000       1.258511        34.2458 
  53   0.0000       1.259939        34.2847 
  54   0.0000       1.719403        46.7873 
  55   0.0000       1.970617        53.6232 
  56   0.0000       1.971616        53.6504 
  57   0.0000       1.973346        53.6975 
  58   0.0000       1.977387        53.8074 
  59   0.0000       1.980455        53.8909 
  60   0.0000       1.992949        54.2309 
  61   0.0000       1.994034        54.2604 
  62   0.0000       2.625272        71.4373 
  63   0.0000       2.649884        72.1070 
  64   0.0000       2.650833        72.1328 
  65   0.0000       4.408336       119.9569 
  66   0.0000       4.412982       120.0833 
  67   0.0000       4.413481       120.0969 
  68   0.0000       4.423614       120.3726 
  69   0.0000       4.428463       120.5046 
  70   0.0000       4.464796       121.4933 
  71   0.0000       4.465909       121.5236 
  72   0.0000       4.467380       121.5636 
  73   0.0000       4.470494       121.6483 
  74   0.0000       4.474689       121.7625 
  75   0.0000       4.486594       122.0864 
  76   0.0000       4.487921       122.1226 
  77   0.0000       8.326299       226.5701 
  78   0.0000       8.343468       227.0373 
  79   0.0000       8.345274       227.0865 
  80   0.0000       9.228083       251.1089 
  81   0.0000       9.229188       251.1390 
  82   0.0000       9.230914       251.1859 
  83   0.0000       9.232790       251.2370 
  84   0.0000       9.236722       251.3440 
  85   0.0000       9.245680       251.5877 
  86   0.0000       9.247715       251.6431 
  87   0.0000       9.581472       260.7251 
  88   0.0000      13.445264       365.8642 
  89   0.0000      13.449557       365.9811 
  90   0.0000      13.449450       365.9781 
  91   0.0000      13.457389       366.1942 
  92   0.0000      13.460298       366.2733 
  93   0.0000      20.039260       545.2960 
  94   0.0000      41.011025      1115.9667 
  95   0.0000      41.023473      1116.3054 
  96   0.0000      41.025218      1116.3529 
  97   0.0000      79.865515      2173.2511 
  98   0.0000     286.449762      7794.6943 
  99   0.0000     660.198242     17964.9075 
CleanUpVectors: The p-vectors have cracked symmetry
CleanUpVectors: The p-vectors have cracked symmetry
CleanUpVectors: The p-vectors have cracked symmetry
CleanUpVectors: The d-vectors have cracked symmetry at i=4
CleanUpVectors: The d-vectors have cracked symmetry at i=5
CleanUpVectors: The d-vectors have cracked symmetry at i=6
CleanUpVectors: The d-vectors have cracked symmetry at i=7
CleanUpVectors: The d-vectors have cracked symmetry at i=8
CleanUpVectors: The p-vectors have cracked symmetry
CleanUpVectors: The p-vectors have cracked symmetry
CleanUpVectors: The p-vectors have cracked symmetry
CleanUpVectors: The f-vectors have cracked symmetry
CleanUpVectors: The f-vectors have cracked symmetry
CleanUpVectors: The f-vectors have cracked symmetry
CleanUpVectors: The f-vectors have cracked symmetry
CleanUpVectors: The f-vectors have cracked symmetry
CleanUpVectors: The f-vectors have cracked symmetry
CleanUpVectors: The f-vectors have cracked symmetry
CleanUpVectors: The d-vectors have cracked symmetry at i=20
CleanUpVectors: The p-vectors have cracked symmetry
CleanUpVectors: The p-vectors have cracked symmetry
CleanUpVectors: The p-vectors have cracked symmetry
CleanUpVectors: The d-vectors have cracked symmetry at i=26
CleanUpVectors: The d-vectors have cracked symmetry at i=27
CleanUpVectors: The d-vectors have cracked symmetry at i=28
CleanUpVectors: The d-vectors have cracked symmetry at i=29
CleanUpVectors: The p-vectors have cracked symmetry
CleanUpVectors: The p-vectors have cracked symmetry
CleanUpVectors: The p-vectors have cracked symmetry
CleanUpVectors: The d-vectors have cracked symmetry at i=34
CleanUpVectors: The d-vectors have cracked symmetry at i=35
CleanUpVectors: The d-vectors have cracked symmetry at i=36
CleanUpVectors: The d-vectors have cracked symmetry at i=37
CleanUpVectors: The d-vectors have cracked symmetry at i=38
CleanUpVectors: The f-vectors have cracked symmetry
CleanUpVectors: The f-vectors have cracked symmetry
CleanUpVectors: The f-vectors have cracked symmetry
CleanUpVectors: The f-vectors have cracked symmetry
CleanUpVectors: The f-vectors have cracked symmetry
CleanUpVectors: The f-vectors have cracked symmetry
CleanUpVectors: The f-vectors have cracked symmetry
CleanUpVectors: The p-vectors have cracked symmetry
CleanUpVectors: The p-vectors have cracked symmetry
CleanUpVectors: The p-vectors have cracked symmetry
CleanUpVectors: The d-vectors have cracked symmetry at i=49
CleanUpVectors: The d-vectors have cracked symmetry at i=50
CleanUpVectors: The d-vectors have cracked symmetry at i=51
CleanUpVectors: The d-vectors have cracked symmetry at i=52
CleanUpVectors: The d-vectors have cracked symmetry at i=53
CleanUpVectors: The f-vectors have cracked symmetry
CleanUpVectors: The f-vectors have cracked symmetry
CleanUpVectors: The f-vectors have cracked symmetry
CleanUpVectors: The f-vectors have cracked symmetry
CleanUpVectors: The f-vectors have cracked symmetry
CleanUpVectors: The f-vectors have cracked symmetry
CleanUpVectors: The f-vectors have cracked symmetry
CleanUpVectors: The p-vectors have cracked symmetry
CleanUpVectors: The p-vectors have cracked symmetry
CleanUpVectors: The p-vectors have cracked symmetry
CleanUpVectors: The d-vectors have cracked symmetry at i=65
CleanUpVectors: The d-vectors have cracked symmetry at i=66
CleanUpVectors: The d-vectors have cracked symmetry at i=67
CleanUpVectors: The d-vectors have cracked symmetry at i=68
CleanUpVectors: The d-vectors have cracked symmetry at i=69
CleanUpVectors: The f-vectors have cracked symmetry
CleanUpVectors: The f-vectors have cracked symmetry
CleanUpVectors: The f-vectors have cracked symmetry
CleanUpVectors: The f-vectors have cracked symmetry
CleanUpVectors: The f-vectors have cracked symmetry
CleanUpVectors: The f-vectors have cracked symmetry
CleanUpVectors: The f-vectors have cracked symmetry
CleanUpVectors: The p-vectors have cracked symmetry
CleanUpVectors: The p-vectors have cracked symmetry
CleanUpVectors: The p-vectors have cracked symmetry
CleanUpVectors: The f-vectors have cracked symmetry
CleanUpVectors: The f-vectors have cracked symmetry
CleanUpVectors: The f-vectors have cracked symmetry
CleanUpVectors: The f-vectors have cracked symmetry
CleanUpVectors: The f-vectors have cracked symmetry
CleanUpVectors: The f-vectors have cracked symmetry
CleanUpVectors: The f-vectors have cracked symmetry
CleanUpVectors: The d-vectors have cracked symmetry at i=88
CleanUpVectors: The d-vectors have cracked symmetry at i=89
CleanUpVectors: The d-vectors have cracked symmetry at i=90
CleanUpVectors: The d-vectors have cracked symmetry at i=91
CleanUpVectors: The d-vectors have cracked symmetry at i=92
CleanUpVectors: The p-vectors have cracked symmetry
CleanUpVectors: The p-vectors have cracked symmetry
CleanUpVectors: The p-vectors have cracked symmetry
--------------------------
ATOM BASIS FOR ELEMENT Er
--------------------------
 NewGTO Er
 S 16
    1     105311.479489999998         0.000049639657
    2      17892.162412000001         0.000316415660
    3       4746.138537300000         0.001197346907
    4       1560.114805800000         0.003721207229
    5        567.485197060000         0.007044957096
    6        204.662740760000         0.009683486219
    7         53.398004030000        -0.194905070040
    8         37.837934803000         0.620638292733
    9         19.016099923000        -1.037081079729
   10          4.605512633600         1.001748323833
   11          2.282138860900         0.381475693071
   12          0.881372818700         0.013255200280
   13          0.383603700000        -0.000273704343
   14          0.075421243000         0.000166606034
   15          0.031687360600        -0.000098372262
   16          0.011214851500         0.000027865077
 P 55
    1       4216.193610000000         0.000130730520
    2       1013.427475700000         0.001075630757
    3        319.328048770000         0.005221597240
    4        115.276988090000         0.014614556634
    5         33.036518911000         0.099945990328
    6         25.662131458000        -0.102321595674
    7         14.270399144000        -0.137286841133
    8          7.393419551600         0.339419596466
    9          3.810037762000         0.448923614333
   10       4216.193610000000         0.000069872196
   11       1013.427475700000         0.000574897759
   12        319.328048770000         0.002790813234
   13        115.276988090000         0.007811115296
   14         33.036518911000         0.053418634132
   15         25.662131458000        -0.054688335821
   16         14.270399144000        -0.073376385721
   17          7.393419551600         0.181411292051
   18          3.810037762000         0.239938453043
   19       4216.193610000000         0.000070985666
   20       1013.427475700000         0.000584059220
   21        319.328048770000         0.002835287100
   22        115.276988090000         0.007935591734
   23         33.036518911000         0.054269903257
   24         25.662131458000        -0.055559838670
   25         14.270399144000        -0.074545697754
   26          7.393419551600         0.184302227666
   27          3.810037762000         0.243762066289
   28         23.304446841000         0.000496508571
   29         14.267839305000        -0.001822720467
   30          7.338210181600         0.000048961116
   31         23.304446841000         0.000258622376
   32         14.267839305000        -0.000949422275
   33          7.338210181600         0.000025502964
   34         23.304446841000         0.000266645865
   35         14.267839305000        -0.000978877110
   36          7.338210181600         0.000026294167
   37          1.916613901400         0.154831774515
   38          1.916613901400         0.082509936060
   39          1.916613901400         0.083965974145
   40          0.917820284100         0.007544230433
   41          0.917820284100         0.003930092275
   42          0.917820284100         0.004054709321
   43          0.436705920200         0.002787989846
   44          0.436705920200         0.001503819691
   45          0.436705920200         0.001519864597
   46          0.201033504000        -0.000936758603
   47          0.201033504000        -0.000499293569
   48          0.201033504000        -0.000508236662
   49          0.067000000000         0.000365995984
   50          0.067000000000         0.000202896557
   51          0.067000000000         0.000200170221
   52          0.030000000000        -0.000142118940
   53          0.030000000000        -0.000076879223
   54          0.030000000000        -0.000077674691
   55        181.149692330000        -0.000429495398
 D 55
    1     105311.479489999998        -0.000000000000
    2      17892.162412000001        -0.000000000005
    3       4746.138537300000        -0.000000000073
    4       1560.114805800000        -0.000000000691
    5        567.485197060000        -0.000000003597
    6        204.662740760000        -0.000000013709
    7         53.398004030000         0.000000908246
    8         37.837934803000        -0.000003980116
    9         19.016099923000         0.000012955407
   10          4.605512633600        -0.000056670371
   11          2.282138860900        -0.000048521467
   12          0.881372818700         0.000136885272
   13          0.383603700000         0.000031707010
   14          0.075421243000        -0.000113436179
   15          0.031687360600        -0.001158730286
   16          0.011214851500         0.004187281618
   17        673.760122110000         0.000029570309
   18        202.717857500000         0.000268008068
   19         77.600558304000         0.001299038190
   20         32.777921812000         0.003755819130
   21         13.708395131000         0.007232443858
   22          6.423997967800         0.019506939060
   23        673.760122110000         0.000207554726
   24        202.717857500000         0.001881155201
   25         77.600558304000         0.009117980902
   26         32.777921812000         0.026362186540
   27         13.708395131000         0.050764700730
   28          6.423997967800         0.136919683441
   29        673.760122110000         0.000542540941
   30        202.717857500000         0.004917275226
   31         77.600558304000         0.023834089589
   32         32.777921812000         0.068909852139
   33         13.708395131000         0.132697187920
   34          6.423997967800         0.357903360054
   35        673.760122110000        -0.000015260055
   36        202.717857500000        -0.000138308251
   37         77.600558304000        -0.000670381684
   38         32.777921812000        -0.001938228121
   39         13.708395131000        -0.003732375172
   40          6.423997967800        -0.010066751498
   41        673.760122110000         0.000193344488
   42        202.717857500000         0.001752361876
   43         77.600558304000         0.008493718173
   44         32.777921812000         0.024557298957
   45         13.708395131000         0.047289094569
   46          6.423997967800         0.127545474816
   47          3.148321865100         0.019152429920
   48          3.148321865100         0.134185401018
   49          3.148321865100         0.350516560418
   50          3.148321865100        -0.009989452800
   51          3.148321865100         0.124748800263
   52          1.465812879900         0.007528618075
   53          1.465812879900         0.052917375551
   54          1.465812879900         0.138217662544
   55          1.465812879900        -0.004000484356
 S 16
    1     105311.479489999998        -0.000038845409
    2      17892.162412000001        -0.000247610409
    3       4746.138537300000        -0.000936981301
    4       1560.114805800000        -0.002912022882
    5        567.485197060000        -0.005513016343
    6        204.662740760000        -0.007577791753
    7         53.398004030000         0.080960115369
    8         37.837934803000        -0.273879611302
    9         19.016099923000         0.505629273309
   10          4.605512633600        -0.733114759753
   11          2.282138860900        -0.392440901003
   12          0.881372818700         0.708560196972
   13          0.383603700000         0.648018304434
   14          0.075421243000         0.048438026908
   15          0.031687360600        -0.022804516345
   16          0.011214851500         0.005904589293
 P 55
    1       4216.193610000000         0.000082941598
    2       1013.427475700000         0.000682430804
    3        319.328048770000         0.003312827173
    4        115.276988090000         0.009272162926
    5         33.036518911000         0.063410442704
    6         25.662131458000        -0.064917638602
    7         14.270399144000        -0.087101236828
    8          7.393419551600         0.215343775208
    9          3.810037762000         0.284818280668
   10       4216.193610000000         0.000010306019
   11       1013.427475700000         0.000084796353
   12        319.328048770000         0.000411639777
   13        115.276988090000         0.001152125022
   14         33.036518911000         0.007879149481
   15         25.662131458000        -0.008066428125
   16         14.270399144000        -0.010822880832
   17          7.393419551600         0.026757829188
   18          3.810037762000         0.035390476907
   19       4216.193610000000         0.000031802234
   20       1013.427475700000         0.000261663926
   21        319.328048770000         0.001270234813
   22        115.276988090000         0.003555218407
   23         33.036518911000         0.024313418012
   24         25.662131458000        -0.024891320994
   25         14.270399144000        -0.033397161258
   26          7.393419551600         0.082569100605
   27          3.810037762000         0.109207657607
   28         23.304446841000        -0.013255879808
   29         14.267839305000         0.048663335991
   30          7.338210181600        -0.001307173149
   31         23.304446841000        -0.001652232782
   32         14.267839305000         0.006065471336
   33          7.338210181600        -0.000162928026
   34         23.304446841000        -0.005085113712
   35         14.267839305000         0.018667836515
   36          7.338210181600        -0.000501447222
   37          1.916613901400        -0.020030384327
   38          1.916613901400        -0.002755596750
   39          1.916613901400        -0.007808143853
   40          0.917820284100        -0.414853803690
   41          0.917820284100        -0.052180174468
   42          0.917820284100        -0.159366938136
   43          0.436705920200        -0.452038016926
   44          0.436705920200        -0.054745936995
   45          0.436705920200        -0.172647077930
   46          0.201033504000        -0.182416629384
   47          0.201033504000        -0.022028730644
   48          0.201033504000        -0.069635935604
   49          0.067000000000        -0.006953509328
   50          0.067000000000        -0.002372825065
   51          0.067000000000        -0.003384016463
   52          0.030000000000         0.000650918137
   53          0.030000000000         0.000136071671
   54          0.030000000000         0.000262947699
   55        181.149692330000        -0.004245112500
 S 16
    1     105311.479489999998        -0.000014021247
    2      17892.162412000001        -0.000089374955
    3       4746.138537300000        -0.000338203318
    4       1560.114805800000        -0.001051094404
    5        567.485197060000        -0.001989922765
    6        204.662740760000        -0.002735203268
    7         53.398004030000         0.031742074918
    8         37.837934803000        -0.100602486911
    9         19.016099923000         0.177897674497
   10          4.605512633600        -0.312189838649
   11          2.282138860900         0.018801289901
   12          0.881372818700        -0.084317239377
   13          0.383603700000         1.200941315758
   14          0.075421243000        -3.513000398858
   15          0.031687360600         3.459188120187
   16          0.011214851500        -1.094755500373
 S 16
    1     105311.479489999998        -0.000036180377
    2      17892.162412000001        -0.000230622820
    3       4746.138537300000        -0.000872698653
    4       1560.114805800000        -0.002712240300
    5        567.485197060000        -0.005134789699
    6        204.662740760000        -0.007057908886
    7         53.398004030000         0.018041416792
    8         37.837934803000        -0.125455949112
    9         19.016099923000         0.321249293402
   10          4.605512633600        -0.157869600436
   11          2.282138860900        -1.984456396471
   12          0.881372818700         5.067809815469
   13          0.383603700000        -4.309220340197
   14          0.075421243000         2.162855786176
   15          0.031687360600        -1.481260616666
   16          0.011214851500         0.418659964845
 S 16
    1     105311.479489999998         0.000216196673
    2      17892.162412000001         0.001378091963
    3       4746.138537300000         0.005214830864
    4       1560.114805800000         0.016207054274
    5        567.485197060000         0.030683053910
    6        204.662740760000         0.042174696830
    7         53.398004030000        -0.459840304265
    8         37.837934803000         1.253171251472
    9         19.016099923000        -1.974498803958
   10          4.605512633600         6.312167712341
   11          2.282138860900        -8.674536741825
   12          0.881372818700         5.914445756483
   13          0.383603700000        -2.681598585750
   14          0.075421243000         0.881703338692
   15          0.031687360600        -0.591303048009
   16          0.011214851500         0.168669225657
 S 16
    1     105311.479489999998         0.002348824427
    2      17892.162412000001         0.014971997597
    3       4746.138537300000         0.056655460787
    4       1560.114805800000         0.176078218420
    5        567.485197060000         0.333349748620
    6        204.662740760000         0.458198347119
    7         53.398004030000         0.089632138532
    8         37.837934803000        -0.128603074273
    9         19.016099923000         0.391112000957
   10          4.605512633600        -0.804053816204
   11          2.282138860900         0.908028661460
   12          0.881372818700        -0.521565275150
   13          0.383603700000         0.223983237830
   14          0.075421243000        -0.073805035435
   15          0.031687360600         0.049847609880
   16          0.011214851500        -0.014294450320
 S 16
    1     105311.479489999998         0.000413132751
    2      17892.162412000001         0.002633412049
    3       4746.138537300000         0.009965081287
    4       1560.114805800000         0.030970249559
    5        567.485197060000         0.058632606564
    6        204.662740760000         0.080592121417
    7         53.398004030000        -4.865834303444
    8         37.837934803000         9.815147645776
    9         19.016099923000        -7.322688452238
   10          4.605512633600         4.681851033994
   11          2.282138860900        -4.064903633665
   12          0.881372818700         2.004196005137
   13          0.383603700000        -0.836767563469
   14          0.075421243000         0.278317424202
   15          0.031687360600        -0.189023676556
   16          0.011214851500         0.054414614188
 S 16
    1     105311.479489999998        -0.000312844340
    2      17892.162412000001        -0.001994148498
    3       4746.138537300000        -0.007546047298
    4       1560.114805800000        -0.023452188827
    5        567.485197060000        -0.044399479505
    6        204.662740760000        -0.061028298975
    7         53.398004030000        -8.009261777397
    8         37.837934803000        12.965255683246
    9         19.016099923000        -5.511203741739
   10          4.605512633600         2.205649855730
   11          2.282138860900        -1.799545853571
   12          0.881372818700         0.870308869276
   13          0.383603700000        -0.364169350598
   14          0.075421243000         0.122016573550
   15          0.031687360600        -0.083030316504
   16          0.011214851500         0.023930524133
 S 16
    1     105311.479489999998        -0.003006411985
    2      17892.162412000001        -0.019163626064
    3       4746.138537300000        -0.072516980980
    4       1560.114805800000        -0.225373876391
    5        567.485197060000        -0.426675858687
    6        204.662740760000        -0.586477638023
    7         53.398004030000        10.656338005618
    8         37.837934803000       -13.038018594821
    9         19.016099923000         4.312570485385
   10          4.605512633600        -1.532695969853
   11          2.282138860900         1.241371245404
   12          0.881372818700        -0.600620879244
   13          0.383603700000         0.251846737783
   14          0.075421243000        -0.084589136681
   15          0.031687360600         0.057592110790
   16          0.011214851500        -0.016603965708
 P 55
    1       4216.193610000000        -0.000012569764
    2       1013.427475700000        -0.000103422102
    3        319.328048770000        -0.000502057566
    4        115.276988090000        -0.001405192396
    5         33.036518911000        -0.009609825949
    6         25.662131458000         0.009838240854
    7         14.270399144000         0.013200155844
    8          7.393419551600        -0.032635258652
    9          3.810037762000        -0.043164090764
   10       4216.193610000000         0.000088273719
   11       1013.427475700000         0.000726302681
   12        319.328048770000         0.003525801069
   13        115.276988090000         0.009868248553
   14         33.036518911000         0.067486951477
   15         25.662131458000        -0.069091041468
   16         14.270399144000        -0.092700771242
   17          7.393419551600         0.229187721907
   18          3.810037762000         0.303128580525
   19       4216.193610000000         0.000004517171
   20       1013.427475700000         0.000037166595
   21        319.328048770000         0.000180423429
   22        115.276988090000         0.000504981195
   23         33.036518911000         0.003453464029
   24         25.662131458000        -0.003535549039
   25         14.270399144000        -0.004743713739
   26          7.393419551600         0.011728067963
   27          3.810037762000         0.015511793408
   28         23.304446841000         0.002006312502
   29         14.267839305000        -0.007365324730
   30          7.338210181600         0.000197844117
   31         23.304446841000        -0.014124055676
   32         14.267839305000         0.051850475177
   33          7.338210181600        -0.001392784682
   34         23.304446841000        -0.000724326200
   35         14.267839305000         0.002659056189
   36          7.338210181600        -0.000071426399
   37          1.916613901400         0.002794298988
   38          1.916613901400        -0.021422520752
   39          1.916613901400        -0.001183073075
   40          0.917820284100         0.062466926662
   41          0.917820284100        -0.443074341338
   42          0.917820284100        -0.022847271650
   43          0.436705920200         0.069348264747
   44          0.436705920200        -0.477174498388
   45          0.436705920200        -0.024030277159
   46          0.201033504000         0.028429500479
   47          0.201033504000        -0.195186188131
   48          0.201033504000        -0.009748948556
   49          0.067000000000         0.000599179421
   50          0.067000000000        -0.014939272388
   51          0.067000000000        -0.001092231685
   52          0.030000000000        -0.000052979985
   53          0.030000000000         0.001108752730
   54          0.030000000000        -0.000068951283
   55        181.149692330000        -0.000277910359
 F 55
    1       4216.193610000000         0.000000000034
    2       1013.427475700000         0.000000001172
    3        319.328048770000         0.000000018053
    4        115.276988090000         0.000000139968
    5         33.036518911000         0.000003340084
    6         25.662131458000        -0.000004402110
    7         14.270399144000        -0.000010621334
    8          7.393419551600         0.000050684812
    9          3.810037762000         0.000130085667
   10       4216.193610000000         0.000000000007
   11       1013.427475700000         0.000000000234
   12        319.328048770000         0.000000003605
   13        115.276988090000         0.000000027953
   14         33.036518911000         0.000000667055
   15         25.662131458000        -0.000000879154
   16         14.270399144000        -0.000002121207
   17          7.393419551600         0.000010122363
   18          3.810037762000         0.000025979663
   19       4216.193610000000         0.000000000005
   20       1013.427475700000         0.000000000176
   21        319.328048770000         0.000000002708
   22        115.276988090000         0.000000020997
   23         33.036518911000         0.000000501057
   24         25.662131458000        -0.000000660375
   25         14.270399144000        -0.000001593341
   26          7.393419551600         0.000007603392
   27          3.810037762000         0.000019514569
   28         23.304446841000        -0.000001028439
   29         14.267839305000         0.000006166695
   30          7.338210181600        -0.000000322071
   31         23.304446841000        -0.000000259017
   32         14.267839305000         0.000001553107
   33          7.338210181600        -0.000000081115
   34         23.304446841000        -0.000000209355
   35         14.267839305000         0.000001255326
   36          7.338210181600        -0.000000065563
   37          1.916613901400        -0.000054317234
   38          1.916613901400        -0.000010579239
   39          1.916613901400        -0.000015476327
   40          0.917820284100        -0.000733365268
   41          0.917820284100        -0.000171750408
   42          0.917820284100        -0.000148541758
   43          0.436705920200        -0.001812212733
   44          0.436705920200        -0.000417942873
   45          0.436705920200        -0.000345849392
   46          0.201033504000        -0.000253960306
   47          0.201033504000        -0.000365354043
   48          0.201033504000         0.000372685733
   49          0.067000000000         0.000059631335
   50          0.067000000000        -0.003698727273
   51          0.067000000000         0.003687164735
   52          0.030000000000        -0.001963043298
   53          0.030000000000        -0.001492169354
   54          0.030000000000         0.000406993382
   55        181.149692330000         0.002168226951
 F 55
    1       4216.193610000000        -0.000000000570
    2       1013.427475700000        -0.000000019520
    3        319.328048770000        -0.000000300735
    4        115.276988090000        -0.000002331636
    5         33.036518911000        -0.000055640218
    6         25.662131458000         0.000073331793
    7         14.270399144000         0.000176933682
    8          7.393419551600        -0.000844324292
    9          3.810037762000        -0.002167009893
   10       4216.193610000000         0.000000000055
   11       1013.427475700000         0.000000001867
   12        319.328048770000         0.000000028761
   13        115.276988090000         0.000000222991
   14         33.036518911000         0.000005321271
   15         25.662131458000        -0.000007013243
   16         14.270399144000        -0.000016921431
   17          7.393419551600         0.000080748758
   18          3.810037762000         0.000207246621
   19       4216.193610000000        -0.000000000159
   20       1013.427475700000        -0.000000005452
   21        319.328048770000        -0.000000083996
   22        115.276988090000        -0.000000651234
   23         33.036518911000        -0.000015540506
   24         25.662131458000         0.000020481824
   25         14.270399144000         0.000049418190
   26          7.393419551600        -0.000235822700
   27          3.810037762000        -0.000605253371
   28         23.304446841000         0.000016261672
   29         14.267839305000        -0.000097507743
   30          7.338210181600         0.000005092586
   31         23.304446841000        -0.000001547771
   32         14.267839305000         0.000009280698
   33          7.338210181600        -0.000000484708
   34         23.304446841000         0.000004545787
   35         14.267839305000        -0.000027257312
   36          7.338210181600         0.000001423581
   37          1.916613901400         0.002582128569
   38          1.916613901400        -0.000246539490
   39          1.916613901400         0.000721386046
   40          0.917820284100         0.000714578451
   41          0.917820284100        -0.000031428260
   42          0.917820284100         0.000218844565
   43          0.436705920200         0.093685394102
   44          0.436705920200        -0.009077847381
   45          0.436705920200         0.026105077606
   46          0.201033504000        -0.170531375559
   47          0.201033504000         0.016470684356
   48          0.201033504000        -0.047545294991
   49          0.067000000000         1.739823698607
   50          0.067000000000        -0.172287895489
   51          0.067000000000         0.482864119997
   52          0.030000000000       -10.699302144783
   53          0.030000000000         1.043219800458
   54          0.030000000000        -2.977942940609
   55        181.149692330000         0.000002061943
 F 55
    1       4216.193610000000        -0.000000001192
    2       1013.427475700000        -0.000000040799
    3        319.328048770000        -0.000000628553
    4        115.276988090000        -0.000004873251
    5         33.036518911000        -0.000116291206
    6         25.662131458000         0.000153267599
    7         14.270399144000         0.000369801415
    8          7.393419551600        -0.001764685582
    9          3.810037762000        -0.004529173390
   10       4216.193610000000         0.000000000105
   11       1013.427475700000         0.000000003602
   12        319.328048770000         0.000000055498
   13        115.276988090000         0.000000430285
   14         33.036518911000         0.000010267958
   15         25.662131458000        -0.000013532797
   16         14.270399144000        -0.000032651698
   17          7.393419551600         0.000155813304
   18          3.810037762000         0.000399904367
   19       4216.193610000000        -0.000000000337
   20       1013.427475700000        -0.000000011538
   21        319.328048770000        -0.000000177757
   22        115.276988090000        -0.000001378168
   23         33.036518911000        -0.000032887457
   24         25.662131458000         0.000043344477
   25         14.270399144000         0.000104580806
   26          7.393419551600        -0.000499057693
   27          3.810037762000        -0.001280862066
   28         23.304446841000         0.000041967527
   29         14.267839305000        -0.000251644411
   30          7.338210181600         0.000013142760
   31         23.304446841000        -0.000003697470
   32         14.267839305000         0.000022170656
   33          7.338210181600        -0.000001157918
   34         23.304446841000         0.000011872639
   35         14.267839305000        -0.000071190354
   36          7.338210181600         0.000003718095
   37          1.916613901400        -0.005805794792
   38          1.916613901400         0.000527474517
   39          1.916613901400        -0.001634337675
   40          0.917820284100         0.077528584965
   41          0.917820284100        -0.006845101871
   42          0.917820284100         0.021926059995
   43          0.436705920200        -0.112304876214
   44          0.436705920200         0.010025625656
   45          0.436705920200        -0.031705773251
   46          0.201033504000         0.972715532332
   47          0.201033504000        -0.087588371592
   48          0.201033504000         0.274221807939
   49          0.067000000000        -8.625811791540
   50          0.067000000000         0.766586905831
   51          0.067000000000        -2.436976459136
   52          0.030000000000        12.014371916029
   53          0.030000000000        -1.060864127355
   54          0.030000000000         3.397859290167
   55        181.149692330000         0.000006463386
 D 55
    1     105311.479489999998        -0.000000000000
    2      17892.162412000001        -0.000000000000
    3       4746.138537300000        -0.000000000006
    4       1560.114805800000        -0.000000000058
    5        567.485197060000        -0.000000000301
    6        204.662740760000        -0.000000001147
    7         53.398004030000         0.000000037505
    8         37.837934803000        -0.000000197568
    9         19.016099923000         0.000000749706
   10          4.605512633600        -0.000002557429
   11          2.282138860900        -0.000013984209
   12          0.881372818700         0.000062442606
   13          0.383603700000        -0.000179813665
   14          0.075421243000         0.003886429844
   15          0.031687360600        -0.009576210066
   16          0.011214851500         0.008108766427
   17        673.760122110000        -0.000004713050
   18        202.717857500000        -0.000042716345
   19         77.600558304000        -0.000207046616
   20         32.777921812000        -0.000598619537
   21         13.708395131000        -0.001152739801
   22          6.423997967800        -0.003109104680
   23        673.760122110000         0.000029393125
   24        202.717857500000         0.000266402169
   25         77.600558304000         0.001291254378
   26         32.777921812000         0.003733314332
   27         13.708395131000         0.007189107191
   28          6.423997967800         0.019390053849
   29        673.760122110000         0.000030728087
   30        202.717857500000         0.000278501494
   31         77.600558304000         0.001349899943
   32         32.777921812000         0.003902872192
   33         13.708395131000         0.007515618573
   34          6.423997967800         0.020270701908
   35        673.760122110000         0.000129009653
   36        202.717857500000         0.001169268385
   37         77.600558304000         0.005667457313
   38         32.777921812000         0.016385926719
   39         13.708395131000         0.031553781203
   40          6.423997967800         0.085105076392
   41        673.760122110000        -0.000064346180
   42        202.717857500000        -0.000583196311
   43         77.600558304000        -0.002826759227
   44         32.777921812000        -0.008172813130
   45         13.708395131000        -0.015738088040
   46          6.423997967800        -0.042447882119
   47          3.148321865100        -0.002794913021
   48          3.148321865100         0.017344829503
   49          3.148321865100         0.018182992807
   50          3.148321865100         0.076311397232
   51          3.148321865100        -0.038045802489
   52          1.465812879900         0.003885469258
   53          1.465812879900        -0.024332731399
   54          1.465812879900        -0.025365836976
   55          1.465812879900        -0.106758483306
 F 55
    1       4216.193610000000         0.000000000005
    2       1013.427475700000         0.000000000156
    3        319.328048770000         0.000000002399
    4        115.276988090000         0.000000018598
    5         33.036518911000         0.000000443799
    6         25.662131458000        -0.000000584911
    7         14.270399144000        -0.000001411263
    8          7.393419551600         0.000006734519
    9          3.810037762000         0.000017284555
   10       4216.193610000000         0.000000000010
   11       1013.427475700000         0.000000000343
   12        319.328048770000         0.000000005285
   13        115.276988090000         0.000000040976
   14         33.036518911000         0.000000977806
   15         25.662131458000        -0.000001288712
   16         14.270399144000        -0.000003109383
   17          7.393419551600         0.000014837918
   18          3.810037762000         0.000038082423
   19       4216.193610000000         0.000000000008
   20       1013.427475700000         0.000000000265
   21        319.328048770000         0.000000004086
   22        115.276988090000         0.000000031676
   23         33.036518911000         0.000000755891
   24         25.662131458000        -0.000000996236
   25         14.270399144000        -0.000002403702
   26          7.393419551600         0.000011470421
   27          3.810037762000         0.000029439536
   28         23.304446841000        -0.000000112843
   29         14.267839305000         0.000000676628
   30          7.338210181600        -0.000000035339
   31         23.304446841000        -0.000000259390
   32         14.267839305000         0.000001555348
   33          7.338210181600        -0.000000081232
   34         23.304446841000        -0.000000214443
   35         14.267839305000         0.000001285834
   36          7.338210181600        -0.000000067156
   37          1.916613901400        -0.000046087348
   38          1.916613901400        -0.000081826949
   39          1.916613901400        -0.000070720298
   40          0.917820284100         0.000175426991
   41          0.917820284100         0.000243894750
   42          0.917820284100         0.000213269773
   43          0.436705920200        -0.001669109106
   44          0.436705920200        -0.003159078666
   45          0.436705920200        -0.002777375327
   46          0.201033504000         0.004859238431
   47          0.201033504000         0.009980389580
   48          0.201033504000         0.009157468159
   49          0.067000000000        -0.008066663466
   50          0.067000000000        -0.023016651978
   51          0.067000000000        -0.023695755267
   52          0.030000000000         0.007749409095
   53          0.030000000000         0.018971480841
   54          0.030000000000         0.018822187837
   55        181.149692330000         0.000029603132
 D 55
    1     105311.479489999998         0.000000000000
    2      17892.162412000001         0.000000000007
    3       4746.138537300000         0.000000000103
    4       1560.114805800000         0.000000000972
    5        567.485197060000         0.000000005060
    6        204.662740760000         0.000000019285
    7         53.398004030000        -0.000000076076
    8         37.837934803000         0.000001513440
    9         19.016099923000        -0.000008931139
   10          4.605512633600         0.000018481807
   11          2.282138860900         0.000537594591
   12          0.881372818700        -0.003790616267
   13          0.383603700000         0.007587173579
   14          0.075421243000        -0.015039859351
   15          0.031687360600         0.022490665219
   16          0.011214851500        -0.018607273937
   17        673.760122110000         0.000018765549
   18        202.717857500000         0.000170080012
   19         77.600558304000         0.000824379777
   20         32.777921812000         0.002383472140
   21         13.708395131000         0.004589765334
   22          6.423997967800         0.012379255812
   23        673.760122110000         0.000263233167
   24        202.717857500000         0.002385792179
   25         77.600558304000         0.011563962135
   26         32.777921812000         0.033434082636
   27         13.708395131000         0.064382793007
   28          6.423997967800         0.173649632732
   29        673.760122110000         0.000014441016
   30        202.717857500000         0.000130884964
   31         77.600558304000         0.000634400927
   32         32.777921812000         0.001834199453
   33         13.708395131000         0.003532050962
   34          6.423997967800         0.009526448351
   35        673.760122110000        -0.000016306535
   36        202.717857500000        -0.000147792936
   37         77.600558304000        -0.000716354060
   38         32.777921812000        -0.002071144868
   39         13.708395131000        -0.003988328101
   40          6.423997967800        -0.010757093280
   41        673.760122110000         0.000081794624
   42        202.717857500000         0.000741338852
   43         77.600558304000         0.003593277946
   44         32.777921812000         0.010388995604
   45         13.708395131000         0.020005709766
   46          6.423997967800         0.053958270388
   47          3.148321865100         0.001150995084
   48          3.148321865100         0.015354198303
   49          3.148321865100         0.000871863965
   50          3.148321865100        -0.000939567006
   51          3.148321865100         0.004753595135
   52          1.465812879900         0.006617888011
   53          1.465812879900         0.095882466820
   54          1.465812879900         0.004955450335
   55          1.465812879900        -0.006334582507
 F 55
    1       4216.193610000000        -0.000000000020
    2       1013.427475700000        -0.000000000698
    3        319.328048770000        -0.000000010747
    4        115.276988090000        -0.000000083321
    5         33.036518911000        -0.000001988313
    6         25.662131458000         0.000002620525
    7         14.270399144000         0.000006322757
    8          7.393419551600        -0.000030172080
    9          3.810037762000        -0.000077438486
   10       4216.193610000000        -0.000000000036
   11       1013.427475700000        -0.000000001236
   12        319.328048770000        -0.000000019036
   13        115.276988090000        -0.000000147590
   14         33.036518911000        -0.000003521954
   15         25.662131458000         0.000004641808
   16         14.270399144000         0.000011199674
   17          7.393419551600        -0.000053444640
   18          3.810037762000        -0.000137168935
   19       4216.193610000000         0.000000000032
   20       1013.427475700000         0.000000001091
   21        319.328048770000         0.000000016808
   22        115.276988090000         0.000000130314
   23         33.036518911000         0.000003109701
   24         25.662131458000        -0.000004098474
   25         14.270399144000        -0.000009888726
   26          7.393419551600         0.000047188821
   27          3.810037762000         0.000121112994
   28         23.304446841000         0.000001219280
   29         14.267839305000        -0.000007311010
   30          7.338210181600         0.000000381836
   31         23.304446841000         0.000002263933
   32         14.267839305000        -0.000013574927
   33          7.338210181600         0.000000708985
   34         23.304446841000        -0.000002038951
   35         14.267839305000         0.000012225896
   36          7.338210181600        -0.000000638528
   37          1.916613901400        -0.000737550356
   38          1.916613901400        -0.001473247254
   39          1.916613901400         0.001340063729
   40          0.917820284100         0.006292589067
   41          0.917820284100         0.012391053619
   42          0.917820284100        -0.011261609604
   43          0.436705920200        -0.016645696602
   44          0.436705920200        -0.033157063342
   45          0.436705920200         0.030255211214
   46          0.201033504000         0.024366926837
   47          0.201033504000         0.048617077497
   48          0.201033504000        -0.044454044316
   49          0.067000000000        -0.036325768044
   50          0.067000000000        -0.073055036258
   51          0.067000000000         0.066703751337
   52          0.030000000000         0.031301027089
   53          0.030000000000         0.063121208390
   54          0.030000000000        -0.057598049284
   55        181.149692330000         0.000588670674
 P 55
    1       4216.193610000000         0.000002906940
    2       1013.427475700000         0.000023917858
    3        319.328048770000         0.000116108079
    4        115.276988090000         0.000324971080
    5         33.036518911000         0.002222411341
    6         25.662131458000        -0.002275235594
    7         14.270399144000        -0.003052727095
    8          7.393419551600         0.007547375920
    9          3.810037762000         0.009982320738
   10       4216.193610000000         0.000068614987
   11       1013.427475700000         0.000564553633
   12        319.328048770000         0.002740598178
   13        115.276988090000         0.007670570027
   14         33.036518911000         0.052457473523
   15         25.662131458000        -0.053704329491
   16         14.270399144000        -0.072056125615
[...]
  BAS[ATNO][ 25].a[ 35] =       202.717857500000;     BAS[ATNO][ 25].d[ 35] =        -0.002014268813;
  BAS[ATNO][ 25].a[ 36] =        77.600558304000;     BAS[ATNO][ 25].d[ 36] =        -0.009763184108;
  BAS[ATNO][ 25].a[ 37] =        32.777921812000;     BAS[ATNO][ 25].d[ 37] =        -0.028227617875;
  BAS[ATNO][ 25].a[ 38] =        13.708395131000;     BAS[ATNO][ 25].d[ 38] =        -0.054356893788;
  BAS[ATNO][ 25].a[ 39] =         6.423997967800;     BAS[ATNO][ 25].d[ 39] =        -0.146608343655;
  BAS[ATNO][ 25].a[ 40] =       673.760122110000;     BAS[ATNO][ 25].d[ 40] =        -0.000622748656;
  BAS[ATNO][ 25].a[ 41] =       202.717857500000;     BAS[ATNO][ 25].d[ 41] =        -0.005644231264;
  BAS[ATNO][ 25].a[ 42] =        77.600558304000;     BAS[ATNO][ 25].d[ 42] =        -0.027357653867;
  BAS[ATNO][ 25].a[ 43] =        32.777921812000;     BAS[ATNO][ 25].d[ 43] =        -0.079097289443;
  BAS[ATNO][ 25].a[ 44] =        13.708395131000;     BAS[ATNO][ 25].d[ 44] =        -0.152314764222;
  BAS[ATNO][ 25].a[ 45] =         6.423997967800;     BAS[ATNO][ 25].d[ 45] =        -0.410814778786;
  BAS[ATNO][ 25].a[ 46] =         3.148321865100;     BAS[ATNO][ 25].d[ 46] =        -0.847713940678;
  BAS[ATNO][ 25].a[ 47] =         3.148321865100;     BAS[ATNO][ 25].d[ 47] =         2.204705690123;
  BAS[ATNO][ 25].a[ 48] =         3.148321865100;     BAS[ATNO][ 25].d[ 48] =         0.418495642431;
  BAS[ATNO][ 25].a[ 49] =         3.148321865100;     BAS[ATNO][ 25].d[ 49] =         0.402759891257;
  BAS[ATNO][ 25].a[ 50] =         3.148321865100;     BAS[ATNO][ 25].d[ 50] =         1.128132799523;
  BAS[ATNO][ 25].a[ 51] =         1.465812879900;     BAS[ATNO][ 25].d[ 51] =         0.693805546163;
  BAS[ATNO][ 25].a[ 52] =         1.465812879900;     BAS[ATNO][ 25].d[ 52] =        -1.804533288766;
  BAS[ATNO][ 25].a[ 53] =         1.465812879900;     BAS[ATNO][ 25].d[ 53] =        -0.342720605937;
  BAS[ATNO][ 25].a[ 54] =         1.465812879900;     BAS[ATNO][ 25].d[ 54] =        -0.329991939128;

  // Basis function  27 L = p
  InitBFNGauss(BAS[ATNO][ 26]);
  BAS[ATNO][ 26].l  = 1;
  BAS[ATNO][ 26].ng = 55;
  BAS[ATNO][ 26].a[  0] =      4216.193610000000;     BAS[ATNO][ 26].d[  0] =         0.000094896407;
  BAS[ATNO][ 26].a[  1] =      1013.427475700000;     BAS[ATNO][ 26].d[  1] =         0.000780793149;
  BAS[ATNO][ 26].a[  2] =       319.328048770000;     BAS[ATNO][ 26].d[  2] =         0.003790322397;
  BAS[ATNO][ 26].a[  3] =       115.276988090000;     BAS[ATNO][ 26].d[  3] =         0.010608608590;
  BAS[ATNO][ 26].a[  4] =        33.036518911000;     BAS[ATNO][ 26].d[  4] =         0.072550123694;
  BAS[ATNO][ 26].a[  5] =        25.662131458000;     BAS[ATNO][ 26].d[  5] =        -0.074274559674;
  BAS[ATNO][ 26].a[  6] =        14.270399144000;     BAS[ATNO][ 26].d[  6] =        -0.099655596719;
  BAS[ATNO][ 26].a[  7] =         7.393419551600;     BAS[ATNO][ 26].d[  7] =         0.246382407409;
  BAS[ATNO][ 26].a[  8] =         3.810037762000;     BAS[ATNO][ 26].d[  8] =         0.325870639156;
  BAS[ATNO][ 26].a[  9] =      4216.193610000000;     BAS[ATNO][ 26].d[  9] =        -0.000502920664;
  BAS[ATNO][ 26].a[ 10] =      1013.427475700000;     BAS[ATNO][ 26].d[ 10] =        -0.004137954430;
  BAS[ATNO][ 26].a[ 11] =       319.328048770000;     BAS[ATNO][ 26].d[ 11] =        -0.020087498686;
  BAS[ATNO][ 26].a[ 12] =       115.276988090000;     BAS[ATNO][ 26].d[ 12] =        -0.056222238852;
  BAS[ATNO][ 26].a[ 13] =        33.036518911000;     BAS[ATNO][ 26].d[ 13] =        -0.384492494780;
  BAS[ATNO][ 26].a[ 14] =        25.662131458000;     BAS[ATNO][ 26].d[ 14] =         0.393631454962;
  BAS[ATNO][ 26].a[ 15] =        14.270399144000;     BAS[ATNO][ 26].d[ 15] =         0.528142848697;
  BAS[ATNO][ 26].a[ 16] =         7.393419551600;     BAS[ATNO][ 26].d[ 16] =        -1.305748104492;
  BAS[ATNO][ 26].a[ 17] =         3.810037762000;     BAS[ATNO][ 26].d[ 17] =        -1.727010357035;
  BAS[ATNO][ 26].a[ 18] =      4216.193610000000;     BAS[ATNO][ 26].d[ 18] =         0.000286284347;
  BAS[ATNO][ 26].a[ 19] =      1013.427475700000;     BAS[ATNO][ 26].d[ 19] =         0.002355503895;
  BAS[ATNO][ 26].a[ 20] =       319.328048770000;     BAS[ATNO][ 26].d[ 20] =         0.011434679190;
  BAS[ATNO][ 26].a[ 21] =       115.276988090000;     BAS[ATNO][ 26].d[ 21] =         0.032004147187;
  BAS[ATNO][ 26].a[ 22] =        33.036518911000;     BAS[ATNO][ 26].d[ 22] =         0.218869875101;
  BAS[ATNO][ 26].a[ 23] =        25.662131458000;     BAS[ATNO][ 26].d[ 23] =        -0.224072169296;
  BAS[ATNO][ 26].a[ 24] =        14.270399144000;     BAS[ATNO][ 26].d[ 24] =        -0.300641913429;
  BAS[ATNO][ 26].a[ 25] =         7.393419551600;     BAS[ATNO][ 26].d[ 25] =         0.743288694638;
  BAS[ATNO][ 26].a[ 26] =         3.810037762000;     BAS[ATNO][ 26].d[ 26] =         0.983089517412;
  BAS[ATNO][ 26].a[ 27] =        23.304446841000;     BAS[ATNO][ 26].d[ 27] =         0.099614579399;
  BAS[ATNO][ 26].a[ 28] =        14.267839305000;     BAS[ATNO][ 26].d[ 28] =        -0.365692644864;
  BAS[ATNO][ 26].a[ 29] =         7.338210181600;     BAS[ATNO][ 26].d[ 29] =         0.009823075145;
  BAS[ATNO][ 26].a[ 30] =        23.304446841000;     BAS[ATNO][ 26].d[ 30] =        -0.527779909327;
  BAS[ATNO][ 26].a[ 31] =        14.267839305000;     BAS[ATNO][ 26].d[ 31] =         1.937519910366;
  BAS[ATNO][ 26].a[ 32] =         7.338210181600;     BAS[ATNO][ 26].d[ 32] =        -0.052044808506;
  BAS[ATNO][ 26].a[ 33] =        23.304446841000;     BAS[ATNO][ 26].d[ 33] =         0.300442469768;
  BAS[ATNO][ 26].a[ 34] =        14.267839305000;     BAS[ATNO][ 26].d[ 34] =        -1.102946998947;
  BAS[ATNO][ 26].a[ 35] =         7.338210181600;     BAS[ATNO][ 26].d[ 35] =         0.029626877662;
  BAS[ATNO][ 26].a[ 36] =         1.916613901400;     BAS[ATNO][ 26].d[ 36] =        -0.587176541264;
  BAS[ATNO][ 26].a[ 37] =         1.916613901400;     BAS[ATNO][ 26].d[ 37] =         3.112830913553;
  BAS[ATNO][ 26].a[ 38] =         1.916613901400;     BAS[ATNO][ 26].d[ 38] =        -1.771912656588;
  BAS[ATNO][ 26].a[ 39] =         0.917820284100;     BAS[ATNO][ 26].d[ 39] =         0.487475707172;
  BAS[ATNO][ 26].a[ 40] =         0.917820284100;     BAS[ATNO][ 26].d[ 40] =        -2.584975399364;
  BAS[ATNO][ 26].a[ 41] =         0.917820284100;     BAS[ATNO][ 26].d[ 41] =         1.471410966152;
  BAS[ATNO][ 26].a[ 42] =         0.436705920200;     BAS[ATNO][ 26].d[ 42] =        -0.293804552190;
  BAS[ATNO][ 26].a[ 43] =         0.436705920200;     BAS[ATNO][ 26].d[ 43] =         1.558168173685;
  BAS[ATNO][ 26].a[ 44] =         0.436705920200;     BAS[ATNO][ 26].d[ 44] =        -0.886927388715;
  BAS[ATNO][ 26].a[ 45] =         0.201033504000;     BAS[ATNO][ 26].d[ 45] =         0.127094668465;
  BAS[ATNO][ 26].a[ 46] =         0.201033504000;     BAS[ATNO][ 26].d[ 46] =        -0.673993641571;
  BAS[ATNO][ 26].a[ 47] =         0.201033504000;     BAS[ATNO][ 26].d[ 47] =         0.383646405601;
  BAS[ATNO][ 26].a[ 48] =         0.067000000000;     BAS[ATNO][ 26].d[ 48] =        -0.045436445057;
  BAS[ATNO][ 26].a[ 49] =         0.067000000000;     BAS[ATNO][ 26].d[ 49] =         0.240884082139;
  BAS[ATNO][ 26].a[ 50] =         0.067000000000;     BAS[ATNO][ 26].d[ 50] =        -0.137117228513;
  BAS[ATNO][ 26].a[ 51] =         0.030000000000;     BAS[ATNO][ 26].d[ 51] =         0.017366242886;
  BAS[ATNO][ 26].a[ 52] =         0.030000000000;     BAS[ATNO][ 26].d[ 52] =        -0.092048879586;
  BAS[ATNO][ 26].a[ 53] =         0.030000000000;     BAS[ATNO][ 26].d[ 53] =         0.052397351960;
  BAS[ATNO][ 26].a[ 54] =       181.149692330000;     BAS[ATNO][ 26].d[ 54] =        -0.000006219618;

-------------------------------------------
RADIAL EXPECTATION VALUES <R**-3> TO <R**3>
-------------------------------------------
   0 :     0.000000     5.969697     2.096478     0.522065     0.295923     0.181943
   1 :    24.031386     5.414987     2.087383     0.548356     0.335726     0.227211
   2 :    24.033970     5.415411     2.087456     0.548341     0.335709     0.227196
   3 :    24.032590     5.415233     2.087420     0.548354     0.335727     0.227219
   4 :    19.420595     5.411401     2.065886     0.583886     0.399211     1.572708
   5 :    19.418901     5.411122     2.065853     0.583852     0.399036     1.568932
   6 :    19.424089     5.411315     2.065624     0.584339     0.400750     1.600497
   7 :    19.416045     5.410642     2.065780     0.583849     0.398987     1.567809
   8 :    19.418142     5.411139     2.065901     0.583797     0.398916     1.567841
   9 :     0.000000     1.859372     0.920730     1.297062     1.894047     3.070502
  10 :     5.230490     1.176513     0.829584     1.518016     2.650700     5.214826
  11 :     0.000000     0.058484     0.169429     7.359438    64.110863   636.257382
  12 :     0.000000     0.070244     0.166049     8.562665    91.964901  1115.377978
  13 :     0.000000     0.249759     0.287118     5.230651    39.238154   386.689156
  14 :     0.000000     1.396337     0.661049     2.355159     9.253401    64.365781
  15 :     0.000000    25.107819     1.638719     1.117245     2.311994    11.422075
  16 :     0.000000  2783.336177    36.500215     0.053028     0.020524     0.082079
  17 :     0.000000    60.555789     3.644162     0.402306     0.336154     1.198729
  18 :     0.000000   127.881029     6.826130     0.209575     0.088252     0.234967
  19 :     0.000000  2022.294122    22.613711     0.119379     0.041291     0.112184
  20 :     5.213782     1.173163     0.828098     1.522539     2.671996     5.310121
  21 :     5.209762     1.172473     0.827840     1.523112     2.674327     5.319057
  22 :    11.212719     3.831269     1.704734     0.787092     0.843827     8.579580
  23 :    11.222079     3.834576     1.705995     0.785105     0.836248     8.429781
  24 :    11.229859     3.836892     1.706689     0.784541     0.834838     8.402098
  25 :    11.226738     3.835829     1.706314     0.785102     0.837113     8.437541
  26 :    11.221355     3.834244     1.705817     0.785642     0.838961     8.466274
  27 :    11.197469     3.826465     1.703146     0.789316     0.853111     8.700096
  28 :    11.181199     3.821954     1.701969     0.789615     0.851863     8.699283
  29 :     0.525702     0.230334     0.344928     3.816581    17.259769   434.997235
  30 :     0.063711     0.037201     0.160087     6.958389    52.095955   414.784399
  31 :     0.075349     0.039884     0.161376     6.949692    52.019360   414.196374
  32 :     0.074886     0.039762     0.161308     6.950529    52.029072   414.291516
  33 :     0.189204     0.115313     0.264531     4.543325    23.100769   626.151693
  34 :     0.185968     0.113803     0.263393     4.548643    23.060277   632.999322
  35 :     0.185886     0.113753     0.263332     4.549495    23.067760   633.266064
  36 :     0.174350     0.109016     0.259134     4.596769    23.467351   647.180027
  37 :     0.321936     0.110787     0.235533     5.569614    37.828617   299.830427
  38 :     0.338480     0.114333     0.236612     5.578359    37.968247   301.349254
  39 :     0.337852     0.114180     0.236545     5.578704    37.971907   301.377618
  40 :     0.779303     0.310688     0.379371     3.994124    20.273465   585.798603
  41 :     0.968305     0.387638     0.444576     3.318097    14.791345   393.474019
  42 :     0.977406     0.390204     0.446810     3.291684    14.513261   390.232060
  43 :     0.977686     0.390315     0.446900     3.290726    14.505367   389.948239
  44 :     0.993080     0.396097     0.451495     3.243887    14.117471   376.629098
  45 :     0.455321     0.225906     0.353017     3.327493    11.871472   287.553457
  46 :     0.421913     0.224606     0.353284     3.305997    11.594482   291.710632
  47 :     0.420105     0.223470     0.352724     3.309790    11.627662   291.871652
  48 :     0.423018     0.226449     0.354034     3.301605    11.544284   292.393995
  49 :     0.395186     0.217986     0.350899     3.307071    11.557139   293.744053
  50 :     0.423275     0.225832     0.353763     3.303822    11.567577   292.112639
  51 :     0.424588     0.226350     0.353924     3.303612    11.564684   292.227963
  52 :     1.937532     0.397829     0.407238     3.600319    17.168286   115.298593
  53 :     1.994536     0.404978     0.409465     3.604213    17.262610   110.152114
  54 :     1.994775     0.405034     0.409489     3.604091    17.261451   110.121460
  55 :     2.825979     0.851477     0.627218     2.491643     8.455794   183.073538
  56 :     2.830776     0.851676     0.627319     2.491352     8.451571   182.888583
  57 :     2.831094     0.851809     0.627412     2.490875     8.448742   182.814565
  58 :     2.766057     0.832487     0.618091     2.523026     8.601381   185.790587
  59 :     2.834856     0.852598     0.627622     2.489453     8.433151   182.160605
  60 :     1.977045     0.761144     0.609880     2.317702     6.395604   140.827796
  61 :     1.981762     0.762505     0.610228     2.318168     6.400306   141.058943
  62 :     1.977424     0.761332     0.609946     2.317503     6.394165   140.805313
  63 :     1.979422     0.761888     0.610050     2.318274     6.400094   141.105573
  64 :     1.979953     0.762117     0.610132     2.317993     6.398033   141.029938
  65 :     1.979038     0.761730     0.609913     2.319831     6.411016   141.504104
  66 :     1.980873     0.762302     0.610092     2.319552     6.409544   141.452514
  67 :     4.516315     1.026653     0.701135     2.222059     7.164545    34.001090
  68 :     4.524468     1.026501     0.700695     2.223303     7.165324    33.944549
  69 :     4.524631     1.026705     0.700803     2.222942     7.163121    33.929485
  70 :     8.013946     2.156662     1.073137     1.492522     3.251935    50.985592
  71 :     8.014147     2.156380     1.073002     1.492767     3.252677    50.997680
  72 :     8.014625     2.156517     1.073047     1.492704     3.252390    50.990198
  73 :     8.014825     2.156092     1.072752     1.493330     3.254458    51.015040
  74 :     7.984694     2.148170     1.070304     1.496748     3.269993    51.419581
  75 :     3.141289     1.213943     0.829792     1.744245     3.889873    73.997378
  76 :     3.140618     1.213579     0.829556     1.744990     3.893056    74.075623
  77 :     3.142199     1.214261     0.829886     1.744157     3.889549    73.989155
  78 :     3.139495     1.213344     0.829515     1.744908     3.892574    74.063062
  79 :     3.139405     1.213174     0.829361     1.745489     3.895081    74.124140
  80 :     3.134185     1.211422     0.828731     1.746521     3.899068    74.218260
  81 :     3.136066     1.212045     0.828948     1.746189     3.897774    74.186637
  82 :    52.334960     5.227070     1.494050     1.237960     2.618492     9.814975
  83 :    52.297101     5.223523     1.493258     1.238815     2.621112     9.820650
  84 :    52.298992     5.223744     1.493308     1.238761     2.620863     9.819245
  85 :     8.886068     2.753507     1.282680     1.235169     2.165224    35.216844
  86 :     8.876900     2.751266     1.282072     1.235675     2.166671    35.245244
  87 :     8.887561     2.754132     1.282858     1.235028     2.164805    35.208739
  88 :     8.877066     2.751377     1.282101     1.235666     2.166668    35.245590
  89 :     8.874034     2.750615     1.281881     1.235898     2.167403    35.260417
  90 :     8.866189     2.748440     1.281259     1.236504     2.169295    35.298695
  91 :     8.873235     2.750359     1.281781     1.236078     2.168049    35.273879
  92 :    45.944425     8.247966     2.195337     0.828439     1.169881    13.820941
  93 :    45.932499     8.245501     2.194923     0.828620     1.170286    13.825690
  94 :    45.936641     8.246213     2.195047     0.828585     1.170236    13.825644
  95 :    45.932185     8.245426     2.194894     0.828653     1.170367    13.826248
  96 :    45.895701     8.238972     2.193686     0.829165     1.171528    13.838701
  97 :    75.949628    12.471308     3.051236     0.535568     0.659135     2.151378
  98 :    75.949136    12.470613     3.051099     0.535612     0.659223     2.151511
  99 :    75.949042    12.470605     3.051099     0.535609     0.659209     2.151442
Making the total density                ... o.k.
o.k.
Initializing the integrals              ... done
Making exponents                        ... done
Making rho(0)                           ... done (        23.393589538)
Integral calculation                    ... Two index integrals                     ... done
Solving the equation system             ... done
atomic density will be written to file 68_Er_atom68.adf

-------
TIMINGS
-------

Total SCF time: 0 days 0 hours 0 min 21 sec 

Total time                  ....      21.614 sec
Sum of individual times     ....      20.719 sec  ( 95.9%)

Fock matrix formation       ....      20.305 sec  ( 93.9%)
Diagonalization             ....       0.178 sec  (  0.8%)
Density matrix formation    ....       0.011 sec  (  0.0%)
Population analysis         ....       0.000 sec  (  0.0%)
Initial guess               ....       0.002 sec  (  0.0%)
Orbital Transformation      ....       0.000 sec  (  0.0%)
Orbital Orthonormalization  ....       0.000 sec  (  0.0%)
DIIS solution               ....       0.223 sec  (  1.0%)

-------------------------   --------------------
FINAL SINGLE POINT ENERGY     -1011.920874633912
-------------------------   --------------------


                            ***************************************
                            *     ORCA property calculations      *
                            ***************************************

                                    ---------------------
                                    Active property flags
                                    ---------------------
   (+) Dipole Moment


------------------------------------------------------------------------------
                       ORCA ELECTRIC PROPERTIES CALCULATION
------------------------------------------------------------------------------

Dipole Moment Calculation                       ... on
Quadrupole Moment Calculation                   ... off
Polarizability Calculation                      ... off
GBWName                                         ... 68_Er_atom68.gbw
Electron density file                           ... 68_Er_atom68.scfp
The origin for moment calculation is the CENTER OF MASS  = ( 0.000000,  0.000000  0.000000)

-------------
DIPOLE MOMENT
-------------
                                X             Y             Z
Electronic contribution:     -0.00000       0.00000      -0.00000
Nuclear contribution   :      0.00000       0.00000       0.00000
                        -----------------------------------------
Total Dipole Moment    :     -0.00000       0.00000      -0.00000
                        -----------------------------------------
Magnitude (a.u.)       :      0.00000
Magnitude (Debye)      :      0.00000



--------------------
Rotational spectrum 
--------------------
 
Rotational constants in cm-1:     0.000000     0.000000     0.000000 
Rotational constants in MHz :     0.000000     0.000000     0.000000 

 Dipole components along the rotational axes: 
x,y,z [a.u.] :    -0.000000     0.000000    -0.000000 
x,y,z [Debye]:    -0.000000     0.000000    -0.000000 

 

Timings for individual modules:

Sum of individual times         ...       25.249 sec (=   0.421 min)
GTO integral calculation        ...        3.462 sec (=   0.058 min)  13.7 %
SCF iterations                  ...       21.787 sec (=   0.363 min)  86.3 %
                             ****ORCA TERMINATED NORMALLY****
TOTAL RUN TIME: 0 days 0 hours 0 minutes 26 seconds 178 msec
