
                                 *****************
                                 * O   R   C   A *
                                 *****************

           --- An Ab Initio, DFT and Semiempirical electronic structure package ---

                  #######################################################
                  #                        -***-                        #
                  #          Department of theory and spectroscopy      #
                  #               Directorship: Frank Neese             #
                  #        Max Planck Institute fuer Kohlenforschung    #
                  #                Kaiser Wilhelm Platz 1               #
                  #                 D-45470 Muelheim/Ruhr               #
                  #                      Germany                        #
                  #                                                     #
                  #                  All rights reserved                #
                  #                        -***-                        #
                  #######################################################


                         Program Version 4.2.0 -  RELEASE  -


 With contributions from (in alphabetic order):
   Daniel Aravena         : Magnetic Suceptibility
   Michael Atanasov       : Ab Initio Ligand Field Theory (pilot matlab implementation)
   Alexander A. Auer      : GIAO ZORA, VPT2
   Ute Becker             : Parallelization
   Giovanni Bistoni       : ED, misc. LED, open-shell LED, HFLED
   Martin Brehm           : Molecular dynamics
   Dmytro Bykov           : SCF Hessian
   Vijay G. Chilkuri      : MRCI spin determinant printing, contributions to CSF-ICE
   Dipayan Datta          : RHF DLPNO-CCSD density
   Achintya Kumar Dutta   : EOM-CC, STEOM-CC
   Dmitry Ganyushin       : Spin-Orbit,Spin-Spin,Magnetic field MRCI
   Miquel Garcia          : C-PCM Hessian, Gaussian charge scheme
   Yang Guo               : DLPNO-NEVPT2, CIM, IAO-localization
   Andreas Hansen         : Spin unrestricted coupled pair/coupled cluster methods
   Benjamin Helmich-Paris : CASSCF linear response (MC-RPA)
   Lee Huntington         : MR-EOM, pCC
   Robert Izsak           : Overlap fitted RIJCOSX, COSX-SCS-MP3, EOM
   Christian Kollmar      : KDIIS, OOCD, Brueckner-CCSD(T), CCSD density
   Simone Kossmann        : Meta GGA functionals, TD-DFT gradient, OOMP2, MP2 Hessian
   Martin Krupicka        : AUTO-CI
   Lucas Lang             : DCDCAS
   Dagmar Lenk            : GEPOL surface, SMD
   Dimitrios Liakos       : Extrapolation schemes; Compound Job, initial MDCI parallelization
   Dimitrios Manganas     : Further ROCIS development; embedding schemes
   Dimitrios Pantazis     : SARC Basis sets
   Taras Petrenko         : DFT Hessian,TD-DFT gradient, ASA, ECA, R-Raman, ABS, FL, XAS/XES, NRVS
   Peter Pinski           : DLPNO-MP2, DLPNO-MP2 Gradient
   Christoph Reimann      : Effective Core Potentials
   Marius Retegan         : Local ZFS, SOC
   Christoph Riplinger    : Optimizer, TS searches, QM/MM, DLPNO-CCSD(T), (RO)-DLPNO pert. Triples
   Tobias Risthaus        : Range-separated hybrids, TD-DFT gradient, RPA, STAB
   Michael Roemelt        : Original ROCIS implementation
   Masaaki Saitow         : Open-shell DLPNO-CCSD energy and density
   Barbara Sandhoefer     : DKH picture change effects
   Avijit Sen             : IP-ROCIS
   Kantharuban Sivalingam : CASSCF convergence, NEVPT2, FIC-MRCI
   Bernardo de Souza      : ESD, SOC TD-DFT
   Georgi Stoychev        : AutoAux, RI-MP2 NMR
   Willem Van den Heuvel  : Paramagnetic NMR
   Boris Wezisla          : Elementary symmetry handling
   Frank Wennmohs         : Technical directorship


 We gratefully acknowledge several colleagues who have allowed us to
 interface, adapt or use parts of their codes:
   Stefan Grimme, W. Hujo, H. Kruse,             : VdW corrections, initial TS optimization,
                  C. Bannwarth                     DFT functionals, gCP, sTDA/sTD-DF
   Ed Valeev, F. Pavosevic, A. Kumar             : LibInt (2-el integral package), F12 methods
   Garnet Chan, S. Sharma, J. Yang, R. Olivares  : DMRG
   Ulf Ekstrom                                   : XCFun DFT Library
   Mihaly Kallay                                 : mrcc  (arbitrary order and MRCC methods)
   Andreas Klamt, Michael Diedenhofen            : otool_cosmo (COSMO solvation model)
   Jiri Pittner, Ondrej Demel                    : Mk-CCSD
   Frank Weinhold                                : gennbo (NPA and NBO analysis)
   Christopher J. Cramer and Donald G. Truhlar   : smd solvation model
   Lars Goerigk                                  : TD-DFT with DH, B97 family of functionals
   V. Asgeirsson, H. Jonsson                     : NEB implementation
   FAccTs GmbH                                   : IRC, NEB, NEB-TS, Multilevel, MM, QM/MM, CI optimization
   S Lehtola, MJT Oliveira, MAL Marques          : LibXC Library


 Your calculation uses the libint2 library for the computation of 2-el integrals
 For citations please refer to: http://libint.valeyev.net

 Your ORCA version has been built with support for libXC version: 4.2.3
 For citations please refer to: https://tddft.org/programs/libxc/

 This ORCA versions uses:
   CBLAS   interface :  Fast vector & matrix operations
   LAPACKE interface :  Fast linear algebra routines
   SCALAPACK package :  Parallel linear algebra routines


----- Orbital basis set information -----
Your calculation utilizes the basis: def2-QZVP
   F. Weigend and R. Ahlrichs, Phys. Chem. Chem. Phys. 7, 3297 (2005).

cite the ECPs for Yb [Def2-ECP] as follows:
Ce-Yb(ecp-28): M. Dolg, H. Stoll, H.Preuss, J. Chem. Phys., 1989, 90, 1730-1734.
Y-Cd(ecp-28), Hf-Hg(ecp-46): D. Andrae,U. Haeussermann, M. Dolg, H. Stoll, H. Preuss, Theor. Chim. Acta, 1990, 77, 123-141.
In-Sb(ecp-28), Tl-Bi(ecp-46): B. Metz, H. Stoll, M. Dolg, J. Chem. Phys., 2000, 113, 2563-2569.
Te-Xe(ecp-28), Po-Rn(ecp-46): K. A. Peterson, D. Figgen, E. Goll, H. Stoll, M. Dolg, J. Chem. Phys., 2003, 119, 11113-11123.
Rb(ecp-28), Cs(ecp-46): T. Leininger, A. Nicklass, W. Kuechle, H. Stoll, M. Dolg, A. Bergner, Chem. Phys. Lett., 1996, 255, 274-280.
Sr(ecp-28), Ba(ecp-46): M. Kaupp, P. V. Schleyer, H. Stoll and H. Preuss, J. Chem. Phys., 1991, 94, 1360-1366.
La(ecp-46): M. Dolg, H. Stoll, A. Savin, H. Preuss, Theor. Chim. Acta, 1989, 75, 173-194.
Lu(ecp-28): X. Cao, M. Dolg, J. Chem. Phys., 2001, 115, 7348-7355.

ECP parameters for Yb [Def2-ECP] have been obtained from:
TURBOMOLE (7.0.2)

================================================================================
                                        WARNINGS
                       Please study these warnings very carefully!
================================================================================


WARNING: MDCI localization with Augmented Hessian Foster-Boys
  ===> : Switching off randomization!

WARNING: Post HF methods need fully converged wavefunctions
  ===> : Setting SCFConvForced true
         You can overwrite this default with %scf ConvForced false 


INFO   : the flag for use of LIBINT has been found!

================================================================================
                                       INPUT FILE
================================================================================
NAME = 70_Yb.in
|  1> #
|  2> # 70_Yb CCSD(T)/Def2-QZVP
|  3> #
|  4> ! CCSD(T) Def2-QZVP tightscf slowconv
|  5> 
|  6> *xyz 0 1
|  7>  Yb 0.0 0.0 0.0
|  8> *
|  9> 
| 10> %maxcore 5000 
| 11> 
| 12> %pal
| 13> nprocs 24
| 14> end
| 15> 
| 16> 
| 17>                          ****END OF INPUT****
================================================================================

                       ****************************
                       * Single Point Calculation *
                       ****************************

---------------------------------
CARTESIAN COORDINATES (ANGSTROEM)
---------------------------------
  Yb     0.000000    0.000000    0.000000

----------------------------
CARTESIAN COORDINATES (A.U.)
----------------------------
  NO LB      ZA    FRAG     MASS         X           Y           Z
   0 Yb   42.0000*   0   173.040    0.000000    0.000000    0.000000
* core charge reduced due to ECP

--------------------------------
INTERNAL COORDINATES (ANGSTROEM)
--------------------------------
 Yb     0   0   0     0.000000000000     0.00000000     0.00000000

---------------------------
INTERNAL COORDINATES (A.U.)
---------------------------
 Yb     0   0   0     0.000000000000     0.00000000     0.00000000

---------------------
BASIS SET INFORMATION
---------------------
There are 1 groups of distinct atoms

 Group   1 Type Yb  : 16s18p11d10f3g contracted to 11s9p6d5f2g pattern {61111111111/912111111/611111/61111/21}

Atom   0Yb   basis set group =>   1
-------------------------
ECP PARAMETER INFORMATION
-------------------------

 Group 1, Type Yb ECP Def2-ECP (replacing 28 core electrons, lmax=5)

Atom   0Yb   ECP group =>   1


Checking for AutoStart:
The File: 70_Yb.gbw exists
Trying to determine its content:
     ... Fine, the file contains calculation information
     ... Fine, the calculation information was read
     ... Fine, the file contains a basis set
     ... Fine, the basis set was read
     ... Fine, the file contains ECP parameters
     ... Fine, ECP parameters were read
     ... Fine, the file contains a geometry
     ... Fine, the geometry was read
     ... Fine, the file contains a set of orbitals
     ... Fine, the orbitals can be read
     => possible old guess file was deleted
     => GBW file was renamed to GES file
     => GES file is set as startup file
     => Guess is set to MORead
     ... now leaving AutoStart



           ************************************************************
           *        Program running with 24 parallel MPI-processes    *
           *              working on a common directory               *
           ************************************************************
------------------------------------------------------------------------------
                           ORCA GTO INTEGRAL CALCULATION
------------------------------------------------------------------------------

                         BASIS SET STATISTICS AND STARTUP INFO

 # of primitive gaussian shells          ...   58
 # of primitive gaussian functions       ...  222
 # of contracted shells                  ...   33
 # of contracted basis functions         ...  121
 Highest angular momentum                ...    4
 Maximum contraction depth               ...    9
 Integral package used                   ... LIBINT
 Integral threshhold            Thresh   ...  2.500e-11
 Primitive cut-off              TCut     ...  2.500e-12


------------------------------ INTEGRAL EVALUATION ----------------------------


 * One electron integrals 

   ECP integrals                         ... done
 Pre-screening matrix                    ... done
 Shell pair data                         ... done (   0.000 sec)



           ************************************************************
           *        Program running with 24 parallel MPI-processes    *
           *              working on a common directory               *
           ************************************************************
-------------------------------------------------------------------------------
                                 ORCA SCF
-------------------------------------------------------------------------------

------------
SCF SETTINGS
------------
Hamiltonian:
 Ab initio Hamiltonian  Method          .... Hartree-Fock(GTOs)


General Settings:
 Integral files         IntName         .... 70_Yb
 Hartree-Fock type      HFTyp           .... RHF
 Total Charge           Charge          ....    0
 Multiplicity           Mult            ....    1
 Number of Electrons    NEL             ....   42
 Basis Dimension        Dim             ....  121
 Nuclear Repulsion      ENuc            ....      0.0000000000 Eh

Convergence Acceleration:
 DIIS                   CNVDIIS         .... on
   Start iteration      DIISMaxIt       ....     0
   Startup error        DIISStart       ....  0.200000
   # of expansion vecs  DIISMaxEq       ....     5
   Bias factor          DIISBfac        ....   1.050
   Max. coefficient     DIISMaxC        ....  10.000
 Newton-Raphson         CNVNR           .... off
 SOSCF                  CNVSOSCF        .... off
 Level Shifting         CNVShift        .... on
   Level shift para.    LevelShift      ....    0.2500
   Turn off err/grad.   ShiftErr        ....    0.0000
 Zerner damping         CNVZerner       .... off
 Static damping         CNVDamp         .... on
   Fraction old density DampFac         ....    0.8500
   Max. Damping (<1)    DampMax         ....    0.9800
   Min. Damping (>=0)   DampMin         ....    0.0000
   Turn off err/grad.   DampErr         ....    0.0300
 Fernandez-Rico         CNVRico         .... off

SCF Procedure:
 Maximum # iterations   MaxIter         ....   125
 SCF integral mode      SCFMode         .... Direct
   Integral package                     .... LIBINT
 Reset frequency        DirectResetFreq ....    20
 Integral Threshold     Thresh          ....  2.500e-11 Eh
 Primitive CutOff       TCut            ....  2.500e-12 Eh

Convergence Tolerance:
 Convergence Check Mode ConvCheckMode   .... Total+1el-Energy
 Convergence forced     ConvForced      .... 1
 Energy Change          TolE            ....  1.000e-08 Eh
 1-El. energy change                    ....  1.000e-05 Eh
 DIIS Error             TolErr          ....  5.000e-07


Diagonalization of the overlap matrix:
Smallest eigenvalue                        ... 1.406e-03
Time for diagonalization                   ...    0.004 sec
Threshold for overlap eigenvalues          ... 1.000e-08
Number of eigenvalues below threshold      ... 0
Time for construction of square roots      ...    0.011 sec
Total time needed                          ...    0.015 sec

---------------------
INITIAL GUESS: MOREAD
---------------------
Guess MOs are being read from file: 70_Yb.ges
Input Geometry matches current geometry (good)
Input basis set matches current basis set (good)
MOs were renormalized
MOs were reorthogonalized (Cholesky)
                      ------------------
                      INITIAL GUESS DONE (   0.0 sec)
                      ------------------
--------------
SCF ITERATIONS
--------------
ITER       Energy         Delta-E        Max-DP      RMS-DP      [F,P]     Damp
               ***  Starting incremental Fock matrix formation  ***
  0  -1155.7192174841   0.000000000000 0.00000109  0.00000001  0.0000003 0.8500
                 **** Energy Check signals convergence ****

               *****************************************************
               *                     SUCCESS                       *
               *           SCF CONVERGED AFTER   1 CYCLES          *
               *****************************************************


----------------
TOTAL SCF ENERGY
----------------

Total Energy       :        -1155.71921749 Eh          -31448.71873 eV

Components:
Nuclear Repulsion  :            0.00000000 Eh               0.00000 eV
Electronic Energy  :        -1155.71921749 Eh          -31448.71873 eV
One Electron Energy:        -2113.81363595 Eh          -57519.79328 eV
Two Electron Energy:          958.09441847 Eh           26071.07455 eV

Virial components:
Potential Energy   :        -1894.62515198 Eh          -51555.37141 eV
Kinetic Energy     :          738.90593450 Eh           20106.65268 eV
Virial Ratio       :            2.56409519


---------------
SCF CONVERGENCE
---------------

  Last Energy change         ...   -1.5716e-09  Tolerance :   1.0000e-08
  Last MAX-Density change    ...    1.4796e-06  Tolerance :   1.0000e-07
  Last RMS-Density change    ...    1.4386e-08  Tolerance :   5.0000e-09
  Last DIIS Error            ...    2.5153e-07  Tolerance :   5.0000e-07

             **** THE GBW FILE WAS UPDATED (70_Yb.gbw) ****
             **** DENSITY FILE WAS UPDATED (70_Yb.scfp) ****
             **** ENERGY FILE WAS UPDATED (70_Yb.en.tmp) ****
             **** THE GBW FILE WAS UPDATED (70_Yb.gbw) ****
             **** DENSITY FILE WAS UPDATED (70_Yb.scfp) ****
----------------
ORBITAL ENERGIES
----------------

  NO   OCC          E(Eh)            E(eV) 
   0   2.0000     -18.803434      -511.6674 
   1   2.0000     -12.952799      -352.4636 
   2   2.0000     -12.952799      -352.4636 
   3   2.0000     -12.952799      -352.4636 
   4   2.0000      -6.212307      -169.0455 
   5   2.0000      -6.212307      -169.0455 
   6   2.0000      -6.212307      -169.0455 
   7   2.0000      -6.212307      -169.0455 
   8   2.0000      -6.212307      -169.0455 
   9   2.0000      -2.377822       -64.7038 
  10   2.0000      -1.274360       -34.6771 
  11   2.0000      -1.274360       -34.6771 
  12   2.0000      -1.274360       -34.6771 
  13   2.0000      -0.527867       -14.3640 
  14   2.0000      -0.527867       -14.3640 
  15   2.0000      -0.527867       -14.3640 
  16   2.0000      -0.527867       -14.3640 
  17   2.0000      -0.527867       -14.3640 
  18   2.0000      -0.527867       -14.3640 
  19   2.0000      -0.527867       -14.3640 
  20   2.0000      -0.193066        -5.2536 
  21   0.0000       0.028612         0.7786 
  22   0.0000       0.028612         0.7786 
  23   0.0000       0.028612         0.7786 
  24   0.0000       0.070455         1.9172 
  25   0.0000       0.130100         3.5402 
  26   0.0000       0.130100         3.5402 
  27   0.0000       0.130100         3.5402 
  28   0.0000       0.130100         3.5402 
  29   0.0000       0.130100         3.5402 
  30   0.0000       0.183030         4.9805 
  31   0.0000       0.183030         4.9805 
  32   0.0000       0.183030         4.9805 
  33   0.0000       0.361485         9.8365 
  34   0.0000       0.371444        10.1075 
  35   0.0000       0.371444        10.1075 
  36   0.0000       0.371444        10.1075 
  37   0.0000       0.371444        10.1075 
  38   0.0000       0.371444        10.1075 
  39   0.0000       0.645881        17.5753 
  40   0.0000       0.645881        17.5753 
  41   0.0000       0.645881        17.5753 
  42   0.0000       0.645881        17.5753 
  43   0.0000       0.645881        17.5753 
  44   0.0000       0.645881        17.5753 
  45   0.0000       0.645881        17.5753 
  46   0.0000       0.830074        22.5875 
  47   0.0000       0.830074        22.5875 
  48   0.0000       0.830074        22.5875 
  49   0.0000       1.326776        36.1034 
  50   0.0000       1.326776        36.1034 
  51   0.0000       1.326776        36.1034 
  52   0.0000       1.326776        36.1034 
  53   0.0000       1.326776        36.1034 
  54   0.0000       1.751616        47.6639 
  55   0.0000       1.751616        47.6639 
  56   0.0000       1.751616        47.6639 
  57   0.0000       1.751616        47.6639 
  58   0.0000       1.751616        47.6639 
  59   0.0000       1.751616        47.6639 
  60   0.0000       1.751616        47.6639 
  61   0.0000       2.091052        56.9004 
  62   0.0000       2.216598        60.3167 
  63   0.0000       2.216598        60.3167 
  64   0.0000       2.216598        60.3167 
  65   0.0000       2.216598        60.3167 
  66   0.0000       2.216598        60.3167 
  67   0.0000       2.216598        60.3167 
  68   0.0000       2.216598        60.3167 
  69   0.0000       2.216598        60.3167 
  70   0.0000       2.216598        60.3167 
  71   0.0000       2.975232        80.9602 
  72   0.0000       2.975232        80.9602 
  73   0.0000       2.975232        80.9602 
  74   0.0000       4.172302       113.5341 
  75   0.0000       4.172302       113.5341 
  76   0.0000       4.172302       113.5341 
  77   0.0000       4.172302       113.5341 
  78   0.0000       4.172302       113.5341 
  79   0.0000       4.172302       113.5341 
  80   0.0000       4.172302       113.5341 
  81   0.0000       4.740093       128.9845 
  82   0.0000       4.740093       128.9845 
  83   0.0000       4.740093       128.9845 
  84   0.0000       4.740093       128.9845 
  85   0.0000       4.740093       128.9845 
  86   0.0000       9.193528       250.1686 
  87   0.0000       9.193528       250.1686 
  88   0.0000       9.193528       250.1686 
  89   0.0000       9.679432       263.3907 
  90   0.0000       9.679432       263.3907 
  91   0.0000       9.679432       263.3907 
  92   0.0000       9.679432       263.3907 
  93   0.0000       9.679432       263.3907 
  94   0.0000       9.679432       263.3907 
  95   0.0000       9.679432       263.3907 
  96   0.0000      11.248044       306.0748 
  97   0.0000      11.580818       315.1301 
  98   0.0000      11.580818       315.1301 
  99   0.0000      11.580818       315.1301 
 100   0.0000      11.580818       315.1301 
 101   0.0000      11.580818       315.1301 
 102   0.0000      11.580818       315.1301 
 103   0.0000      11.580818       315.1301 
 104   0.0000      11.580818       315.1301 
 105   0.0000      11.580818       315.1301 
 106   0.0000      14.602185       397.3456 
 107   0.0000      14.602185       397.3456 
 108   0.0000      14.602185       397.3456 
 109   0.0000      14.602185       397.3456 
 110   0.0000      14.602185       397.3456 
 111   0.0000      33.712990       917.3771 
 112   0.0000      44.334265      1206.3967 
 113   0.0000      44.334265      1206.3967 
 114   0.0000      44.334265      1206.3967 
 115   0.0000      79.995078      2176.7767 
 116   0.0000      79.995078      2176.7767 
 117   0.0000      79.995078      2176.7767 
 118   0.0000      92.735404      2523.4586 
 119   0.0000     337.321103      9178.9739 
 120   0.0000     721.637533     19636.7556 

                    ********************************
                    * MULLIKEN POPULATION ANALYSIS *
                    ********************************

-----------------------
MULLIKEN ATOMIC CHARGES
-----------------------
   0 Yb:   -0.000000
Sum of atomic charges:   -0.0000000

--------------------------------
MULLIKEN REDUCED ORBITAL CHARGES
--------------------------------
  0 Ybs       :     6.000000  s :     6.000000
      pz      :     4.000000  p :    12.000000
      px      :     4.000000
      py      :     4.000000
      dz2     :     2.000000  d :    10.000000
      dxz     :     2.000000
      dyz     :     2.000000
      dx2y2   :     2.000000
      dxy     :     2.000000
      f0      :     2.000000  f :    14.000000
      f+1     :     2.000000
      f-1     :     2.000000
      f+2     :     2.000000
      f-2     :     2.000000
      f+3     :     2.000000
      f-3     :     2.000000
      g0      :     0.000000  g :     0.000000
      g+1     :     0.000000
      g-1     :     0.000000
      g+2     :     0.000000
      g-2     :     0.000000
      g+3     :     0.000000
      g-3     :     0.000000
      g+4     :     0.000000
      g-4     :     0.000000


                     *******************************
                     * LOEWDIN POPULATION ANALYSIS *
                     *******************************

----------------------
LOEWDIN ATOMIC CHARGES
----------------------
   0 Yb:   -0.000000

-------------------------------
LOEWDIN REDUCED ORBITAL CHARGES
-------------------------------
  0 Ybs       :     6.000000  s :     6.000000
      pz      :     4.000000  p :    12.000000
      px      :     4.000000
      py      :     4.000000
      dz2     :     2.000000  d :    10.000000
      dxz     :     2.000000
      dyz     :     2.000000
      dx2y2   :     2.000000
      dxy     :     2.000000
      f0      :     2.000000  f :    14.000000
      f+1     :     2.000000
      f-1     :     2.000000
      f+2     :     2.000000
      f-2     :     2.000000
      f+3     :     2.000000
      f-3     :     2.000000
      g0      :     0.000000  g :     0.000000
      g+1     :     0.000000
      g-1     :     0.000000
      g+2     :     0.000000
      g-2     :     0.000000
      g+3     :     0.000000
      g-3     :     0.000000
      g+4     :     0.000000
      g-4     :     0.000000


                      *****************************
                      * MAYER POPULATION ANALYSIS *
                      *****************************

  NA   - Mulliken gross atomic population
  ZA   - Total nuclear charge
  QA   - Mulliken gross atomic charge
  VA   - Mayer's total valence
  BVA  - Mayer's bonded valence
  FA   - Mayer's free valence

  ATOM       NA         ZA         QA         VA         BVA        FA
  0 Yb    42.0000    42.0000    -0.0000     0.0000     0.0000     0.0000

  Mayer bond orders larger than 0.100000


--------------------------
ATOM BASIS FOR ELEMENT Yb
--------------------------
 NewGTO Yb
 S 16
    1     172414.352409999992         0.000021398336
    2      34210.526012000002         0.000109550201
    3       9110.782687200001         0.000517700234
    4       2455.828865600000         0.002342480884
    5        674.351413000000         0.006774484199
    6        151.330471130000         0.016232881404
    7         63.554646256000        -0.229330716722
    8         45.199135406000         0.552971388675
    9         19.546862559000        -0.963743235054
   10          5.125818214900         0.958801818016
   11          2.599302929800         0.434607485520
   12          0.966196957800         0.023179057504
   13          0.422156094300        -0.002967384560
   14          0.089000995900         0.001521382097
   15          0.048557312600        -0.001282290946
   16          0.022443383900         0.000358617574
 S 16
    1     172414.352409999992        -0.000013750595
    2      34210.526012000002        -0.000070397082
    3       9110.782687200001        -0.000332674747
    4       2455.828865600000        -0.001505280827
    5        674.351413000000        -0.004353291096
    6        151.330471130000        -0.010431267682
    7         63.554646256000         0.105914963333
    8         45.199135406000        -0.253114510959
    9         19.546862559000         0.478314548405
   10          5.125818214900        -0.686328466393
   11          2.599302929800        -0.453914475620
   12          0.966196957800         0.686592310028
   13          0.422156094300         0.671932430568
   14          0.089000995900         0.053332139957
   15          0.048557312600        -0.031827142879
   16          0.022443383900         0.007533272772
 S 16
    1     172414.352409999992        -0.000003516201
    2      34210.526012000002        -0.000018001426
    3       9110.782687200001        -0.000085069151
    4       2455.828865600000        -0.000384919395
    5        674.351413000000        -0.001113191735
    6        151.330471130000        -0.002667407419
    7         63.554646256000         0.026090999182
    8         45.199135406000        -0.061884951531
    9         19.546862559000         0.117295918250
   10          5.125818214900        -0.178721221284
   11          2.599302929800        -0.114998719614
   12          0.966196957800         0.191985961620
   13          0.422156094300         0.415940246827
   14          0.089000995900        -0.148330845767
   15          0.048557312600        -0.691720478970
   16          0.022443383900        -0.315486944487
 S 16
    1     172414.352409999992        -0.000001695288
    2      34210.526012000002        -0.000008679140
    3       9110.782687200001        -0.000041014920
    4       2455.828865600000        -0.000185583586
    5        674.351413000000        -0.000536710066
    6        151.330471130000        -0.001286053756
    7         63.554646256000         0.011894387514
    8         45.199135406000        -0.029121420499
    9         19.546862559000         0.057404934343
   10          5.125818214900        -0.076044772911
   11          2.599302929800        -0.101826881941
   12          0.966196957800         0.199231392280
   13          0.422156094300         0.049338896630
   14          0.089000995900         1.418729842014
   15          0.048557312600        -4.162474168673
   16          0.022443383900         2.988717721835
 S 16
    1     172414.352409999992         0.000005288180
    2      34210.526012000002         0.000027073191
    3       9110.782687200001         0.000127939492
    4       2455.828865600000         0.000578898355
    5        674.351413000000         0.001674181329
    6        151.330471130000         0.004011639287
    7         63.554646256000        -0.041428112393
    8         45.199135406000         0.094735931726
    9         19.546862559000        -0.171514002218
   10          5.125818214900         0.307726998043
   11          2.599302929800        -0.002306793672
   12          0.966196957800         0.134024040171
   13          0.422156094300        -1.467220562557
   14          0.089000995900         6.165021091813
   15          0.048557312600        -7.212228364964
   16          0.022443383900         2.342145054818
 S 16
    1     172414.352409999992        -0.000009035204
    2      34210.526012000002        -0.000046256328
    3       9110.782687200001        -0.000218593043
    4       2455.828865600000        -0.000989085944
    5        674.351413000000        -0.002860449000
    6        151.330471130000        -0.006854149779
    7         63.554646256000         0.041541118731
    8         45.199135406000        -0.127903935526
    9         19.546862559000         0.317241343110
   10          5.125818214900        -0.085607100510
   11          2.599302929800        -2.097612827002
   12          0.966196957800         5.338630997010
   13          0.422156094300        -4.880211130132
   14          0.089000995900         3.925756414891
   15          0.048557312600        -3.436651458074
   16          0.022443383900         0.960073162931
 S 16
    1     172414.352409999992         0.000085305773
    2      34210.526012000002         0.000436728564
    3       9110.782687200001         0.002063843579
    4       2455.828865600000         0.009338443013
    5        674.351413000000         0.027006894726
    6        151.330471130000         0.064713372461
    7         63.554646256000        -0.613833557210
    8         45.199135406000         1.243061202489
    9         19.546862559000        -1.996774814399
   10          5.125818214900         6.792771772478
   11          2.599302929800        -8.895375177341
   12          0.966196957800         5.935973588874
   13          0.422156094300        -2.962835316240
   14          0.089000995900         1.603205669580
   15          0.048557312600        -1.376643469672
   16          0.022443383900         0.386443357027
 S 16
    1     172414.352409999992        -0.001305874209
    2      34210.526012000002        -0.006685509624
    3       9110.782687200001        -0.031593642468
    4       2455.828865600000        -0.142954356010
    5        674.351413000000        -0.413425796806
    6        151.330471130000        -0.990642494989
    7         63.554646256000         2.643823863943
    8         45.199135406000        -2.886185137781
    9         19.546862559000         0.764203932894
   10          5.125818214900        -0.008248682352
   11          2.599302929800        -0.154121403512
   12          0.966196957800         0.139921325469
   13          0.422156094300        -0.075305745633
   14          0.089000995900         0.044139088494
   15          0.048557312600        -0.038497338326
   16          0.022443383900         0.010940381821
 S 16
    1     172414.352409999992         0.000156372957
    2      34210.526012000002         0.000800561723
    3       9110.782687200001         0.003783206110
    4       2455.828865600000         0.017118184256
    5        674.351413000000         0.049506004318
    6        151.330471130000         0.118625281764
    7         63.554646256000        -4.627545199721
    8         45.199135406000         8.258863568684
    9         19.546862559000        -6.181716105306
   10          5.125818214900         4.880764792469
   11          2.599302929800        -4.140362436588
   12          0.966196957800         1.998749763797
   13          0.422156094300        -0.926111238719
   14          0.089000995900         0.506988883431
   15          0.048557312600        -0.439660258125
   16          0.022443383900         0.124589223455
 S 16
    1     172414.352409999992        -0.000182622421
    2      34210.526012000002        -0.000934947597
    3       9110.782687200001        -0.004418272019
    4       2455.828865600000        -0.019991719278
    5        674.351413000000        -0.057816303767
    6        151.330471130000        -0.138538252469
    7         63.554646256000        -7.075409780887
    8         45.199135406000        10.760926740620
    9         19.546862559000        -4.195252402220
   10          5.125818214900         2.232895147568
   11          2.599302929800        -1.792463511832
   12          0.966196957800         0.850511657681
   13          0.422156094300        -0.395228410694
   14          0.089000995900         0.217933112211
   15          0.048557312600        -0.189289711048
   16          0.022443383900         0.053709301723
 S 16
    1     172414.352409999992        -0.001646346714
    2      34210.526012000002        -0.008428581192
    3       9110.782687200001        -0.039830857432
    4       2455.828865600000        -0.180225960946
    5        674.351413000000        -0.521215747380
    6        151.330471130000        -1.248926584653
    7         63.554646256000        12.065772228453
    8         45.199135406000       -12.962425157713
    9         19.546862559000         3.589655961125
   10          5.125818214900        -1.695612346651
   11          2.599302929800         1.346448850352
   12          0.966196957800        -0.637336189203
   13          0.422156094300         0.296445701712
   14          0.089000995900        -0.163721902078
   15          0.048557312600         0.142250453016
   16          0.022443383900        -0.040373061243
 P 18
    1       4713.183417200000         0.000226760331
    2       1092.086801100000         0.001907752217
    3        349.766209160000         0.008904873622
    4        129.026755100000         0.024732171429
    5         43.220986902000         0.067003165100
    6         27.836718700000        -0.022426523544
    7         15.188684778000        -0.215130968364
    8          8.554766439600         0.390699599016
    9          4.297792095400         0.590491623964
   10         29.965607553000        -0.002386335831
   11         13.588862420000         0.002458588740
   12          5.681416622700        -0.000826651999
   13          2.122906683900         0.214666929627
   14          1.042907765700         0.012304472088
   15          0.503628461400         0.003502246589
   16          0.233642260400        -0.000986253017
   17          0.067000000000         0.000280058893
   18          0.030000000000        -0.000128276473
 P 18
    1       4713.183417200000         0.000131112050
    2       1092.086801100000         0.001103055830
    3        349.766209160000         0.005148767576
    4        129.026755100000         0.014300057221
    5         43.220986902000         0.038741001682
    6         27.836718700000        -0.012966939473
    7         15.188684778000        -0.124387992640
    8          8.554766439600         0.225901176461
    9          4.297792095400         0.341420244300
   10         29.965607553000        -0.008454288131
   11         13.588862420000         0.058538011140
   12          5.681416622700        -0.019682252314
   13          2.122906683900        -0.017341670941
   14          1.042907765700        -0.419818624052
   15          0.503628461400        -0.502786084779
   16          0.233642260400        -0.204321775225
   17          0.067000000000        -0.014147427980
   18          0.030000000000         0.002224466056
 P 18
    1       4713.183417200000         0.000019642674
    2       1092.086801100000         0.000165255341
    3        349.766209160000         0.000771367431
    4        129.026755100000         0.002142376449
    5         43.220986902000         0.005804019405
    6         27.836718700000        -0.001942654166
    7         15.188684778000        -0.018635303469
    8          8.554766439600         0.033843596059
    9          4.297792095400         0.051150193263
   10         29.965607553000        -0.001250811581
   11         13.588862420000         0.008950498668
   12          5.681416622700        -0.003009428740
   13          2.122906683900        -0.017710548217
   14          1.042907765700        -0.031534613882
   15          0.503628461400        -0.170518585909
   16          0.233642260400         0.063399455616
   17          0.067000000000        -0.110746446789
   18          0.030000000000         1.081666649823
 P 18
    1       4713.183417200000         0.000030880457
    2       1092.086801100000         0.000259799678
    3        349.766209160000         0.001212674938
    4        129.026755100000         0.003368052792
    5         43.220986902000         0.009124560612
    6         27.836718700000        -0.003054067268
    7         15.188684778000        -0.029296758704
    8          8.554766439600         0.053205877169
    9          4.297792095400         0.080413762627
   10         29.965607553000        -0.002357345921
   11         13.588862420000         0.016495675827
   12          5.681416622700        -0.005546345825
   13          2.122906683900         0.034091323999
   14          1.042907765700        -0.244344864516
   15          0.503628461400         0.080803467148
   16          0.233642260400        -0.517868735413
   17          0.067000000000         2.186574415208
   18          0.030000000000        -1.600106913696
 P 18
    1       4713.183417200000         0.000091769248
    2       1092.086801100000         0.000772061792
    3        349.766209160000         0.003603776540
    4        129.026755100000         0.010009038079
    5         43.220986902000         0.027115986676
    6         27.836718700000        -0.009075949064
    7         15.188684778000        -0.087062879239
    8          8.554766439600         0.158114995096
    9          4.297792095400         0.238970248401
   10         29.965607553000        -0.004905663666
   11         13.588862420000         0.037018355479
   12          5.681416622700        -0.012446692305
   13          2.122906683900        -0.301637215506
   14          1.042907765700         0.515892296448
   15          0.503628461400        -2.390674653249
   16          0.233642260400         3.097980145990
   17          0.067000000000        -1.838509788533
   18          0.030000000000         0.809859068474
 P 18
    1       4713.183417200000         0.000103893170
    2       1092.086801100000         0.000874061282
    3        349.766209160000         0.004079882694
    4        129.026755100000         0.011331363305
    5         43.220986902000         0.030698364214
    6         27.836718700000        -0.010275000991
    7         15.188684778000        -0.098565027647
    8          8.554766439600         0.179004060045
    9          4.297792095400         0.270541352943
   10         29.965607553000        -0.012936576917
   11         13.588862420000         0.094533148310
   12          5.681416622700        -0.031784907633
   13          2.122906683900         0.966671988850
   14          1.042907765700        -4.332053915958
   15          0.503628461400         5.305786679103
   16          0.233642260400        -2.806707739593
   17          0.067000000000         0.935523545073
   18          0.030000000000        -0.383911453403
 P 18
    1       4713.183417200000         0.000541075036
    2       1092.086801100000         0.004552106170
    3        349.766209160000         0.021248005788
    4        129.026755100000         0.059013675430
    5         43.220986902000         0.159876905648
    6         27.836718700000        -0.053512146528
    7         15.188684778000        -0.513326101529
    8          8.554766439600         0.932252123238
    9          4.297792095400         1.408977822298
   10         29.965607553000        -0.033616395796
   11         13.588862420000         0.304886053040
   12          5.681416622700        -0.102511925263
   13          2.122906683900        -5.246397617243
   14          1.042907765700         6.167681691260
   15          0.503628461400        -4.013000031850
   16          0.233642260400         1.583149836619
   17          0.067000000000        -0.475964018190
   18          0.030000000000         0.196249512659
 P 18
    1       4713.183417200000        -0.000769638322
    2       1092.086801100000        -0.006475026789
    3        349.766209160000        -0.030223681422
    4        129.026755100000        -0.083942490580
    5         43.220986902000        -0.227412808109
    6         27.836718700000         0.076116981752
    7         15.188684778000         0.730167560795
    8          8.554766439600        -1.326058146748
    9          4.297792095400        -2.004164402819
   10         29.965607553000         0.034621816998
   11         13.588862420000         1.841597041099
   12          5.681416622700        -0.619200702556
   13          2.122906683900         4.136727592073
   14          1.042907765700        -3.552210069238
   15          0.503628461400         2.070994271267
   16          0.233642260400        -0.812064898630
   17          0.067000000000         0.252698530925
   18          0.030000000000        -0.105812536959
 P 18
    1       4713.183417200000         0.000355756413
    2       1092.086801100000         0.002993006243
    3        349.766209160000         0.013970547172
    4        129.026755100000         0.038801445398
    5         43.220986902000         0.105118940309
    6         27.836718700000        -0.035184194452
    7         15.188684778000        -0.337511509914
    8          8.554766439600         0.612955041244
    9          4.297792095400         0.926401815187
   10         29.965607553000         2.267794547376
   11         13.588862420000        -3.132817321665
   12          5.681416622700         1.053348068695
   13          2.122906683900        -1.852195954207
   14          1.042907765700         1.377500802173
   15          0.503628461400        -0.748009674262
   16          0.233642260400         0.284444268010
   17          0.067000000000        -0.087289875895
   18          0.030000000000         0.036485889505
 D 11
    1        683.452692030000         0.000880114550
    2        210.066183900000         0.007498333040
    3         82.670179069000         0.034128599610
    4         36.089009785000         0.093077550735
    5         16.176546639000         0.159095141109
    6          7.167101192900         0.372775758736
    7          3.491676458500         0.400643087024
    8          1.618422805200         0.175705698957
    9          0.625075343000         0.019890607894
   10          0.220085982100        -0.000696790598
   11          0.071286177600         0.000290695022
 D 11
    1        683.452692030000         0.000119314447
    2        210.066183900000         0.001016526157
    3         82.670179069000         0.004626710234
    4         36.089009785000         0.012618239876
    5         16.176546639000         0.021568043398
    6          7.167101192900         0.050536073484
    7          3.491676458500         0.034924506793
    8          1.618422805200        -0.023109497236
    9          0.625075343000        -0.178963421185
   10          0.220085982100        -0.165671185945
   11          0.071286177600        -0.825448599487
 D 11
    1        683.452692030000         0.000223096178
    2        210.066183900000         0.001900717861
    3         82.670179069000         0.008651101317
    4         36.089009785000         0.023593799071
    5         16.176546639000         0.040328293589
    6          7.167101192900         0.094493207877
    7          3.491676458500         0.087497658018
    8          1.618422805200        -0.110385948441
    9          0.625075343000        -0.197243664088
   10          0.220085982100        -0.963867594215
   11          0.071286177600         0.891115367926
 D 11
    1        683.452692030000         0.000404987324
    2        210.066183900000         0.003450380222
    3         82.670179069000         0.015704376490
    4         36.089009785000         0.042829911459
    5         16.176546639000         0.073208101776
    6          7.167101192900         0.171533872718
    7          3.491676458500         0.035680612418
    8          1.618422805200         0.071688203687
    9          0.625075343000        -1.367872263726
   10          0.220085982100         1.397559897680
   11          0.071286177600        -0.506299799321
 D 11
    1        683.452692030000         0.000684816734
    2        210.066183900000         0.005834449553
    3         82.670179069000         0.026555447947
    4         36.089009785000         0.072423600202
    5         16.176546639000         0.123791857466
    6          7.167101192900         0.290056649565
    7          3.491676458500         0.547016528767
    8          1.618422805200        -1.998068608656
    9          0.625075343000         1.668119104177
   10          0.220085982100        -0.734699306214
   11          0.071286177600         0.218750502976
 D 11
    1        683.452692030000         0.001994619147
    2        210.066183900000         0.016993604594
    3         82.670179069000         0.077346248028
    4         36.089009785000         0.210943297037
    5         16.176546639000         0.360560128012
    6          7.167101192900         0.844828285469
    7          3.491676458500        -2.523002965157
    8          1.618422805200         2.105687041116
    9          0.625075343000        -0.929699649122
   10          0.220085982100         0.345422162101
   11          0.071286177600        -0.102311389541
 F 10
    1        253.765677020000         0.001308304845
    2         88.431756748000         0.014743612434
    3         38.865808516000         0.078954038470
    4         18.951789135000         0.191941918892
    5          9.175991926700         0.294018459020
    6          4.380562414500         0.324016426593
    7          2.056406666000         0.270156867692
    8          0.940572797100         0.170266122681
    9          0.430561158800         0.079294882528
   10          0.198012246500         0.027950054740
 F 10
    1        253.765677020000         0.000176713366
    2         88.431756748000         0.001991426837
    3         38.865808516000         0.010664360026
    4         18.951789135000         0.025925687485
    5          9.175991926700         0.039713214952
    6          4.380562414500         0.043765054889
    7          2.056406666000         0.072796112454
    8          0.940572797100        -0.140508780318
    9          0.430561158800         0.389060658539
   10          0.198012246500        -1.217651692913
 F 10
    1        253.765677020000         0.000476754952
    2         88.431756748000         0.005372670033
    3         38.865808516000         0.028771374614
    4         18.951789135000         0.069944906677
    5          9.175991926700         0.107142274059
    6          4.380562414500         0.118073732151
    7          2.056406666000        -0.053971487888
    8          0.940572797100         0.378544167194
    9          0.430561158800        -1.716936158162
   10          0.198012246500         0.964715933213
 F 10
    1        253.765677020000         0.000698343032
    2         88.431756748000         0.007869801178
    3         38.865808516000         0.042143849598
    4         18.951789135000         0.102454181168
    5          9.175991926700         0.156940290276
    6          4.380562414500         0.172952515339
    7          2.056406666000         0.319573243925
    8          0.940572797100        -1.882436668431
    9          0.430561158800         1.629893056869
   10          0.198012246500        -0.603251771586
 F 10
    1        253.765677020000         0.001422462804
    2         88.431756748000         0.016030086843
    3         38.865808516000         0.085843282908
    4         18.951789135000         0.208690077981
    5          9.175991926700         0.319673448587
    6          4.380562414500         0.352288930543
    7          2.056406666000        -1.924163176904
    8          0.940572797100         1.861585231670
    9          0.430561158800        -1.022047047712
   10          0.198012246500         0.339274141558
 G 3
    1         13.839970000000         0.005430081047
    2          3.296970000000         0.017644060402
    3          0.513260000000         0.997618598553
 G 3
    1         13.839970000000         0.275680183346
    2          3.296970000000         0.895772597931
    3          0.513260000000        -0.130749105206
 end
  // -----------------------------------------------
  // The basis set
  // -----------------------------------------------
  BAS[ATNO] = new BFNGauss[NSH];
  // Basis function   1 L = s
  InitBFNGauss(BAS[ATNO][  0]);
  BAS[ATNO][  0].l  = 0;
  BAS[ATNO][  0].ng = 16;
  BAS[ATNO][  0].a[  0] =    172414.352409999992;     BAS[ATNO][  0].d[  0] =        -0.000021398336;
  BAS[ATNO][  0].a[  1] =     34210.526012000002;     BAS[ATNO][  0].d[  1] =        -0.000109550201;
  BAS[ATNO][  0].a[  2] =      9110.782687200001;     BAS[ATNO][  0].d[  2] =        -0.000517700234;
  BAS[ATNO][  0].a[  3] =      2455.828865600000;     BAS[ATNO][  0].d[  3] =        -0.002342480884;
  BAS[ATNO][  0].a[  4] =       674.351413000000;     BAS[ATNO][  0].d[  4] =        -0.006774484199;
  BAS[ATNO][  0].a[  5] =       151.330471130000;     BAS[ATNO][  0].d[  5] =        -0.016232881404;
  BAS[ATNO][  0].a[  6] =        63.554646256000;     BAS[ATNO][  0].d[  6] =         0.229330716722;
  BAS[ATNO][  0].a[  7] =        45.199135406000;     BAS[ATNO][  0].d[  7] =        -0.552971388675;
  BAS[ATNO][  0].a[  8] =        19.546862559000;     BAS[ATNO][  0].d[  8] =         0.963743235054;
  BAS[ATNO][  0].a[  9] =         5.125818214900;     BAS[ATNO][  0].d[  9] =        -0.958801818016;
  BAS[ATNO][  0].a[ 10] =         2.599302929800;     BAS[ATNO][  0].d[ 10] =        -0.434607485520;
  BAS[ATNO][  0].a[ 11] =         0.966196957800;     BAS[ATNO][  0].d[ 11] =        -0.023179057504;
  BAS[ATNO][  0].a[ 12] =         0.422156094300;     BAS[ATNO][  0].d[ 12] =         0.002967384560;
  BAS[ATNO][  0].a[ 13] =         0.089000995900;     BAS[ATNO][  0].d[ 13] =        -0.001521382097;
  BAS[ATNO][  0].a[ 14] =         0.048557312600;     BAS[ATNO][  0].d[ 14] =         0.001282290946;
  BAS[ATNO][  0].a[ 15] =         0.022443383900;     BAS[ATNO][  0].d[ 15] =        -0.000358617574;

  // Basis function   2 L = s
  InitBFNGauss(BAS[ATNO][  1]);
  BAS[ATNO][  1].l  = 0;
  BAS[ATNO][  1].ng = 16;
  BAS[ATNO][  1].a[  0] =    172414.352409999992;     BAS[ATNO][  1].d[  0] =        -0.000013750595;
  BAS[ATNO][  1].a[  1] =     34210.526012000002;     BAS[ATNO][  1].d[  1] =        -0.000070397082;
  BAS[ATNO][  1].a[  2] =      9110.782687200001;     BAS[ATNO][  1].d[  2] =        -0.000332674747;
  BAS[ATNO][  1].a[  3] =      2455.828865600000;     BAS[ATNO][  1].d[  3] =        -0.001505280827;
  BAS[ATNO][  1].a[  4] =       674.351413000000;     BAS[ATNO][  1].d[  4] =        -0.004353291096;
  BAS[ATNO][  1].a[  5] =       151.330471130000;     BAS[ATNO][  1].d[  5] =        -0.010431267682;
  BAS[ATNO][  1].a[  6] =        63.554646256000;     BAS[ATNO][  1].d[  6] =         0.105914963333;
  BAS[ATNO][  1].a[  7] =        45.199135406000;     BAS[ATNO][  1].d[  7] =        -0.253114510959;
  BAS[ATNO][  1].a[  8] =        19.546862559000;     BAS[ATNO][  1].d[  8] =         0.478314548405;
  BAS[ATNO][  1].a[  9] =         5.125818214900;     BAS[ATNO][  1].d[  9] =        -0.686328466393;
  BAS[ATNO][  1].a[ 10] =         2.599302929800;     BAS[ATNO][  1].d[ 10] =        -0.453914475620;
  BAS[ATNO][  1].a[ 11] =         0.966196957800;     BAS[ATNO][  1].d[ 11] =         0.686592310028;
  BAS[ATNO][  1].a[ 12] =         0.422156094300;     BAS[ATNO][  1].d[ 12] =         0.671932430568;
  BAS[ATNO][  1].a[ 13] =         0.089000995900;     BAS[ATNO][  1].d[ 13] =         0.053332139957;
  BAS[ATNO][  1].a[ 14] =         0.048557312600;     BAS[ATNO][  1].d[ 14] =        -0.031827142879;
  BAS[ATNO][  1].a[ 15] =         0.022443383900;     BAS[ATNO][  1].d[ 15] =         0.007533272772;

  // Basis function   3 L = s
  InitBFNGauss(BAS[ATNO][  2]);
  BAS[ATNO][  2].l  = 0;
  BAS[ATNO][  2].ng = 16;
  BAS[ATNO][  2].a[  0] =    172414.352409999992;     BAS[ATNO][  2].d[  0] =         0.000003516201;
  BAS[ATNO][  2].a[  1] =     34210.526012000002;     BAS[ATNO][  2].d[  1] =         0.000018001426;
  BAS[ATNO][  2].a[  2] =      9110.782687200001;     BAS[ATNO][  2].d[  2] =         0.000085069151;
  BAS[ATNO][  2].a[  3] =      2455.828865600000;     BAS[ATNO][  2].d[  3] =         0.000384919395;
  BAS[ATNO][  2].a[  4] =       674.351413000000;     BAS[ATNO][  2].d[  4] =         0.001113191735;
  BAS[ATNO][  2].a[  5] =       151.330471130000;     BAS[ATNO][  2].d[  5] =         0.002667407419;
  BAS[ATNO][  2].a[  6] =        63.554646256000;     BAS[ATNO][  2].d[  6] =        -0.026090999182;
  BAS[ATNO][  2].a[  7] =        45.199135406000;     BAS[ATNO][  2].d[  7] =         0.061884951531;
  BAS[ATNO][  2].a[  8] =        19.546862559000;     BAS[ATNO][  2].d[  8] =        -0.117295918250;
  BAS[ATNO][  2].a[  9] =         5.125818214900;     BAS[ATNO][  2].d[  9] =         0.178721221284;
  BAS[ATNO][  2].a[ 10] =         2.599302929800;     BAS[ATNO][  2].d[ 10] =         0.114998719614;
  BAS[ATNO][  2].a[ 11] =         0.966196957800;     BAS[ATNO][  2].d[ 11] =        -0.191985961620;
  BAS[ATNO][  2].a[ 12] =         0.422156094300;     BAS[ATNO][  2].d[ 12] =        -0.415940246827;
  BAS[ATNO][  2].a[ 13] =         0.089000995900;     BAS[ATNO][  2].d[ 13] =         0.148330845767;
  BAS[ATNO][  2].a[ 14] =         0.048557312600;     BAS[ATNO][  2].d[ 14] =         0.691720478970;
  BAS[ATNO][  2].a[ 15] =         0.022443383900;     BAS[ATNO][  2].d[ 15] =         0.315486944487;

  // Basis function   4 L = s
  InitBFNGauss(BAS[ATNO][  3]);
  BAS[ATNO][  3].l  = 0;
  BAS[ATNO][  3].ng = 16;
  BAS[ATNO][  3].a[  0] =    172414.352409999992;     BAS[ATNO][  3].d[  0] =         0.000001695288;
  BAS[ATNO][  3].a[  1] =     34210.526012000002;     BAS[ATNO][  3].d[  1] =         0.000008679140;
  BAS[ATNO][  3].a[  2] =      9110.782687200001;     BAS[ATNO][  3].d[  2] =         0.000041014920;
  BAS[ATNO][  3].a[  3] =      2455.828865600000;     BAS[ATNO][  3].d[  3] =         0.000185583586;
  BAS[ATNO][  3].a[  4] =       674.351413000000;     BAS[ATNO][  3].d[  4] =         0.000536710066;
  BAS[ATNO][  3].a[  5] =       151.330471130000;     BAS[ATNO][  3].d[  5] =         0.001286053756;
  BAS[ATNO][  3].a[  6] =        63.554646256000;     BAS[ATNO][  3].d[  6] =        -0.011894387514;
  BAS[ATNO][  3].a[  7] =        45.199135406000;     BAS[ATNO][  3].d[  7] =         0.029121420499;
  BAS[ATNO][  3].a[  8] =        19.546862559000;     BAS[ATNO][  3].d[  8] =        -0.057404934343;
  BAS[ATNO][  3].a[  9] =         5.125818214900;     BAS[ATNO][  3].d[  9] =         0.076044772911;
  BAS[ATNO][  3].a[ 10] =         2.599302929800;     BAS[ATNO][  3].d[ 10] =         0.101826881941;
  BAS[ATNO][  3].a[ 11] =         0.966196957800;     BAS[ATNO][  3].d[ 11] =        -0.199231392280;
  BAS[ATNO][  3].a[ 12] =         0.422156094300;     BAS[ATNO][  3].d[ 12] =        -0.049338896630;
  BAS[ATNO][  3].a[ 13] =         0.089000995900;     BAS[ATNO][  3].d[ 13] =        -1.418729842014;
  BAS[ATNO][  3].a[ 14] =         0.048557312600;     BAS[ATNO][  3].d[ 14] =         4.162474168673;
  BAS[ATNO][  3].a[ 15] =         0.022443383900;     BAS[ATNO][  3].d[ 15] =        -2.988717721835;

  // Basis function   5 L = s
  InitBFNGauss(BAS[ATNO][  4]);
  BAS[ATNO][  4].l  = 0;
  BAS[ATNO][  4].ng = 16;
  BAS[ATNO][  4].a[  0] =    172414.352409999992;     BAS[ATNO][  4].d[  0] =        -0.000005288180;
  BAS[ATNO][  4].a[  1] =     34210.526012000002;     BAS[ATNO][  4].d[  1] =        -0.000027073191;
  BAS[ATNO][  4].a[  2] =      9110.782687200001;     BAS[ATNO][  4].d[  2] =        -0.000127939492;
  BAS[ATNO][  4].a[  3] =      2455.828865600000;     BAS[ATNO][  4].d[  3] =        -0.000578898355;
  BAS[ATNO][  4].a[  4] =       674.351413000000;     BAS[ATNO][  4].d[  4] =        -0.001674181329;
  BAS[ATNO][  4].a[  5] =       151.330471130000;     BAS[ATNO][  4].d[  5] =        -0.004011639287;
  BAS[ATNO][  4].a[  6] =        63.554646256000;     BAS[ATNO][  4].d[  6] =         0.041428112393;
  BAS[ATNO][  4].a[  7] =        45.199135406000;     BAS[ATNO][  4].d[  7] =        -0.094735931726;
  BAS[ATNO][  4].a[  8] =        19.546862559000;     BAS[ATNO][  4].d[  8] =         0.171514002218;
  BAS[ATNO][  4].a[  9] =         5.125818214900;     BAS[ATNO][  4].d[  9] =        -0.307726998043;
  BAS[ATNO][  4].a[ 10] =         2.599302929800;     BAS[ATNO][  4].d[ 10] =         0.002306793672;
  BAS[ATNO][  4].a[ 11] =         0.966196957800;     BAS[ATNO][  4].d[ 11] =        -0.134024040171;
  BAS[ATNO][  4].a[ 12] =         0.422156094300;     BAS[ATNO][  4].d[ 12] =         1.467220562557;
  BAS[ATNO][  4].a[ 13] =         0.089000995900;     BAS[ATNO][  4].d[ 13] =        -6.165021091813;
  BAS[ATNO][  4].a[ 14] =         0.048557312600;     BAS[ATNO][  4].d[ 14] =         7.212228364964;
  BAS[ATNO][  4].a[ 15] =         0.022443383900;     BAS[ATNO][  4].d[ 15] =        -2.342145054818;

  // Basis function   6 L = s
  InitBFNGauss(BAS[ATNO][  5]);
  BAS[ATNO][  5].l  = 0;
  BAS[ATNO][  5].ng = 16;
  BAS[ATNO][  5].a[  0] =    172414.352409999992;     BAS[ATNO][  5].d[  0] =        -0.000009035204;
  BAS[ATNO][  5].a[  1] =     34210.526012000002;     BAS[ATNO][  5].d[  1] =        -0.000046256328;
  BAS[ATNO][  5].a[  2] =      9110.782687200001;     BAS[ATNO][  5].d[  2] =        -0.000218593043;
  BAS[ATNO][  5].a[  3] =      2455.828865600000;     BAS[ATNO][  5].d[  3] =        -0.000989085944;
  BAS[ATNO][  5].a[  4] =       674.351413000000;     BAS[ATNO][  5].d[  4] =        -0.002860449000;
  BAS[ATNO][  5].a[  5] =       151.330471130000;     BAS[ATNO][  5].d[  5] =        -0.006854149779;
  BAS[ATNO][  5].a[  6] =        63.554646256000;     BAS[ATNO][  5].d[  6] =         0.041541118731;
  BAS[ATNO][  5].a[  7] =        45.199135406000;     BAS[ATNO][  5].d[  7] =        -0.127903935526;
  BAS[ATNO][  5].a[  8] =        19.546862559000;     BAS[ATNO][  5].d[  8] =         0.317241343110;
  BAS[ATNO][  5].a[  9] =         5.125818214900;     BAS[ATNO][  5].d[  9] =        -0.085607100510;
  BAS[ATNO][  5].a[ 10] =         2.599302929800;     BAS[ATNO][  5].d[ 10] =        -2.097612827002;
  BAS[ATNO][  5].a[ 11] =         0.966196957800;     BAS[ATNO][  5].d[ 11] =         5.338630997010;
  BAS[ATNO][  5].a[ 12] =         0.422156094300;     BAS[ATNO][  5].d[ 12] =        -4.880211130132;
  BAS[ATNO][  5].a[ 13] =         0.089000995900;     BAS[ATNO][  5].d[ 13] =         3.925756414891;
  BAS[ATNO][  5].a[ 14] =         0.048557312600;     BAS[ATNO][  5].d[ 14] =        -3.436651458074;
  BAS[ATNO][  5].a[ 15] =         0.022443383900;     BAS[ATNO][  5].d[ 15] =         0.960073162931;

  // Basis function   7 L = s
  InitBFNGauss(BAS[ATNO][  6]);
  BAS[ATNO][  6].l  = 0;
  BAS[ATNO][  6].ng = 16;
  BAS[ATNO][  6].a[  0] =    172414.352409999992;     BAS[ATNO][  6].d[  0] =        -0.000085305773;
  BAS[ATNO][  6].a[  1] =     34210.526012000002;     BAS[ATNO][  6].d[  1] =        -0.000436728564;
  BAS[ATNO][  6].a[  2] =      9110.782687200001;     BAS[ATNO][  6].d[  2] =        -0.002063843579;
  BAS[ATNO][  6].a[  3] =      2455.828865600000;     BAS[ATNO][  6].d[  3] =        -0.009338443013;
  BAS[ATNO][  6].a[  4] =       674.351413000000;     BAS[ATNO][  6].d[  4] =        -0.027006894726;
  BAS[ATNO][  6].a[  5] =       151.330471130000;     BAS[ATNO][  6].d[  5] =        -0.064713372461;
  BAS[ATNO][  6].a[  6] =        63.554646256000;     BAS[ATNO][  6].d[  6] =         0.613833557210;
  BAS[ATNO][  6].a[  7] =        45.199135406000;     BAS[ATNO][  6].d[  7] =        -1.243061202489;
  BAS[ATNO][  6].a[  8] =        19.546862559000;     BAS[ATNO][  6].d[  8] =         1.996774814399;
  BAS[ATNO][  6].a[  9] =         5.125818214900;     BAS[ATNO][  6].d[  9] =        -6.792771772478;
  BAS[ATNO][  6].a[ 10] =         2.599302929800;     BAS[ATNO][  6].d[ 10] =         8.895375177341;
  BAS[ATNO][  6].a[ 11] =         0.966196957800;     BAS[ATNO][  6].d[ 11] =        -5.935973588874;
  BAS[ATNO][  6].a[ 12] =         0.422156094300;     BAS[ATNO][  6].d[ 12] =         2.962835316240;
  BAS[ATNO][  6].a[ 13] =         0.089000995900;     BAS[ATNO][  6].d[ 13] =        -1.603205669580;
  BAS[ATNO][  6].a[ 14] =         0.048557312600;     BAS[ATNO][  6].d[ 14] =         1.376643469672;
  BAS[ATNO][  6].a[ 15] =         0.022443383900;     BAS[ATNO][  6].d[ 15] =        -0.386443357027;

  // Basis function   8 L = s
  InitBFNGauss(BAS[ATNO][  7]);
  BAS[ATNO][  7].l  = 0;
  BAS[ATNO][  7].ng = 16;
  BAS[ATNO][  7].a[  0] =    172414.352409999992;     BAS[ATNO][  7].d[  0] =         0.001305874209;
  BAS[ATNO][  7].a[  1] =     34210.526012000002;     BAS[ATNO][  7].d[  1] =         0.006685509624;
  BAS[ATNO][  7].a[  2] =      9110.782687200001;     BAS[ATNO][  7].d[  2] =         0.031593642468;
  BAS[ATNO][  7].a[  3] =      2455.828865600000;     BAS[ATNO][  7].d[  3] =         0.142954356010;
  BAS[ATNO][  7].a[  4] =       674.351413000000;     BAS[ATNO][  7].d[  4] =         0.413425796806;
  BAS[ATNO][  7].a[  5] =       151.330471130000;     BAS[ATNO][  7].d[  5] =         0.990642494989;
  BAS[ATNO][  7].a[  6] =        63.554646256000;     BAS[ATNO][  7].d[  6] =        -2.643823863943;
  BAS[ATNO][  7].a[  7] =        45.199135406000;     BAS[ATNO][  7].d[  7] =         2.886185137781;
  BAS[ATNO][  7].a[  8] =        19.546862559000;     BAS[ATNO][  7].d[  8] =        -0.764203932894;
  BAS[ATNO][  7].a[  9] =         5.125818214900;     BAS[ATNO][  7].d[  9] =         0.008248682352;
  BAS[ATNO][  7].a[ 10] =         2.599302929800;     BAS[ATNO][  7].d[ 10] =         0.154121403512;
  BAS[ATNO][  7].a[ 11] =         0.966196957800;     BAS[ATNO][  7].d[ 11] =        -0.139921325469;
  BAS[ATNO][  7].a[ 12] =         0.422156094300;     BAS[ATNO][  7].d[ 12] =         0.075305745633;
  BAS[ATNO][  7].a[ 13] =         0.089000995900;     BAS[ATNO][  7].d[ 13] =        -0.044139088494;
  BAS[ATNO][  7].a[ 14] =         0.048557312600;     BAS[ATNO][  7].d[ 14] =         0.038497338326;
  BAS[ATNO][  7].a[ 15] =         0.022443383900;     BAS[ATNO][  7].d[ 15] =        -0.010940381821;

  // Basis function   9 L = s
  InitBFNGauss(BAS[ATNO][  8]);
  BAS[ATNO][  8].l  = 0;
  BAS[ATNO][  8].ng = 16;
  BAS[ATNO][  8].a[  0] =    172414.352409999992;     BAS[ATNO][  8].d[  0] =         0.000156372957;
  BAS[ATNO][  8].a[  1] =     34210.526012000002;     BAS[ATNO][  8].d[  1] =         0.000800561723;
  BAS[ATNO][  8].a[  2] =      9110.782687200001;     BAS[ATNO][  8].d[  2] =         0.003783206110;
  BAS[ATNO][  8].a[  3] =      2455.828865600000;     BAS[ATNO][  8].d[  3] =         0.017118184256;
  BAS[ATNO][  8].a[  4] =       674.351413000000;     BAS[ATNO][  8].d[  4] =         0.049506004318;
  BAS[ATNO][  8].a[  5] =       151.330471130000;     BAS[ATNO][  8].d[  5] =         0.118625281764;
  BAS[ATNO][  8].a[  6] =        63.554646256000;     BAS[ATNO][  8].d[  6] =        -4.627545199721;
  BAS[ATNO][  8].a[  7] =        45.199135406000;     BAS[ATNO][  8].d[  7] =         8.258863568684;
  BAS[ATNO][  8].a[  8] =        19.546862559000;     BAS[ATNO][  8].d[  8] =        -6.181716105306;
  BAS[ATNO][  8].a[  9] =         5.125818214900;     BAS[ATNO][  8].d[  9] =         4.880764792469;
  BAS[ATNO][  8].a[ 10] =         2.599302929800;     BAS[ATNO][  8].d[ 10] =        -4.140362436588;
  BAS[ATNO][  8].a[ 11] =         0.966196957800;     BAS[ATNO][  8].d[ 11] =         1.998749763797;
  BAS[ATNO][  8].a[ 12] =         0.422156094300;     BAS[ATNO][  8].d[ 12] =        -0.926111238719;
  BAS[ATNO][  8].a[ 13] =         0.089000995900;     BAS[ATNO][  8].d[ 13] =         0.506988883431;
  BAS[ATNO][  8].a[ 14] =         0.048557312600;     BAS[ATNO][  8].d[ 14] =        -0.439660258125;
  BAS[ATNO][  8].a[ 15] =         0.022443383900;     BAS[ATNO][  8].d[ 15] =         0.124589223455;

  // Basis function  10 L = s
  InitBFNGauss(BAS[ATNO][  9]);
  BAS[ATNO][  9].l  = 0;
  BAS[ATNO][  9].ng = 16;
  BAS[ATNO][  9].a[  0] =    172414.352409999992;     BAS[ATNO][  9].d[  0] =        -0.000182622421;
  BAS[ATNO][  9].a[  1] =     34210.526012000002;     BAS[ATNO][  9].d[  1] =        -0.000934947597;
  BAS[ATNO][  9].a[  2] =      9110.782687200001;     BAS[ATNO][  9].d[  2] =        -0.004418272019;
  BAS[ATNO][  9].a[  3] =      2455.828865600000;     BAS[ATNO][  9].d[  3] =        -0.019991719278;
  BAS[ATNO][  9].a[  4] =       674.351413000000;     BAS[ATNO][  9].d[  4] =        -0.057816303767;
  BAS[ATNO][  9].a[  5] =       151.330471130000;     BAS[ATNO][  9].d[  5] =        -0.138538252469;
  BAS[ATNO][  9].a[  6] =        63.554646256000;     BAS[ATNO][  9].d[  6] =        -7.075409780887;
  BAS[ATNO][  9].a[  7] =        45.199135406000;     BAS[ATNO][  9].d[  7] =        10.760926740620;
  BAS[ATNO][  9].a[  8] =        19.546862559000;     BAS[ATNO][  9].d[  8] =        -4.195252402220;
  BAS[ATNO][  9].a[  9] =         5.125818214900;     BAS[ATNO][  9].d[  9] =         2.232895147568;
  BAS[ATNO][  9].a[ 10] =         2.599302929800;     BAS[ATNO][  9].d[ 10] =        -1.792463511832;
  BAS[ATNO][  9].a[ 11] =         0.966196957800;     BAS[ATNO][  9].d[ 11] =         0.850511657681;
  BAS[ATNO][  9].a[ 12] =         0.422156094300;     BAS[ATNO][  9].d[ 12] =        -0.395228410694;
  BAS[ATNO][  9].a[ 13] =         0.089000995900;     BAS[ATNO][  9].d[ 13] =         0.217933112211;
  BAS[ATNO][  9].a[ 14] =         0.048557312600;     BAS[ATNO][  9].d[ 14] =        -0.189289711048;
  BAS[ATNO][  9].a[ 15] =         0.022443383900;     BAS[ATNO][  9].d[ 15] =         0.053709301723;

  // Basis function  11 L = s
  InitBFNGauss(BAS[ATNO][ 10]);
  BAS[ATNO][ 10].l  = 0;
  BAS[ATNO][ 10].ng = 16;
  BAS[ATNO][ 10].a[  0] =    172414.352409999992;     BAS[ATNO][ 10].d[  0] =         0.001646346714;
  BAS[ATNO][ 10].a[  1] =     34210.526012000002;     BAS[ATNO][ 10].d[  1] =         0.008428581192;
  BAS[ATNO][ 10].a[  2] =      9110.782687200001;     BAS[ATNO][ 10].d[  2] =         0.039830857432;
  BAS[ATNO][ 10].a[  3] =      2455.828865600000;     BAS[ATNO][ 10].d[  3] =         0.180225960946;
  BAS[ATNO][ 10].a[  4] =       674.351413000000;     BAS[ATNO][ 10].d[  4] =         0.521215747380;
  BAS[ATNO][ 10].a[  5] =       151.330471130000;     BAS[ATNO][ 10].d[  5] =         1.248926584653;
  BAS[ATNO][ 10].a[  6] =        63.554646256000;     BAS[ATNO][ 10].d[  6] =       -12.065772228453;
  BAS[ATNO][ 10].a[  7] =        45.199135406000;     BAS[ATNO][ 10].d[  7] =        12.962425157713;
  BAS[ATNO][ 10].a[  8] =        19.546862559000;     BAS[ATNO][ 10].d[  8] =        -3.589655961125;
  BAS[ATNO][ 10].a[  9] =         5.125818214900;     BAS[ATNO][ 10].d[  9] =         1.695612346651;
  BAS[ATNO][ 10].a[ 10] =         2.599302929800;     BAS[ATNO][ 10].d[ 10] =        -1.346448850352;
  BAS[ATNO][ 10].a[ 11] =         0.966196957800;     BAS[ATNO][ 10].d[ 11] =         0.637336189203;
  BAS[ATNO][ 10].a[ 12] =         0.422156094300;     BAS[ATNO][ 10].d[ 12] =        -0.296445701712;
  BAS[ATNO][ 10].a[ 13] =         0.089000995900;     BAS[ATNO][ 10].d[ 13] =         0.163721902078;
  BAS[ATNO][ 10].a[ 14] =         0.048557312600;     BAS[ATNO][ 10].d[ 14] =        -0.142250453016;
  BAS[ATNO][ 10].a[ 15] =         0.022443383900;     BAS[ATNO][ 10].d[ 15] =         0.040373061243;

  // Basis function  12 L = p
  InitBFNGauss(BAS[ATNO][ 11]);
  BAS[ATNO][ 11].l  = 1;
  BAS[ATNO][ 11].ng = 18;
  BAS[ATNO][ 11].a[  0] =      4713.183417200000;     BAS[ATNO][ 11].d[  0] =         0.000226760331;
  BAS[ATNO][ 11].a[  1] =      1092.086801100000;     BAS[ATNO][ 11].d[  1] =         0.001907752217;
  BAS[ATNO][ 11].a[  2] =       349.766209160000;     BAS[ATNO][ 11].d[  2] =         0.008904873622;
  BAS[ATNO][ 11].a[  3] =       129.026755100000;     BAS[ATNO][ 11].d[  3] =         0.024732171429;
  BAS[ATNO][ 11].a[  4] =        43.220986902000;     BAS[ATNO][ 11].d[  4] =         0.067003165100;
  BAS[ATNO][ 11].a[  5] =        27.836718700000;     BAS[ATNO][ 11].d[  5] =        -0.022426523544;
  BAS[ATNO][ 11].a[  6] =        15.188684778000;     BAS[ATNO][ 11].d[  6] =        -0.215130968364;
  BAS[ATNO][ 11].a[  7] =         8.554766439600;     BAS[ATNO][ 11].d[  7] =         0.390699599016;
  BAS[ATNO][ 11].a[  8] =         4.297792095400;     BAS[ATNO][ 11].d[  8] =         0.590491623964;
  BAS[ATNO][ 11].a[  9] =        29.965607553000;     BAS[ATNO][ 11].d[  9] =        -0.002386335831;
  BAS[ATNO][ 11].a[ 10] =        13.588862420000;     BAS[ATNO][ 11].d[ 10] =         0.002458588740;
  BAS[ATNO][ 11].a[ 11] =         5.681416622700;     BAS[ATNO][ 11].d[ 11] =        -0.000826651999;
  BAS[ATNO][ 11].a[ 12] =         2.122906683900;     BAS[ATNO][ 11].d[ 12] =         0.214666929627;
  BAS[ATNO][ 11].a[ 13] =         1.042907765700;     BAS[ATNO][ 11].d[ 13] =         0.012304472088;
  BAS[ATNO][ 11].a[ 14] =         0.503628461400;     BAS[ATNO][ 11].d[ 14] =         0.003502246589;
  BAS[ATNO][ 11].a[ 15] =         0.233642260400;     BAS[ATNO][ 11].d[ 15] =        -0.000986253017;
  BAS[ATNO][ 11].a[ 16] =         0.067000000000;     BAS[ATNO][ 11].d[ 16] =         0.000280058893;
  BAS[ATNO][ 11].a[ 17] =         0.030000000000;     BAS[ATNO][ 11].d[ 17] =        -0.000128276473;

  // Basis function  13 L = p
  InitBFNGauss(BAS[ATNO][ 12]);
  BAS[ATNO][ 12].l  = 1;
  BAS[ATNO][ 12].ng = 18;
  BAS[ATNO][ 12].a[  0] =      4713.183417200000;     BAS[ATNO][ 12].d[  0] =        -0.000131112050;
  BAS[ATNO][ 12].a[  1] =      1092.086801100000;     BAS[ATNO][ 12].d[  1] =        -0.001103055830;
  BAS[ATNO][ 12].a[  2] =       349.766209160000;     BAS[ATNO][ 12].d[  2] =        -0.005148767576;
  BAS[ATNO][ 12].a[  3] =       129.026755100000;     BAS[ATNO][ 12].d[  3] =        -0.014300057221;
  BAS[ATNO][ 12].a[  4] =        43.220986902000;     BAS[ATNO][ 12].d[  4] =        -0.038741001682;
  BAS[ATNO][ 12].a[  5] =        27.836718700000;     BAS[ATNO][ 12].d[  5] =         0.012966939473;
  BAS[ATNO][ 12].a[  6] =        15.188684778000;     BAS[ATNO][ 12].d[  6] =         0.124387992640;
  BAS[ATNO][ 12].a[  7] =         8.554766439600;     BAS[ATNO][ 12].d[  7] =        -0.225901176461;
  BAS[ATNO][ 12].a[  8] =         4.297792095400;     BAS[ATNO][ 12].d[  8] =        -0.341420244300;
  BAS[ATNO][ 12].a[  9] =        29.965607553000;     BAS[ATNO][ 12].d[  9] =         0.008454288131;
  BAS[ATNO][ 12].a[ 10] =        13.588862420000;     BAS[ATNO][ 12].d[ 10] =        -0.058538011140;
  BAS[ATNO][ 12].a[ 11] =         5.681416622700;     BAS[ATNO][ 12].d[ 11] =         0.019682252314;
  BAS[ATNO][ 12].a[ 12] =         2.122906683900;     BAS[ATNO][ 12].d[ 12] =         0.017341670941;
  BAS[ATNO][ 12].a[ 13] =         1.042907765700;     BAS[ATNO][ 12].d[ 13] =         0.419818624052;
  BAS[ATNO][ 12].a[ 14] =         0.503628461400;     BAS[ATNO][ 12].d[ 14] =         0.502786084779;
  BAS[ATNO][ 12].a[ 15] =         0.233642260400;     BAS[ATNO][ 12].d[ 15] =         0.204321775225;
  BAS[ATNO][ 12].a[ 16] =         0.067000000000;     BAS[ATNO][ 12].d[ 16] =         0.014147427980;
  BAS[ATNO][ 12].a[ 17] =         0.030000000000;     BAS[ATNO][ 12].d[ 17] =        -0.002224466056;

  // Basis function  14 L = p
  InitBFNGauss(BAS[ATNO][ 13]);
  BAS[ATNO][ 13].l  = 1;
  BAS[ATNO][ 13].ng = 18;
  BAS[ATNO][ 13].a[  0] =      4713.183417200000;     BAS[ATNO][ 13].d[  0] =         0.000019642674;
  BAS[ATNO][ 13].a[  1] =      1092.086801100000;     BAS[ATNO][ 13].d[  1] =         0.000165255341;
  BAS[ATNO][ 13].a[  2] =       349.766209160000;     BAS[ATNO][ 13].d[  2] =         0.000771367431;
  BAS[ATNO][ 13].a[  3] =       129.026755100000;     BAS[ATNO][ 13].d[  3] =         0.002142376449;
  BAS[ATNO][ 13].a[  4] =        43.220986902000;     BAS[ATNO][ 13].d[  4] =         0.005804019405;
  BAS[ATNO][ 13].a[  5] =        27.836718700000;     BAS[ATNO][ 13].d[  5] =        -0.001942654166;
  BAS[ATNO][ 13].a[  6] =        15.188684778000;     BAS[ATNO][ 13].d[  6] =        -0.018635303469;
  BAS[ATNO][ 13].a[  7] =         8.554766439600;     BAS[ATNO][ 13].d[  7] =         0.033843596059;
  BAS[ATNO][ 13].a[  8] =         4.297792095400;     BAS[ATNO][ 13].d[  8] =         0.051150193263;
  BAS[ATNO][ 13].a[  9] =        29.965607553000;     BAS[ATNO][ 13].d[  9] =        -0.001250811581;
  BAS[ATNO][ 13].a[ 10] =        13.588862420000;     BAS[ATNO][ 13].d[ 10] =         0.008950498668;
  BAS[ATNO][ 13].a[ 11] =         5.681416622700;     BAS[ATNO][ 13].d[ 11] =        -0.003009428740;
  BAS[ATNO][ 13].a[ 12] =         2.122906683900;     BAS[ATNO][ 13].d[ 12] =        -0.017710548217;
  BAS[ATNO][ 13].a[ 13] =         1.042907765700;     BAS[ATNO][ 13].d[ 13] =        -0.031534613882;
  BAS[ATNO][ 13].a[ 14] =         0.503628461400;     BAS[ATNO][ 13].d[ 14] =        -0.170518585909;
  BAS[ATNO][ 13].a[ 15] =         0.233642260400;     BAS[ATNO][ 13].d[ 15] =         0.063399455616;
  BAS[ATNO][ 13].a[ 16] =         0.067000000000;     BAS[ATNO][ 13].d[ 16] =        -0.110746446789;
  BAS[ATNO][ 13].a[ 17] =         0.030000000000;     BAS[ATNO][ 13].d[ 17] =         1.081666649823;

  // Basis function  15 L = p
  InitBFNGauss(BAS[ATNO][ 14]);
  BAS[ATNO][ 14].l  = 1;
  BAS[ATNO][ 14].ng = 18;
  BAS[ATNO][ 14].a[  0] =      4713.183417200000;     BAS[ATNO][ 14].d[  0] =         0.000030880457;
  BAS[ATNO][ 14].a[  1] =      1092.086801100000;     BAS[ATNO][ 14].d[  1] =         0.000259799678;
  BAS[ATNO][ 14].a[  2] =       349.766209160000;     BAS[ATNO][ 14].d[  2] =         0.001212674938;
  BAS[ATNO][ 14].a[  3] =       129.026755100000;     BAS[ATNO][ 14].d[  3] =         0.003368052792;
  BAS[ATNO][ 14].a[  4] =        43.220986902000;     BAS[ATNO][ 14].d[  4] =         0.009124560612;
  BAS[ATNO][ 14].a[  5] =        27.836718700000;     BAS[ATNO][ 14].d[  5] =        -0.003054067268;
  BAS[ATNO][ 14].a[  6] =        15.188684778000;     BAS[ATNO][ 14].d[  6] =        -0.029296758704;
  BAS[ATNO][ 14].a[  7] =         8.554766439600;     BAS[ATNO][ 14].d[  7] =         0.053205877169;
  BAS[ATNO][ 14].a[  8] =         4.297792095400;     BAS[ATNO][ 14].d[  8] =         0.080413762627;
  BAS[ATNO][ 14].a[  9] =        29.965607553000;     BAS[ATNO][ 14].d[  9] =        -0.002357345921;
  BAS[ATNO][ 14].a[ 10] =        13.588862420000;     BAS[ATNO][ 14].d[ 10] =         0.016495675827;
  BAS[ATNO][ 14].a[ 11] =         5.681416622700;     BAS[ATNO][ 14].d[ 11] =        -0.005546345825;
  BAS[ATNO][ 14].a[ 12] =         2.122906683900;     BAS[ATNO][ 14].d[ 12] =         0.034091323999;
  BAS[ATNO][ 14].a[ 13] =         1.042907765700;     BAS[ATNO][ 14].d[ 13] =        -0.244344864516;
  BAS[ATNO][ 14].a[ 14] =         0.503628461400;     BAS[ATNO][ 14].d[ 14] =         0.080803467148;
  BAS[ATNO][ 14].a[ 15] =         0.233642260400;     BAS[ATNO][ 14].d[ 15] =        -0.517868735413;
  BAS[ATNO][ 14].a[ 16] =         0.067000000000;     BAS[ATNO][ 14].d[ 16] =         2.186574415208;
  BAS[ATNO][ 14].a[ 17] =         0.030000000000;     BAS[ATNO][ 14].d[ 17] =        -1.600106913696;

  // Basis function  16 L = p
  InitBFNGauss(BAS[ATNO][ 15]);
  BAS[ATNO][ 15].l  = 1;
  BAS[ATNO][ 15].ng = 18;
  BAS[ATNO][ 15].a[  0] =      4713.183417200000;     BAS[ATNO][ 15].d[  0] =         0.000091769248;
  BAS[ATNO][ 15].a[  1] =      1092.086801100000;     BAS[ATNO][ 15].d[  1] =         0.000772061792;
  BAS[ATNO][ 15].a[  2] =       349.766209160000;     BAS[ATNO][ 15].d[  2] =         0.003603776540;
  BAS[ATNO][ 15].a[  3] =       129.026755100000;     BAS[ATNO][ 15].d[  3] =         0.010009038079;
  BAS[ATNO][ 15].a[  4] =        43.220986902000;     BAS[ATNO][ 15].d[  4] =         0.027115986676;
  BAS[ATNO][ 15].a[  5] =        27.836718700000;     BAS[ATNO][ 15].d[  5] =        -0.009075949064;
  BAS[ATNO][ 15].a[  6] =        15.188684778000;     BAS[ATNO][ 15].d[  6] =        -0.087062879239;
  BAS[ATNO][ 15].a[  7] =         8.554766439600;     BAS[ATNO][ 15].d[  7] =         0.158114995096;
  BAS[ATNO][ 15].a[  8] =         4.297792095400;     BAS[ATNO][ 15].d[  8] =         0.238970248401;
  BAS[ATNO][ 15].a[  9] =        29.965607553000;     BAS[ATNO][ 15].d[  9] =        -0.004905663666;
  BAS[ATNO][ 15].a[ 10] =        13.588862420000;     BAS[ATNO][ 15].d[ 10] =         0.037018355479;
  BAS[ATNO][ 15].a[ 11] =         5.681416622700;     BAS[ATNO][ 15].d[ 11] =        -0.012446692305;
  BAS[ATNO][ 15].a[ 12] =         2.122906683900;     BAS[ATNO][ 15].d[ 12] =        -0.301637215506;
  BAS[ATNO][ 15].a[ 13] =         1.042907765700;     BAS[ATNO][ 15].d[ 13] =         0.515892296448;
  BAS[ATNO][ 15].a[ 14] =         0.503628461400;     BAS[ATNO][ 15].d[ 14] =        -2.390674653249;
  BAS[ATNO][ 15].a[ 15] =         0.233642260400;     BAS[ATNO][ 15].d[ 15] =         3.097980145990;
  BAS[ATNO][ 15].a[ 16] =         0.067000000000;     BAS[ATNO][ 15].d[ 16] =        -1.838509788533;
  BAS[ATNO][ 15].a[ 17] =         0.030000000000;     BAS[ATNO][ 15].d[ 17] =         0.809859068474;

  // Basis function  17 L = p
  InitBFNGauss(BAS[ATNO][ 16]);
  BAS[ATNO][ 16].l  = 1;
  BAS[ATNO][ 16].ng = 18;
  BAS[ATNO][ 16].a[  0] =      4713.183417200000;     BAS[ATNO][ 16].d[  0] =         0.000103893170;
  BAS[ATNO][ 16].a[  1] =      1092.086801100000;     BAS[ATNO][ 16].d[  1] =         0.000874061282;
  BAS[ATNO][ 16].a[  2] =       349.766209160000;     BAS[ATNO][ 16].d[  2] =         0.004079882694;
  BAS[ATNO][ 16].a[  3] =       129.026755100000;     BAS[ATNO][ 16].d[  3] =         0.011331363305;
  BAS[ATNO][ 16].a[  4] =        43.220986902000;     BAS[ATNO][ 16].d[  4] =         0.030698364214;
  BAS[ATNO][ 16].a[  5] =        27.836718700000;     BAS[ATNO][ 16].d[  5] =        -0.010275000991;
  BAS[ATNO][ 16].a[  6] =        15.188684778000;     BAS[ATNO][ 16].d[  6] =        -0.098565027647;
  BAS[ATNO][ 16].a[  7] =         8.554766439600;     BAS[ATNO][ 16].d[  7] =         0.179004060045;
  BAS[ATNO][ 16].a[  8] =         4.297792095400;     BAS[ATNO][ 16].d[  8] =         0.270541352943;
  BAS[ATNO][ 16].a[  9] =        29.965607553000;     BAS[ATNO][ 16].d[  9] =        -0.012936576917;
  BAS[ATNO][ 16].a[ 10] =        13.588862420000;     BAS[ATNO][ 16].d[ 10] =         0.094533148310;
  BAS[ATNO][ 16].a[ 11] =         5.681416622700;     BAS[ATNO][ 16].d[ 11] =        -0.031784907633;
[...]
<pp|pd>:         2430 b            0 skpd (  0.0%)    0.006 s ( 0.003 ms/b)
<pp|pf>:         2025 b            1 skpd (  0.0%)    0.010 s ( 0.005 ms/b)
<pp|pg>:          810 b            1 skpd (  0.1%)    0.006 s ( 0.007 ms/b)
<pp|dd>:          945 b            0 skpd (  0.0%)    0.007 s ( 0.007 ms/b)
<pp|df>:         1350 b            0 skpd (  0.0%)    0.015 s ( 0.011 ms/b)
<pp|dg>:          540 b            0 skpd (  0.0%)    0.007 s ( 0.013 ms/b)
<pp|ff>:          675 b            0 skpd (  0.0%)    0.021 s ( 0.031 ms/b)
<pp|fg>:          450 b            0 skpd (  0.0%)    0.011 s ( 0.024 ms/b)
<pp|gg>:          135 b            0 skpd (  0.0%)    0.006 s ( 0.047 ms/b)
<pd|pd>:         1485 b            1 skpd (  0.1%)    0.012 s ( 0.008 ms/b)
<pd|pf>:         2430 b            4 skpd (  0.2%)    0.021 s ( 0.009 ms/b)
<pd|pg>:          972 b            4 skpd (  0.4%)    0.013 s ( 0.013 ms/b)
<pd|dd>:         1134 b            2 skpd (  0.2%)    0.015 s ( 0.014 ms/b)
<pd|df>:         1620 b           31 skpd (  1.9%)    0.034 s ( 0.021 ms/b)
<pd|dg>:          648 b           12 skpd (  1.9%)    0.016 s ( 0.025 ms/b)
<pd|ff>:          810 b            0 skpd (  0.0%)    0.051 s ( 0.063 ms/b)
<pd|fg>:          540 b          329 skpd ( 60.9%)    0.022 s ( 0.103 ms/b)
<pd|gg>: done
<pf|pf>:         1035 b            1 skpd (  0.1%)    0.037 s ( 0.035 ms/b)
<pf|pg>:          810 b            5 skpd (  0.6%)    0.024 s ( 0.029 ms/b)
<pf|dd>:          945 b            2 skpd (  0.2%)    0.027 s ( 0.029 ms/b)
<pf|df>:         1350 b            0 skpd (  0.0%)    0.065 s ( 0.048 ms/b)
<pf|dg>:          540 b          365 skpd ( 67.6%)    0.019 s ( 0.111 ms/b)
<pf|ff>:          675 b            0 skpd (  0.0%)    0.094 s ( 0.140 ms/b)
<pf|fg>:          450 b            0 skpd (  0.0%)    0.049 s ( 0.110 ms/b)
<pf|gg>:          135 b           64 skpd ( 47.4%)    0.020 s ( 0.276 ms/b)
<pg|pg>:          171 b            2 skpd (  1.2%)    0.013 s ( 0.078 ms/b)
<pg|dd>:          378 b            2 skpd (  0.5%)    0.017 s ( 0.045 ms/b)
<pg|df>:          540 b          385 skpd ( 71.3%)    0.030 s ( 0.191 ms/b)
<pg|dg>: done
<pg|ff>:          270 b            0 skpd (  0.0%)    0.054 s ( 0.202 ms/b)
<pg|fg>:          180 b          120 skpd ( 66.7%)    0.020 s ( 0.327 ms/b)
<pg|gg>: done
<dd|dd>:          231 b            0 skpd (  0.0%)    0.013 s ( 0.055 ms/b)
<dd|df>:          630 b            0 skpd (  0.0%)    0.031 s ( 0.049 ms/b)
<dd|dg>:          252 b            0 skpd (  0.0%)    0.014 s ( 0.055 ms/b)
<dd|ff>:          315 b            0 skpd (  0.0%)    0.043 s ( 0.137 ms/b)
<dd|fg>:          210 b            0 skpd (  0.0%)    0.023 s ( 0.110 ms/b)
<dd|gg>:           63 b            0 skpd (  0.0%)    0.013 s ( 0.199 ms/b)
<df|df>:          465 b            0 skpd (  0.0%)    0.068 s ( 0.147 ms/b)
<df|dg>:          360 b            2 skpd (  0.6%)    0.036 s ( 0.101 ms/b)
<df|ff>:          450 b            0 skpd (  0.0%)    0.114 s ( 0.253 ms/b)
<df|fg>:          300 b            0 skpd (  0.0%)    0.059 s ( 0.197 ms/b)
<df|gg>: done
<dg|dg>:           78 b            1 skpd (  1.3%)    0.017 s ( 0.221 ms/b)
<dg|ff>:          180 b            0 skpd (  0.0%)    0.060 s ( 0.336 ms/b)
<dg|fg>: done
<dg|gg>: done
<ff|ff>:          120 b            0 skpd (  0.0%)    0.130 s ( 1.086 ms/b)
<ff|fg>:          150 b            0 skpd (  0.0%)    0.066 s ( 0.442 ms/b)
<ff|gg>:           45 b            0 skpd (  0.0%)    0.035 s ( 0.786 ms/b)
<fg|fg>:           55 b            0 skpd (  0.0%)    0.044 s ( 0.795 ms/b)
<fg|gg>: done
<gg|gg>: done
Recanonicalizing the internal orbitals
Recanonicalizing the virtual orbitals
Time needed for Fock operator              ...            1.849 sec
Reference energy                           ...  -1155.719217484

------------------------------
PARTIAL COULOMB TRANSFORMATION
------------------------------

Transformation type                        ... one-operator
Dimension of the basis                     ...  121
Number of internal MOs                     ...  117 (4-120)
Pair cutoff                                ... 0.000e+00 Eh
Number of AO pairs included in the trafo   ... 7381
Total Number of distinct AO pairs          ... 7381
Memory devoted for trafo                   ... 2500.0 MB 
Max. Number of MO pairs treated together   ... 44395      
Max. Number of MOs treated per batch       ...  366      
Number Format for Storage                  ... Double (8 Byte)
AO-integral source                         ... DIRECT
Integral package used                      ... LIBINT

Starting integral evaluation:
<ss|**>:        37026 b        0 skpd     0.034 s (  0.001 ms/b)
<sp|**>:        55539 b        0 skpd     0.053 s (  0.001 ms/b)
<sd|**>:        37026 b        0 skpd     0.078 s (  0.002 ms/b)
<sf|**>:        30855 b        0 skpd     0.128 s (  0.004 ms/b)
<sg|**>:        12342 b        0 skpd     0.077 s (  0.006 ms/b)
<pp|**>:        25245 b        0 skpd     0.125 s (  0.005 ms/b)
<pd|**>:        30294 b        0 skpd     0.218 s (  0.007 ms/b)
<pf|**>:        25245 b        0 skpd     0.369 s (  0.015 ms/b)
<pg|**>:        10098 b        0 skpd     0.229 s (  0.023 ms/b)
<dd|**>:        11781 b        0 skpd     0.239 s (  0.020 ms/b)
<df|**>:        16830 b        0 skpd     0.578 s (  0.034 ms/b)
<dg|**>:         6732 b        0 skpd     0.288 s (  0.043 ms/b)
<ff|**>:         8415 b        0 skpd     0.798 s (  0.095 ms/b)
<fg|**>:         5610 b        0 skpd     0.471 s (  0.084 ms/b)
<gg|**>:         1683 b        0 skpd     0.255 s (  0.151 ms/b)
Closing buffer AOJ ( 0.01 GB; CompressionRatio= 1.00)
Collecting buffer AOJ 
    ... done with AO integral generation
Number of MO pairs included in the trafo   ... 6903
    ... Now sorting integrals
IBATCH = 1 of  1
Closing buffer JAO ( 0.02 GB; CompressionRatio= 1.00)
Collecting buffer JAO 
TOTAL TIME for half transformation         ...     5.598 sec
AO-integral generation                     ...     3.499 sec
Half transformation                        ...     0.457 sec
J-integral sorting                         ...     1.543 sec

-------------------------- SECOND HALF TRANSFORMATION -------------------------
Formation of (pq|rs)                       ... ok (     1.975 sec)
Integral sorting                           ... ok (     2.374 sec)

------------------
CLOSED SHELL GUESS
------------------

Initial guess performed in     0.032 sec
E(0)                                       ...  -1155.719217484
E(MP2)                                     ...     -2.135464849
Initial E(tot)                             ...  -1157.854682333
<T|T>                                      ...      0.264882732
Number of pairs included                   ... 153
Total number of pairs                      ... 153

------------------------------------------------
                  RHF COUPLED CLUSTER ITERATIONS
------------------------------------------------

Number of amplitudes to be optimized       ... 1531700

Iter       E(tot)           E(Corr)          Delta-E          Residual     Time
  0  -1157.854682333     -2.135464849      0.000000000      0.082451166    0.54
                           *** Turning on DIIS ***
  1  -1157.206759839     -1.487542355      0.647922494      0.056874052    1.89
  2  -1157.434102350     -1.714884866     -0.227342511      0.019495632    1.95
  3  -1157.424412221     -1.705194736      0.009690129      0.003905159    1.93
  4  -1157.426864377     -1.707646893     -0.002452157      0.002609042    1.96
  5  -1157.429395320     -1.710177836     -0.002530943      0.001560469    2.01
  6  -1157.430451768     -1.711234283     -0.001056447      0.000816709    1.99
  7  -1157.430701804     -1.711484320     -0.000250036      0.000346883    2.00
  8  -1157.430744365     -1.711526881     -0.000042561      0.000160782    1.99
  9  -1157.430753429     -1.711535944     -0.000009064      0.000071309    1.98
 10  -1157.430753072     -1.711535588      0.000000356      0.000038994    1.98
 11  -1157.430756296     -1.711538811     -0.000003223      0.000016072    1.98
 12  -1157.430760307     -1.711542822     -0.000004011      0.000003901    1.98
               --- The Coupled-Cluster iterations have converged ---

----------------------
COUPLED CLUSTER ENERGY
----------------------

E(0)                                       ...  -1155.719217484
E(CORR)                                    ...     -1.711542822
E(TOT)                                     ...  -1157.430760307
Singles Norm <S|S>**1/2                    ...      0.144092474  
T1 diagnostic                              ...      0.024711655  

------------------
LARGEST AMPLITUDES
------------------
  20-> 22  20-> 22       0.080232
  20-> 21  20-> 21       0.080232
  20-> 23  20-> 23       0.080232
  20-> 24  -1-> -1       0.069665
  20-> 33  -1-> -1       0.045854
  20-> 30  20-> 22       0.041571
  20-> 22  20-> 30       0.041571
  20-> 31  20-> 21       0.036807
  20-> 21  20-> 31       0.036807
  16-> 45  -1-> -1       0.036065
  17-> 39  -1-> -1       0.035229
  20-> 31  20-> 31       0.034385
  20-> 30  20-> 30       0.034385
  20-> 32  20-> 32       0.034385
  19-> 40  -1-> -1       0.033495
  18-> 41  -1-> -1       0.032812


        !!!!!!!!!!!!!!!!!!!!!!!!!!!!!!!!!!!!!!!!!!!!!!!!!!!!!!!!!!!!!!!!!!!!!!!!!! 
        !  Warning: Densities are linearized densities !                         !
        !!!!!!!!!!!!!!!!!!!!!!!!!!!!!!!!!!!!!!!!!!!!!!!!!!!!!!!!!!!!!!!!!!!!!!!!!! 

Trace of internal density part =     -0.453678631
Trace of external density part =      0.453678631
----------------------
RHF TRIPLES CORRECTION (Algorithm 1)
----------------------

Multiplier for the singles contribution    ...      1.000000000

10% done
20% done
30% done
40% done
50% done
60% done
70% done
80% done
90% done

Triples Correction (T)                     ...     -0.064124678
Scaling of triples based on CCSD energies (Peterson et al. Molecular Physics 113, 1551 (2015))
E(T*) = f*E(T) where f = E(F12-CCSD)/E(CCSD) 
f = CCSD (with F12)/ CCSD (without F12)    ...      1.000000000
Scaled triples correction (T)              ...     -0.064124678

Final correlation energy                   ...     -1.775667501
E(CCSD)                                    ...  -1157.430760307
E(CCSD(T))                                 ...  -1157.494884985

NORM  =      1.247601956 sqrt=     1.116961036
W(HF) =      0.801537698
------------------------------------------------------------------------------
                           ORCA POPULATION ANALYSIS
------------------------------------------------------------------------------
Input electron density              ... 70_Yb.mdcip
BaseName (.gbw .S,...)              ... 70_Yb

                    ********************************
                    * MULLIKEN POPULATION ANALYSIS *
                    ********************************

-----------------------
MULLIKEN ATOMIC CHARGES
-----------------------
   0 Yb:    0.000000
Sum of atomic charges:    0.0000000

--------------------------------
MULLIKEN REDUCED ORBITAL CHARGES
--------------------------------
  0 Ybs       :     5.890768  s :     5.890768
      pz      :     4.006976  p :    12.020927
      px      :     4.006976
      py      :     4.006976
      dz2     :     2.026091  d :    10.130453
      dxz     :     2.026091
      dyz     :     2.026091
      dx2y2   :     2.026091
      dxy     :     2.026091
      f0      :     1.989254  f :    13.924781
      f+1     :     1.989254
      f-1     :     1.989254
      f+2     :     1.989254
      f-2     :     1.989254
      f+3     :     1.989254
      f-3     :     1.989254
      g0      :     0.003675  g :     0.033071
      g+1     :     0.003675
      g-1     :     0.003675
      g+2     :     0.003675
      g-2     :     0.003675
      g+3     :     0.003675
      g-3     :     0.003675
      g+4     :     0.003675
      g-4     :     0.003675


                     *******************************
                     * LOEWDIN POPULATION ANALYSIS *
                     *******************************

----------------------
LOEWDIN ATOMIC CHARGES
----------------------
   0 Yb:   -0.000000

-------------------------------
LOEWDIN REDUCED ORBITAL CHARGES
-------------------------------
  0 Ybs       :     5.890768  s :     5.890768
      pz      :     4.006976  p :    12.020927
      px      :     4.006976
      py      :     4.006976
      dz2     :     2.026091  d :    10.130453
      dxz     :     2.026091
      dyz     :     2.026091
      dx2y2   :     2.026091
      dxy     :     2.026091
      f0      :     1.989254  f :    13.924781
      f+1     :     1.989254
      f-1     :     1.989254
      f+2     :     1.989254
      f-2     :     1.989254
      f+3     :     1.989254
      f-3     :     1.989254
      g0      :     0.003675  g :     0.033071
      g+1     :     0.003675
      g-1     :     0.003675
      g+2     :     0.003675
      g-2     :     0.003675
      g+3     :     0.003675
      g-3     :     0.003675
      g+4     :     0.003675
      g-4     :     0.003675


                      *****************************
                      * MAYER POPULATION ANALYSIS *
                      *****************************

  NA   - Mulliken gross atomic population
  ZA   - Total nuclear charge
  QA   - Mulliken gross atomic charge
  VA   - Mayer's total valence
  BVA  - Mayer's bonded valence
  FA   - Mayer's free valence

  ATOM       NA         ZA         QA         VA         BVA        FA
  0 Yb    42.0000    42.0000     0.0000     1.6323     0.0000     1.6323





------------------------------------------------------------------------------- 
                                     TIMINGS                                   
------------------------------------------------------------------------------- 


Total execution time                   ...       40.136 sec

Fock Matrix Formation                  ...        1.849 sec (  4.6%)
Initial Guess                          ...        0.032 sec (  0.1%)
DIIS Solver                            ...        1.299 sec (  3.2%)
State Vector Update                    ...        0.061 sec (  0.2%)
Sigma-vector construction              ...       22.815 sec ( 56.8%)
  <0|H|D>                              ...        0.003 sec (  0.0% of sigma)
  <D|H|D>(0-ext)                       ...        0.296 sec (  1.3% of sigma)
  <D|H|D>(2-ext Fock)                  ...        0.008 sec (  0.0% of sigma)
  <D|H|D>(2-ext)                       ...        0.489 sec (  2.1% of sigma)
  <D|H|D>(4-ext)                       ...        1.079 sec (  4.7% of sigma)
  <D|H|D>(4-ext-corr)                  ...        0.644 sec (  2.8% of sigma)
  <S|H|0>                              ...        0.007 sec (  0.0% of sigma)
  <S|H|S>                              ...        0.013 sec (  0.1% of sigma)
  <S|H|D>(1-ext)                       ...        0.068 sec (  0.3% of sigma)
  <D|H|S>(1-ext)                       ...        0.098 sec (  0.4% of sigma)
  <S|H|D>(3-ext)                       ...        0.916 sec (  4.0% of sigma)
  Fock-dressing                        ...       15.786 sec ( 69.2% of sigma)
  (ik|jl)-dressing                     ...        0.389 sec (  1.7% of sigma)
  (ij|ab),(ia|jb)-dressing             ...        2.503 sec ( 11.0% of sigma)
  Pair energies                        ...        0.007 sec (  0.0% of sigma)
Total Time for computing (T)           ...        2.978 sec (  7.4% of ALL)
  I/O of integral and amplitudes       ...        0.600 sec ( 20.2% of (T))
  N**6 sorting step                    ...        0.714 sec ( 24.0% of (T))
  External N**7 contributions          ...        0.886 sec ( 29.8% of (T))
  Internal N**7 contributions          ...        0.375 sec ( 12.6% of (T))
  N**6 triples energy contributions    ...        0.402 sec ( 13.5% of (T))
One-particle density matrix            ...        0.006 sec (  0.0%)


-------------------------   --------------------
FINAL SINGLE POINT ENERGY     -1157.494884984934
-------------------------   --------------------


                            ***************************************
                            *     ORCA property calculations      *
                            ***************************************

                                    ---------------------
                                    Active property flags
                                    ---------------------
   (+) Dipole Moment


------------------------------------------------------------------------------
                       ORCA ELECTRIC PROPERTIES CALCULATION
------------------------------------------------------------------------------

Dipole Moment Calculation                       ... on
Quadrupole Moment Calculation                   ... off
Polarizability Calculation                      ... off
GBWName                                         ... 70_Yb.gbw
Electron density file                           ... 70_Yb.scfp
The origin for moment calculation is the CENTER OF MASS  = ( 0.000000,  0.000000  0.000000)

-------------
DIPOLE MOMENT
-------------
                                X             Y             Z
Electronic contribution:      0.00000      -0.00000      -0.00000
Nuclear contribution   :      0.00000       0.00000       0.00000
                        -----------------------------------------
Total Dipole Moment    :      0.00000      -0.00000      -0.00000
                        -----------------------------------------
Magnitude (a.u.)       :      0.00000
Magnitude (Debye)      :      0.00000



--------------------
Rotational spectrum 
--------------------
 
Rotational constants in cm-1:     0.000000     0.000000     0.000000 
Rotational constants in MHz :     0.000000     0.000000     0.000000 

 Dipole components along the rotational axes: 
x,y,z [a.u.] :     0.000000    -0.000000    -0.000000 
x,y,z [Debye]:     0.000000    -0.000000    -0.000000 

 

                           *** MDCI DENSITY ***

------------------------------------------------------------------------------
                       ORCA ELECTRIC PROPERTIES CALCULATION
------------------------------------------------------------------------------

Dipole Moment Calculation                       ... on
Quadrupole Moment Calculation                   ... off
Polarizability Calculation                      ... off
GBWName                                         ... 70_Yb.gbw
Electron density file                           ... 70_Yb.mdcip
The origin for moment calculation is the CENTER OF MASS  = ( 0.000000,  0.000000  0.000000)

-------------
DIPOLE MOMENT
-------------
                                X             Y             Z
Electronic contribution:      0.00000      -0.00000      -0.00000
Nuclear contribution   :      0.00000       0.00000       0.00000
                        -----------------------------------------
Total Dipole Moment    :      0.00000      -0.00000      -0.00000
                        -----------------------------------------
Magnitude (a.u.)       :      0.00000
Magnitude (Debye)      :      0.00000



--------------------
Rotational spectrum 
--------------------
 
Rotational constants in cm-1:     0.000000     0.000000     0.000000 
Rotational constants in MHz :     0.000000     0.000000     0.000000 

 Dipole components along the rotational axes: 
x,y,z [a.u.] :     0.000000    -0.000000    -0.000000 
x,y,z [Debye]:     0.000000    -0.000000    -0.000000 

 

Timings for individual modules:

Sum of individual times         ...       43.432 sec (=   0.724 min)
GTO integral calculation        ...        1.057 sec (=   0.018 min)   2.4 %
SCF iterations                  ...        1.560 sec (=   0.026 min)   3.6 %
MDCI module                     ...       40.815 sec (=   0.680 min)  94.0 %
                             ****ORCA TERMINATED NORMALLY****
TOTAL RUN TIME: 0 days 0 hours 0 minutes 44 seconds 196 msec
