
                                 *****************
                                 * O   R   C   A *
                                 *****************

           --- An Ab Initio, DFT and Semiempirical electronic structure package ---

                  #######################################################
                  #                        -***-                        #
                  #          Department of theory and spectroscopy      #
                  #               Directorship: Frank Neese             #
                  #        Max Planck Institute fuer Kohlenforschung    #
                  #                Kaiser Wilhelm Platz 1               #
                  #                 D-45470 Muelheim/Ruhr               #
                  #                      Germany                        #
                  #                                                     #
                  #                  All rights reserved                #
                  #                        -***-                        #
                  #######################################################


                         Program Version 4.2.0 -  RELEASE  -


 With contributions from (in alphabetic order):
   Daniel Aravena         : Magnetic Suceptibility
   Michael Atanasov       : Ab Initio Ligand Field Theory (pilot matlab implementation)
   Alexander A. Auer      : GIAO ZORA, VPT2
   Ute Becker             : Parallelization
   Giovanni Bistoni       : ED, misc. LED, open-shell LED, HFLED
   Martin Brehm           : Molecular dynamics
   Dmytro Bykov           : SCF Hessian
   Vijay G. Chilkuri      : MRCI spin determinant printing, contributions to CSF-ICE
   Dipayan Datta          : RHF DLPNO-CCSD density
   Achintya Kumar Dutta   : EOM-CC, STEOM-CC
   Dmitry Ganyushin       : Spin-Orbit,Spin-Spin,Magnetic field MRCI
   Miquel Garcia          : C-PCM Hessian, Gaussian charge scheme
   Yang Guo               : DLPNO-NEVPT2, CIM, IAO-localization
   Andreas Hansen         : Spin unrestricted coupled pair/coupled cluster methods
   Benjamin Helmich-Paris : CASSCF linear response (MC-RPA)
   Lee Huntington         : MR-EOM, pCC
   Robert Izsak           : Overlap fitted RIJCOSX, COSX-SCS-MP3, EOM
   Christian Kollmar      : KDIIS, OOCD, Brueckner-CCSD(T), CCSD density
   Simone Kossmann        : Meta GGA functionals, TD-DFT gradient, OOMP2, MP2 Hessian
   Martin Krupicka        : AUTO-CI
   Lucas Lang             : DCDCAS
   Dagmar Lenk            : GEPOL surface, SMD
   Dimitrios Liakos       : Extrapolation schemes; Compound Job, initial MDCI parallelization
   Dimitrios Manganas     : Further ROCIS development; embedding schemes
   Dimitrios Pantazis     : SARC Basis sets
   Taras Petrenko         : DFT Hessian,TD-DFT gradient, ASA, ECA, R-Raman, ABS, FL, XAS/XES, NRVS
   Peter Pinski           : DLPNO-MP2, DLPNO-MP2 Gradient
   Christoph Reimann      : Effective Core Potentials
   Marius Retegan         : Local ZFS, SOC
   Christoph Riplinger    : Optimizer, TS searches, QM/MM, DLPNO-CCSD(T), (RO)-DLPNO pert. Triples
   Tobias Risthaus        : Range-separated hybrids, TD-DFT gradient, RPA, STAB
   Michael Roemelt        : Original ROCIS implementation
   Masaaki Saitow         : Open-shell DLPNO-CCSD energy and density
   Barbara Sandhoefer     : DKH picture change effects
   Avijit Sen             : IP-ROCIS
   Kantharuban Sivalingam : CASSCF convergence, NEVPT2, FIC-MRCI
   Bernardo de Souza      : ESD, SOC TD-DFT
   Georgi Stoychev        : AutoAux, RI-MP2 NMR
   Willem Van den Heuvel  : Paramagnetic NMR
   Boris Wezisla          : Elementary symmetry handling
   Frank Wennmohs         : Technical directorship


 We gratefully acknowledge several colleagues who have allowed us to
 interface, adapt or use parts of their codes:
   Stefan Grimme, W. Hujo, H. Kruse,             : VdW corrections, initial TS optimization,
                  C. Bannwarth                     DFT functionals, gCP, sTDA/sTD-DF
   Ed Valeev, F. Pavosevic, A. Kumar             : LibInt (2-el integral package), F12 methods
   Garnet Chan, S. Sharma, J. Yang, R. Olivares  : DMRG
   Ulf Ekstrom                                   : XCFun DFT Library
   Mihaly Kallay                                 : mrcc  (arbitrary order and MRCC methods)
   Andreas Klamt, Michael Diedenhofen            : otool_cosmo (COSMO solvation model)
   Jiri Pittner, Ondrej Demel                    : Mk-CCSD
   Frank Weinhold                                : gennbo (NPA and NBO analysis)
   Christopher J. Cramer and Donald G. Truhlar   : smd solvation model
   Lars Goerigk                                  : TD-DFT with DH, B97 family of functionals
   V. Asgeirsson, H. Jonsson                     : NEB implementation
   FAccTs GmbH                                   : IRC, NEB, NEB-TS, Multilevel, MM, QM/MM, CI optimization
   S Lehtola, MJT Oliveira, MAL Marques          : LibXC Library


 Your calculation uses the libint2 library for the computation of 2-el integrals
 For citations please refer to: http://libint.valeyev.net

 Your ORCA version has been built with support for libXC version: 4.2.3
 For citations please refer to: https://tddft.org/programs/libxc/

 This ORCA versions uses:
   CBLAS   interface :  Fast vector & matrix operations
   LAPACKE interface :  Fast linear algebra routines
   SCALAPACK package :  Parallel linear algebra routines


----- Orbital basis set information -----
Your calculation utilizes the basis: def2-SVP
   F. Weigend and R. Ahlrichs, Phys. Chem. Chem. Phys. 7, 3297 (2005).

----- AuxJ basis set information -----
Your calculation utilizes the auxiliary basis: def2/J
   F. Weigend, Phys. Chem. Chem. Phys. 8, 1057 (2006).

================================================================================
                                        WARNINGS
                       Please study these warnings very carefully!
================================================================================


INFO   : the flag for use of LIBINT has been found!

================================================================================
                                       INPUT FILE
================================================================================
NAME = 70_Yb_atom70.inp
|  1> # input to generate an atomic fitting density for Yb
|  2> # this file is use internally by ORCA
|  3> #
|  4> # atomic ground state (S=1): 1s2 2s2 2p6 3s2 3p6 4s2 3d10 4p6 5s2 4d10 5p6 6s2 4f14 
|  5> #
|  6> ! RHF AllowRHF def2-SVP def2/J  NoMulliken NoLoewdin NoMayer NoPrintMOs 
|  7> 
|  8> %output print[p_atomdensfit] 2 end
|  9> 
| 10> %scf
| 11>   guess hcore
| 12>   maxiter 1000
| 13>   maxdisk 500000
| 14>   SCFMode Conventional
| 15>   lshift 1.000000
| 16>   hftyp rohf
| 17>   rohf_case sahf
| 18>   rohf_numop   2
| 19>   rohf_norb[1] 7
| 20>   rohf_nel[1]  14
| 21> end
| 22> 
| 23> %basis
| 24>   NewECP 70
| 25>     N_core 28
| 26>     lmax h
| 27>     s 1
| 28>       1      32.4244840000    891.0137770000  2
| 29>     p 1
| 30>       1      18.6562320000    264.0369530000  2
| 31>     d 1
| 32>       1      10.4902220000     73.9239190000  2
| 33>     f 1
| 34>       1      20.7741830000    -39.5921730000  2
| 35>     g 1
| 36>       1      28.4310280000    -34.6386380000  2
| 37>     h 1
| 38>       1       1.0000000000      0.0000000000  2
| 39>   end
| 40>   NewGTO 70
| 41>     s 6 
| 42>      1  172414.3524100000      0.0009383592
| 43>      2   34210.5260120000      0.0048039924
| 44>      3    9110.7826872000      0.0227021762
| 45>      4    2455.8288656000      0.1027224063
| 46>      5     674.3514130000      0.2970744918
| 47>      6     151.3304711300      0.7118438618
| 48>     s 1 
| 49>      1      63.5546462560      1.0000000000
| 50>     s 1 
| 51>      1      45.1991354060      1.0000000000
| 52>     s 1 
| 53>      1      19.5468625590      1.0000000000
| 54>     s 1 
| 55>      1       5.1258182149      1.0000000000
| 56>     s 1 
| 57>      1       2.5993029298      1.0000000000
| 58>     s 1 
| 59>      1       0.9661969578      1.0000000000
| 60>     s 1 
| 61>      1       0.4221560943      1.0000000000
| 62>     s 1 
| 63>      1       0.0890009959      1.0000000000
| 64>     s 1 
| 65>      1       0.0485573126      1.0000000000
| 66>     s 1 
| 67>      1       0.0224433839      1.0000000000
| 68>     p 9 
| 69>      1    4713.1834172000      0.0002803841
| 70>      2    1092.0868011000      0.0023588931
| 71>      3     349.7662091600      0.0110106778
| 72>      4     129.0267551000      0.0305807787
| 73>      5      43.2209869020      0.0828479202
| 74>      6      27.8367187000     -0.0277298965
| 75>      7      15.1886847780     -0.2660046473
| 76>      8       8.5547664396      0.4830913458
| 77>      9       4.2977920954      0.7301297315
| 78>     p 1 
| 79>      1      29.9656075530      1.0000000000
| 80>     p 2 
| 81>      1      13.5888624200     -1.3141822660
| 82>      2       5.6814166227      0.4418678811
| 83>     p 1 
| 84>      1       2.1229066839      1.0000000000
| 85>     p 1 
| 86>      1       1.0429077657      1.0000000000
| 87>     p 1 
| 88>      1       0.5036284614      1.0000000000
| 89>     p 1 
| 90>      1       0.2336422604      1.0000000000
| 91>     p 1 
| 92>      1       0.0670000000      1.0000000000
| 93>     p 1 
| 94>      1       0.0300000000      1.0000000000
| 95>     d 6 
| 96>      1     683.4526920300      0.0015476050
| 97>      2     210.0661839000      0.0131851679
| 98>      3      82.6701790690      0.0600121803
| 99>      4      36.0890097850      0.1636687946
|100>      5      16.1765466390      0.2797549975
|101>      6       7.1671011929      0.6554938179
|102>     d 1 
|103>      1       3.4916764585      1.0000000000
|104>     d 1 
|105>      1       1.6184228052      1.0000000000
|106>     d 1 
|107>      1       0.6250753430      1.0000000000
|108>     d 1 
|109>      1       0.2200859821      1.0000000000
|110>     d 1 
|111>      1       0.0712861776      1.0000000000
|112>     f 6 
|113>      1     253.7656770200      0.0017652320
|114>      2      88.4317567480      0.0198928380
|115>      3      38.8658085160      0.1065288378
|116>      4      18.9517891350      0.2589778805
|117>      5       9.1759919267      0.3967047833
|118>      6       4.3805624145      0.4371795796
|119>     f 1 
|120>      1       2.0564066660      1.0000000000
|121>     f 1 
|122>      1       0.9405727971      1.0000000000
|123>     f 1 
|124>      1       0.4305611588      1.0000000000
|125>     f 1 
|126>      1       0.1980122465      1.0000000000
|127>   end
|128>   NewAuxGTO 70
|129>     S 1
|130>      1 1310.72 1.0
|131>     S 1
|132>      1  655.36 1.0
|133>     S 1
|134>      1  327.68 1.0
|135>     S 1
|136>      1  163.84 1.0
|137>     S 1
|138>      1   81.82 1.0
|139>     S 1
|140>      1   40.96 1.0
|141>     S 1
|142>      1   20.48 1.0
|143>     S 1
|144>      1   10.24 1.0
|145>     S 1
|146>      1    5.12 1.0
|147>     S 1
|148>      1    2.56 1.0
|149>     S 1
|150>      1    1.28 1.0
|151>     S 1
|152>      1    0.64 1.0
|153>     S 1
|154>      1    0.32 1.0
|155>     S 1
|156>      1    0.16 1.0
|157>     S 1
|158>      1    0.08 1.0
|159>     S 1
|160>      1    0.04 1.0
|161>     S 1
|162>      1    0.02 1.0
|163>     S 1
|164>      1    0.01 1.0
|165>   end
|166> end
|167> 
|168> * xyz 0 1
|169> 70  0.0 0.0 0.0
|170> *
|171> 
|172> 
|173>                          ****END OF INPUT****
================================================================================

                       ****************************
                       * Single Point Calculation *
                       ****************************

---------------------------------
CARTESIAN COORDINATES (ANGSTROEM)
---------------------------------
  Yb     0.000000    0.000000    0.000000

----------------------------
CARTESIAN COORDINATES (A.U.)
----------------------------
  NO LB      ZA    FRAG     MASS         X           Y           Z
   0 Yb   42.0000*   0   173.040    0.000000    0.000000    0.000000
* core charge reduced due to ECP

--------------------------------
INTERNAL COORDINATES (ANGSTROEM)
--------------------------------
 Yb     0   0   0     0.000000000000     0.00000000     0.00000000

---------------------------
INTERNAL COORDINATES (A.U.)
---------------------------
 Yb     0   0   0     0.000000000000     0.00000000     0.00000000

---------------------
BASIS SET INFORMATION
---------------------
There are 1 groups of distinct atoms

 Group   1 Type Yb  : 16s18p11d10f contracted to 11s9p6d5f pattern {61111111111/912111111/611111/61111}

Atom   0Yb   basis set group =>   1
---------------------------------
AUXILIARY/J BASIS SET INFORMATION
---------------------------------
There are 1 groups of distinct atoms

 Group   1 Type Yb  : 18s contracted to 18s pattern {111111111111111111}

Atom   0Yb   basis set group =>   1
-------------------------
ECP PARAMETER INFORMATION
-------------------------

 Group 1, Type Yb ECP (replacing 28 core electrons, lmax=5)

Atom   0Yb   ECP group =>   1

------------------------------------------------------------------------------
                           ORCA GTO INTEGRAL CALCULATION
------------------------------------------------------------------------------

                         BASIS SET STATISTICS AND STARTUP INFO

 # of primitive gaussian shells          ...   55
 # of primitive gaussian functions       ...  195
 # of contracted shells                  ...   31
 # of contracted basis functions         ...  103
 Highest angular momentum                ...    3
 Maximum contraction depth               ...    9
 Integral package used                   ... LIBINT
 Integral threshhold            Thresh   ...  1.000e-10
 Primitive cut-off              TCut     ...  1.000e-11
 Storage cut-off                TCutStore... -1.000e+00
 Buffer length                           ... 1048576 integrals/buffer
 Generate file with integrals 4 distinct ...false


------------------------------ INTEGRAL EVALUATION ----------------------------


 * One electron integrals 

   ECP integrals                         ... done
 Pre-screening matrix                    ... done
 Shell pair data                         ... done (   0.000 sec)
 Statistics run                          ... done
 Maximum amount of storage needed        ...   169 MB
 Maximum amount of storage dedicated     ... 500000 MB
 Beginning two electron integral evaluation:
 Starting repulsion integrals
  <ss|ss>  ...         2211 b.         0 skpd (  0.0%)     0.000 s. (  0.000 ms/b)
  <ss|sp>  ...         6534 b.         0 skpd (  0.0%)     0.001 s. (  0.000 ms/b)
  <ss|sd>  ...         4356 b.         0 skpd (  0.0%)     0.002 s. (  0.001 ms/b)
  <ss|sf>  ...         3630 b.         0 skpd (  0.0%)     0.003 s. (  0.001 ms/b)
  <ss|pp>  ...         2970 b.         0 skpd (  0.0%)     0.003 s. (  0.001 ms/b)
  <ss|pd>  ...         3564 b.         0 skpd (  0.0%)     0.004 s. (  0.001 ms/b)
  <ss|pf>  ...         2970 b.         0 skpd (  0.0%)     0.005 s. (  0.002 ms/b)
  <ss|dd>  ...         1386 b.         0 skpd (  0.0%)     0.003 s. (  0.002 ms/b)
  <ss|df>  ...         1980 b.         0 skpd (  0.0%)     0.005 s. (  0.003 ms/b)
  <ss|ff>  ...          990 b.         0 skpd (  0.0%)     0.005 s. (  0.005 ms/b)
  <sp|sp>  ...         4950 b.         0 skpd (  0.0%)     0.004 s. (  0.001 ms/b)
  <sp|sd>  ...         6534 b.         0 skpd (  0.0%)     0.007 s. (  0.001 ms/b)
  <sp|sf>  ...         5444 b.         1 skpd (  0.0%)     0.010 s. (  0.002 ms/b)
  <sp|pp>  ...         4455 b.         0 skpd (  0.0%)     0.009 s. (  0.002 ms/b)
  <sp|pd>  ...         5346 b.         0 skpd (  0.0%)     0.015 s. (  0.003 ms/b)
  <sp|pf>  ...         4455 b.         0 skpd (  0.0%)     0.028 s. (  0.006 ms/b)
  <sp|dd>  ...         2079 b.         0 skpd (  0.0%)     0.011 s. (  0.005 ms/b)
  <sp|df>  ...         2970 b.         0 skpd (  0.0%)     0.022 s. (  0.007 ms/b)
  <sp|ff>  ...         1485 b.         0 skpd (  0.0%)     0.021 s. (  0.014 ms/b)
  <sd|sd>  ...         2209 b.         2 skpd (  0.1%)     0.004 s. (  0.002 ms/b)
  <sd|sf>  ...         3621 b.         9 skpd (  0.2%)     0.012 s. (  0.003 ms/b)
  <sd|pp>  ...         2970 b.         0 skpd (  0.0%)     0.018 s. (  0.006 ms/b)
  <sd|pd>  ...         3564 b.         0 skpd (  0.0%)     0.020 s. (  0.006 ms/b)
  <sd|pf>  ...         2970 b.         0 skpd (  0.0%)     0.028 s. (  0.010 ms/b)
  <sd|dd>  ...         1386 b.         0 skpd (  0.0%)     0.015 s. (  0.011 ms/b)
  <sd|df>  ...         1980 b.         0 skpd (  0.0%)     0.042 s. (  0.021 ms/b)
  <sd|ff>  ...          990 b.         0 skpd (  0.0%)     0.037 s. (  0.037 ms/b)
  <sf|sf>  ...         1527 b.        13 skpd (  0.8%)     0.012 s. (  0.008 ms/b)
  <sf|pp>  ...         2475 b.         0 skpd (  0.0%)     0.021 s. (  0.008 ms/b)
  <sf|pd>  ...         2970 b.         0 skpd (  0.0%)     0.037 s. (  0.013 ms/b)
  <sf|pf>  ...         2474 b.         1 skpd (  0.0%)     0.063 s. (  0.025 ms/b)
  <sf|dd>  ...         1155 b.         0 skpd (  0.0%)     0.030 s. (  0.026 ms/b)
  <sf|df>  ...         1650 b.         0 skpd (  0.0%)     0.075 s. (  0.045 ms/b)
  <sf|ff>  ...          825 b.         0 skpd (  0.0%)     0.079 s. (  0.096 ms/b)
  <pp|pp>  ...         1035 b.         0 skpd (  0.0%)     0.015 s. (  0.014 ms/b)
  <pp|pd>  ...         2430 b.         0 skpd (  0.0%)     0.025 s. (  0.010 ms/b)
  <pp|pf>  ...         2025 b.         0 skpd (  0.0%)     0.036 s. (  0.018 ms/b)
  <pp|dd>  ...          945 b.         0 skpd (  0.0%)     0.019 s. (  0.020 ms/b)
  <pp|df>  ...         1350 b.         0 skpd (  0.0%)     0.050 s. (  0.037 ms/b)
  <pp|ff>  ...          675 b.         0 skpd (  0.0%)     0.045 s. (  0.067 ms/b)
  <pd|pd>  ...         1485 b.         0 skpd (  0.0%)     0.029 s. (  0.020 ms/b)
  <pd|pf>  ...         2430 b.         0 skpd (  0.0%)     0.082 s. (  0.034 ms/b)
  <pd|dd>  ...         1134 b.         0 skpd (  0.0%)     0.041 s. (  0.036 ms/b)
  <pd|df>  ...         1620 b.         0 skpd (  0.0%)     0.106 s. (  0.065 ms/b)
  <pd|ff>  ...          810 b.         0 skpd (  0.0%)     0.113 s. (  0.140 ms/b)
  <pf|pf>  ...         1035 b.         0 skpd (  0.0%)     0.073 s. (  0.070 ms/b)
  <pf|dd>  ...          945 b.         0 skpd (  0.0%)     0.069 s. (  0.073 ms/b)
  <pf|df>  ...         1350 b.         0 skpd (  0.0%)     0.188 s. (  0.140 ms/b)
  <pf|ff>  ...          675 b.         0 skpd (  0.0%)     0.208 s. (  0.308 ms/b)
  <dd|dd>  ...          231 b.         0 skpd (  0.0%)     0.020 s. (  0.088 ms/b)
  <dd|df>  ...          630 b.         0 skpd (  0.0%)     0.095 s. (  0.151 ms/b)
  <dd|ff>  ...          315 b.         0 skpd (  0.0%)     0.097 s. (  0.307 ms/b)
  <df|df>  ...          465 b.         0 skpd (  0.0%)     0.127 s. (  0.274 ms/b)
  <df|ff>  ...          450 b.         0 skpd (  0.0%)     0.254 s. (  0.565 ms/b)
  <ff|ff>  ...          120 b.         0 skpd (  0.0%)     0.178 s. (  1.480 ms/b)


                                      INTEGRAL STATISTICS

Integral type statistics:
 Number of integrals retained            ...   14344949 
 One   Center Integrals retained         ...   14344949 (100.0%)
 Two   Center Integrals retained         ...          0 (  0.0%)
 Three Center Integrals retained         ...          0 (  0.0%)
 Four  Center Integrals retained         ...          0 (  0.0%)

Storage statistics:
 Number of char integrals                ...          0 (  0.0%)
 Number of short int integrals           ...          0 (  0.0%)
 Number of double/float integrals        ...   14344949 (100.0%)
 Amount of memory used                   ...        177 MB
 Amount of memory estimated              ...        169 MB ( 95.1%)

Prescreening statistics:
 Total number of shell quadruples        ...     123256 
 Number of skipped shell quadruples      ...         47 (  0.0%)
 # of negligible batches done            ...          0 (  0.0%)

Timings:
 Total evaluation time               ...     3.029 sec (   0.050 min)
 One electron matrix time            ...     0.112 sec (   0.002 min) =  3.7%
 Schwartz matrix evaluation time     ...     0.211 sec (   0.004 min) =  7.0%
 Statistics run                      ...     0.100 sec (   0.002 min) =  3.3%
 Repulsion integral time             ...     2.522 sec (   0.042 min) = 83.2%

-------------------------------------------------------------------------------
                                 ORCA SCF
-------------------------------------------------------------------------------

------------
SCF SETTINGS
------------
Hamiltonian:
 Ab initio Hamiltonian  Method          .... Hartree-Fock(GTOs)


General Settings:
 Integral files         IntName         .... 70_Yb_atom70
 Hartree-Fock type      HFTyp           .... ROHF
 Total Charge           Charge          ....    0
 Multiplicity           Mult            ....    1
 Number of Electrons    NEL             ....   42
 Basis Dimension        Dim             ....  103
 Nuclear Repulsion      ENuc            ....      0.0000000000 Eh

Convergence Acceleration:
 DIIS                   CNVDIIS         .... on
   Start iteration      DIISMaxIt       ....    12
   Startup error        DIISStart       ....  0.200000
   # of expansion vecs  DIISMaxEq       ....     5
   Bias factor          DIISBfac        ....   1.050
   Max. coefficient     DIISMaxC        ....  10.000
 Newton-Raphson         CNVNR           .... off
 SOSCF                  CNVSOSCF        .... off
 Level Shifting         CNVShift        .... on
   Level shift para.    LevelShift      ....    1.0000
   Turn off err/grad.   ShiftErr        ....    0.0010
 Zerner damping         CNVZerner       .... off
 Static damping         CNVDamp         .... on
   Fraction old density DampFac         ....    0.7000
   Max. Damping (<1)    DampMax         ....    0.9800
   Min. Damping (>=0)   DampMin         ....    0.0000
   Turn off err/grad.   DampErr         ....    0.1000
 Fernandez-Rico         CNVRico         .... off

SCF Procedure:
 Maximum # iterations   MaxIter         ....  1000
 SCF integral mode      SCFMode         .... Conventional
 Integral Threshold     Thresh          ....  1.000e-10 Eh
 Primitive CutOff       TCut            ....  1.000e-11 Eh
 Integral Buffer length BufferLength    .... 1048576
 Integral index format  IndFormat       ....     0
 Integral value format  ValFormat       ....     0
 Integral Storage       Thresh          ....  1.000e-10 Eh

Convergence Tolerance:
 Convergence Check Mode ConvCheckMode   .... Total+1el-Energy
 Convergence forced     ConvForced      .... 0
 Energy Change          TolE            ....  1.000e-06 Eh
 1-El. energy change                    ....  1.000e-03 Eh
 DIIS Error             TolErr          ....  1.000e-06


Diagonalization of the overlap matrix:
Smallest eigenvalue                        ... 1.406e-03
Time for diagonalization                   ...    0.002 sec
Threshold for overlap eigenvalues          ... 1.000e-08
Number of eigenvalues below threshold      ... 0
Time for construction of square roots      ...    0.003 sec
Total time needed                          ...    0.005 sec

--------------------
INITIAL GUESS: HCORE
--------------------
AVERAGE-CONFIGURATION (SAHF) CASE FOUND

-------------------
FINAL ROHF SETTINGS
-------------------
Number of operators             ... 2
  operator   0:  14 orbitals  28 electrons n(mue)= 2.000
  operator   1:   7 orbitals  14 electrons n(mue)= 2.000
Vector coupling coefficients a and b (Zerner convention):
   1.000    1.000           1.000    1.000 
   1.000    1.000           1.000    1.000 

                      -----------------
                      INTIAL GUESS DONE 
                      -----------------

 InCore treatment chosen:
   Memory dedicated               ...    1024 MB
   Memory needed                  ...    177 MB
   Number of tiny    integrals    ...       0
   Number of small   integrals    ...       0
   Number of regular integrals    ... 14344949

--------------
SCF ITERATIONS
--------------
ITER       Energy         Delta-E        Max-DP      RMS-DP      [F,P]     Damp
  0   -904.1633400824   0.00000000000011.11214854  0.16053061 16.3439657 0.7000
  1   -981.3759027360 -77.212562653551 3.49453727  0.05327680  6.6241583 0.7000
  2  -1089.7384327356-108.362529999595 4.38382743  0.05556022  1.4375116 0.7000
  3  -1118.8252757279 -29.086842992280 3.06867920  0.03929955  0.4253435 0.7000
  4  -1129.4021282546 -10.576852526789 2.14807544  0.02761832  0.2594604 0.7000
                            ****Activating DIIS****
  5  -1136.8634531919  -7.461324937253 1.50365281  0.01947591  0.1850930 0.7000
  6  -1142.3876234554  -5.524170263508 3.50852322  0.04546536  0.0752232 0.0000
  7  -1155.1308743248 -12.743250869399 0.08398170  0.00117523  0.1777642 0.7000
  8  -1154.7656721776   0.365202147198 0.04517509  0.00063409  0.3271304 0.7000
  9  -1154.7879431457  -0.022270968090 0.01514919  0.00025220  0.3088096 0.7000
 10  -1154.8392623779  -0.051319232192 0.10420317  0.00157907  0.2821906 0.7000
 11  -1155.2202116535  -0.380949275647 0.30773718  0.00518490  0.0908222 0.0000
 12  -1155.4329921727  -0.212780519196 0.01378329  0.00038925  0.0567882 0.0000
 13  -1155.4492545180  -0.016262345275 0.01935134  0.00053515  0.0557719 0.0000
 14  -1155.4610903706  -0.011835852598 0.06241734  0.00125858  0.0539186 0.0000
 15  -1155.4826007705  -0.021510399921 0.08890336  0.00135166  0.0476014 0.0000
 16  -1155.4992398674  -0.016639096901 0.08238285  0.00108483  0.0387911 0.0000
 17  -1155.5085104726  -0.009270605119 0.09215090  0.00124540  0.0314644 0.0000
 18  -1155.5169518327  -0.008441360188 0.08509971  0.00129799  0.0216390 0.0000
 19  -1155.5224918252  -0.005539992474 0.05284785  0.00085943  0.0105540 0.0000
 20  -1155.5240974976  -0.001605672423 0.01429673  0.00022281  0.0033254 0.0000
 21  -1155.5242508252  -0.000153327522 0.00844204  0.00013668  0.0017017 0.0000
 22  -1155.5242920819  -0.000041256730 0.00287991  0.00004792  0.0006389 0.0000
 23  -1155.5242973827  -0.000005300797 0.00069639  0.00001110  0.0002148 0.0000
 24  -1155.5242979071  -0.000000524433 0.00039818  0.00000576  0.0001349 0.0000
                 **** Energy Check signals convergence ****

               *****************************************************
               *                     SUCCESS                       *
               *           SCF CONVERGED AFTER  25 CYCLES          *
               *****************************************************


----------------
TOTAL SCF ENERGY
----------------

Total Energy       :        -1155.52429810 Eh          -31443.41470 eV

Components:
Nuclear Repulsion  :            0.00000000 Eh               0.00000 eV
Electronic Energy  :        -1155.52429810 Eh          -31443.41470 eV
One Electron Energy:        -2109.41016503 Eh          -57399.96875 eV
Two Electron Energy:          953.88586693 Eh           25956.55404 eV

Virial components:
Potential Energy   :        -1894.50511961 Eh          -51552.10516 eV
Kinetic Energy     :          738.98082151 Eh           20108.69046 eV
Virial Ratio       :            2.56367292


---------------
SCF CONVERGENCE
---------------

  Last Energy change         ...   -1.9070e-07  Tolerance :   1.0000e-06
  Last MAX-Density change    ...    2.0822e-04  Tolerance :   1.0000e-05
  Last RMS-Density change    ...    2.9329e-06  Tolerance :   1.0000e-06
  Last DIIS Error            ...    8.0886e-05  Tolerance :   1.0000e-06

             **** THE GBW FILE WAS UPDATED (70_Yb_atom70.gbw) ****
             **** DENSITY FILE WAS UPDATED (70_Yb_atom70.scfp) ****
             **** ENERGY FILE WAS UPDATED (70_Yb_atom70.en.tmp) ****
             **** THE GBW FILE WAS UPDATED (70_Yb_atom70.gbw) ****
             **** DENSITY FILE WAS UPDATED (70_Yb_atom70.scfp) ****
----------------
ORBITAL ENERGIES
----------------

  NO   OCC          E(Eh)            E(eV) 
   0   2.0000     -18.906870      -514.4821 
   1   2.0000     -13.058135      -355.3299 
   2   2.0000     -13.058103      -355.3290 
   3   2.0000     -13.054869      -355.2411 
   4   2.0000      -6.318231      -171.9278 
   5   2.0000      -6.318229      -171.9278 
   6   2.0000      -6.315716      -171.8594 
   7   2.0000      -6.315716      -171.8594 
   8   2.0000      -6.314921      -171.8377 
   9   2.0000      -2.479896       -67.4814 
  10   2.0000      -1.381685       -37.5976 
  11   2.0000      -1.381646       -37.5965 
  12   2.0000      -1.316643       -35.8277 
  13   2.0000      -0.632576       -17.2133 
  14   2.0000      -0.635251       -17.2861 
  15   2.0000      -0.635217       -17.2851 
  16   2.0000      -0.632584       -17.2135 
  17   2.0000      -0.631177       -17.1752 
  18   2.0000      -0.631137       -17.1741 
  19   2.0000      -0.630762       -17.1639 
  20   2.0000      -0.168854        -4.5948 
  21   0.0000      -0.077527        -2.1096 
  22   0.0000       0.011875         0.3231 
  23   0.0000       0.011875         0.3231 
  24   0.0000       0.061251         1.6667 
  25   0.0000       0.066104         1.7988 
  26   0.0000       0.066106         1.7988 
  27   0.0000       0.073324         1.9952 
  28   0.0000       0.073324         1.9952 
  29   0.0000       0.078693         2.1413 
  30   0.0000       0.150535         4.0963 
  31   0.0000       0.150535         4.0963 
  32   0.0000       0.159036         4.3276 
  33   0.0000       0.292415         7.9570 
  34   0.0000       0.292416         7.9570 
  35   0.0000       0.302406         8.2289 
  36   0.0000       0.306857         8.3500 
  37   0.0000       0.306857         8.3500 
  38   0.0000       0.332533         9.0487 
  39   0.0000       0.560779        15.2596 
  40   0.0000       0.560779        15.2596 
  41   0.0000       0.577671        15.7192 
  42   0.0000       0.577671        15.7192 
  43   0.0000       0.588147        16.0043 
  44   0.0000       0.588147        16.0043 
  45   0.0000       0.591741        16.1021 
  46   0.0000       0.754108        20.5203 
  47   0.0000       0.754108        20.5203 
  48   0.0000       0.775899        21.1133 
  49   0.0000       1.229775        33.4639 
  50   0.0000       1.229777        33.4639 
  51   0.0000       1.242828        33.8191 
  52   0.0000       1.242828        33.8191 
  53   0.0000       1.247271        33.9400 
  54   0.0000       1.646205        44.7955 
  55   0.0000       1.646205        44.7955 
  56   0.0000       1.659762        45.1644 
  57   0.0000       1.659762        45.1644 
  58   0.0000       1.667749        45.3817 
  59   0.0000       1.667749        45.3818 
  60   0.0000       1.670386        45.4535 
  61   0.0000       2.004206        54.5372 
  62   0.0000       2.875083        78.2350 
  63   0.0000       2.875083        78.2350 
  64   0.0000       2.891429        78.6798 
  65   0.0000       4.063346       110.5693 
  66   0.0000       4.063346       110.5693 
  67   0.0000       4.071827       110.8000 
  68   0.0000       4.071827       110.8000 
  69   0.0000       4.076796       110.9353 
  70   0.0000       4.076796       110.9353 
  71   0.0000       4.078431       110.9797 
  72   0.0000       4.633781       126.0916 
  73   0.0000       4.633781       126.0916 
  74   0.0000       4.641684       126.3066 
  75   0.0000       4.641684       126.3066 
  76   0.0000       4.644248       126.3764 
  77   0.0000       9.088581       247.3129 
  78   0.0000       9.088582       247.3129 
  79   0.0000       9.096721       247.5344 
  80   0.0000       9.571124       260.4435 
  81   0.0000       9.571124       260.4435 
  82   0.0000       9.576301       260.5844 
  83   0.0000       9.576301       260.5844 
  84   0.0000       9.579349       260.6674 
  85   0.0000       9.579350       260.6674 
  86   0.0000       9.580354       260.6947 
  87   0.0000      11.147140       303.3291 
  88   0.0000      14.496050       394.4576 
  89   0.0000      14.496052       394.4576 
  90   0.0000      14.500503       394.5788 
  91   0.0000      14.500503       394.5788 
  92   0.0000      14.501927       394.6175 
  93   0.0000      33.614273       914.6909 
  94   0.0000      44.230382      1203.5699 
  95   0.0000      44.230383      1203.5699 
  96   0.0000      44.234302      1203.6766 
  97   0.0000      79.893080      2174.0012 
  98   0.0000      79.893080      2174.0012 
  99   0.0000      79.895158      2174.0578 
 100   0.0000      92.633131      2520.6756 
 101   0.0000     337.220438      9176.2346 
 102   0.0000     721.537945     19634.0457 
CleanUpVectors: The p-vectors have cracked symmetry
CleanUpVectors: The p-vectors have cracked symmetry
CleanUpVectors: The p-vectors have cracked symmetry
CleanUpVectors: The d-vectors have cracked symmetry at i=4
CleanUpVectors: The d-vectors have cracked symmetry at i=5
CleanUpVectors: The d-vectors have cracked symmetry at i=6
CleanUpVectors: The d-vectors have cracked symmetry at i=7
CleanUpVectors: The d-vectors have cracked symmetry at i=8
CleanUpVectors: The p-vectors have cracked symmetry
CleanUpVectors: The p-vectors have cracked symmetry
CleanUpVectors: The p-vectors have cracked symmetry
CleanUpVectors: The f-vectors have cracked symmetry
CleanUpVectors: The f-vectors have cracked symmetry
CleanUpVectors: The f-vectors have cracked symmetry
CleanUpVectors: The f-vectors have cracked symmetry
CleanUpVectors: The f-vectors have cracked symmetry
CleanUpVectors: The f-vectors have cracked symmetry
CleanUpVectors: The f-vectors have cracked symmetry
CleanUpVectors: The p-vectors have cracked symmetry
CleanUpVectors: The p-vectors have cracked symmetry
CleanUpVectors: The p-vectors have cracked symmetry
CleanUpVectors: The d-vectors have cracked symmetry at i=25
CleanUpVectors: The d-vectors have cracked symmetry at i=26
CleanUpVectors: The d-vectors have cracked symmetry at i=27
CleanUpVectors: The d-vectors have cracked symmetry at i=28
CleanUpVectors: The p-vectors have cracked symmetry
CleanUpVectors: The p-vectors have cracked symmetry
CleanUpVectors: The p-vectors have cracked symmetry
CleanUpVectors: The d-vectors have cracked symmetry at i=33
CleanUpVectors: The d-vectors have cracked symmetry at i=34
CleanUpVectors: The d-vectors have cracked symmetry at i=36
CleanUpVectors: The d-vectors have cracked symmetry at i=37
CleanUpVectors: The f-vectors have cracked symmetry
CleanUpVectors: The f-vectors have cracked symmetry
CleanUpVectors: The f-vectors have cracked symmetry
CleanUpVectors: The f-vectors have cracked symmetry
CleanUpVectors: The f-vectors have cracked symmetry
CleanUpVectors: The f-vectors have cracked symmetry
CleanUpVectors: The f-vectors have cracked symmetry
CleanUpVectors: The p-vectors have cracked symmetry
CleanUpVectors: The p-vectors have cracked symmetry
CleanUpVectors: The p-vectors have cracked symmetry
CleanUpVectors: The d-vectors have cracked symmetry at i=49
CleanUpVectors: The d-vectors have cracked symmetry at i=50
CleanUpVectors: The d-vectors have cracked symmetry at i=51
CleanUpVectors: The d-vectors have cracked symmetry at i=52
CleanUpVectors: The d-vectors have cracked symmetry at i=53
CleanUpVectors: The f-vectors have cracked symmetry
CleanUpVectors: The f-vectors have cracked symmetry
CleanUpVectors: The f-vectors have cracked symmetry
CleanUpVectors: The f-vectors have cracked symmetry
CleanUpVectors: The f-vectors have cracked symmetry
CleanUpVectors: The f-vectors have cracked symmetry
CleanUpVectors: The f-vectors have cracked symmetry
CleanUpVectors: The p-vectors have cracked symmetry
CleanUpVectors: The p-vectors have cracked symmetry
CleanUpVectors: The p-vectors have cracked symmetry
CleanUpVectors: The f-vectors have cracked symmetry
CleanUpVectors: The f-vectors have cracked symmetry
CleanUpVectors: The f-vectors have cracked symmetry
CleanUpVectors: The f-vectors have cracked symmetry
CleanUpVectors: The f-vectors have cracked symmetry
CleanUpVectors: The f-vectors have cracked symmetry
CleanUpVectors: The f-vectors have cracked symmetry
CleanUpVectors: The d-vectors have cracked symmetry at i=72
CleanUpVectors: The d-vectors have cracked symmetry at i=73
CleanUpVectors: The d-vectors have cracked symmetry at i=74
CleanUpVectors: The d-vectors have cracked symmetry at i=75
CleanUpVectors: The d-vectors have cracked symmetry at i=76
CleanUpVectors: The p-vectors have cracked symmetry
CleanUpVectors: The p-vectors have cracked symmetry
CleanUpVectors: The p-vectors have cracked symmetry
CleanUpVectors: The f-vectors have cracked symmetry
CleanUpVectors: The f-vectors have cracked symmetry
CleanUpVectors: The f-vectors have cracked symmetry
CleanUpVectors: The f-vectors have cracked symmetry
CleanUpVectors: The f-vectors have cracked symmetry
CleanUpVectors: The f-vectors have cracked symmetry
CleanUpVectors: The f-vectors have cracked symmetry
CleanUpVectors: The d-vectors have cracked symmetry at i=88
CleanUpVectors: The d-vectors have cracked symmetry at i=89
CleanUpVectors: The d-vectors have cracked symmetry at i=90
CleanUpVectors: The d-vectors have cracked symmetry at i=91
CleanUpVectors: The d-vectors have cracked symmetry at i=92
CleanUpVectors: The p-vectors have cracked symmetry
CleanUpVectors: The p-vectors have cracked symmetry
CleanUpVectors: The p-vectors have cracked symmetry
CleanUpVectors: The p-vectors have cracked symmetry
CleanUpVectors: The p-vectors have cracked symmetry
CleanUpVectors: The p-vectors have cracked symmetry
--------------------------
ATOM BASIS FOR ELEMENT Yb
--------------------------
 NewGTO Yb
 S 16
    1     172414.352409999992         0.000021392075
    2      34210.526012000002         0.000109518152
    3       9110.782687200001         0.000517548777
    4       2455.828865600000         0.002341795575
    5        674.351413000000         0.006772502276
    6        151.330471130000         0.016228132361
    7         63.554646256000        -0.229327693982
    8         45.199135406000         0.552948786993
    9         19.546862559000        -0.963630635412
   10          5.125818214900         0.958409245858
   11          2.599302929800         0.434929662220
   12          0.966196957800         0.023145831524
   13          0.422156094300        -0.002918198225
   14          0.089000995900         0.001480149535
   15          0.048557312600        -0.001256570877
   16          0.022443383900         0.000349328075
 P 55
    1       4713.183417200000         0.000177373024
    2       1092.086801100000         0.001492252959
    3        349.766209160000         0.006965434988
    4        129.026755100000         0.019345623382
    5         43.220986902000         0.052410197854
    6         27.836718700000        -0.017542134534
    7         15.188684778000        -0.168276477690
    8          8.554766439600         0.305607104608
    9          4.297792095400         0.461885387043
   10       4713.183417200000        -0.000071359476
   11       1092.086801100000        -0.000600352787
   12        349.766209160000        -0.002802285150
   13        129.026755100000        -0.007782996067
   14         43.220986902000        -0.021085304707
   15         27.836718700000         0.007057429031
   16         15.188684778000         0.067699817067
   17          8.554766439600        -0.122949715613
   18          4.297792095400        -0.185822502574
   19       4713.183417200000         0.000121909050
   20       1092.086801100000         0.001025630255
   21        349.766209160000         0.004787365854
   22        129.026755100000         0.013296309129
   23         43.220986902000         0.036021697436
   24         27.836718700000        -0.012056765447
   25         15.188684778000        -0.115656963970
   26          8.554766439600         0.210044745242
   27          4.297792095400         0.317455311050
   28         29.965607553000        -0.001863317923
   29         29.965607553000         0.000749634698
   30         29.965607553000        -0.001280662201
   31         13.588862420000         0.001882129450
   32          5.681416622700        -0.000632828926
   33         13.588862420000        -0.000757187684
   34          5.681416622700         0.000254589433
   35         13.588862420000         0.001293573851
   36          5.681416622700        -0.000434938708
   37          2.122906683900         0.168047032625
   38          2.122906683900        -0.067607548747
   39          2.122906683900         0.115499320265
   40          1.042907765700         0.009463363577
   41          1.042907765700        -0.003807377772
   42          1.042907765700         0.006504321923
   43          0.503628461400         0.002822878205
   44          0.503628461400        -0.001135866631
   45          0.503628461400         0.001940304330
   46          0.233642260400        -0.000765110318
   47          0.233642260400         0.000307747935
   48          0.233642260400        -0.000525803312
   49          0.067000000000         0.000247580697
   50          0.067000000000        -0.000099539710
   51          0.067000000000         0.000170268666
   52          0.030000000000        -0.000105030758
   53          0.030000000000         0.000042401489
   54          0.030000000000        -0.000071963829
   55        253.765677020000        -0.000936299146
 D 55
    1        683.452692030000         0.000217318143
    2        210.066183900000         0.001851490664
    3         82.670179069000         0.008427044114
    4         36.089009785000         0.022982736926
    5         16.176546639000         0.039283820272
    6          7.167101192900         0.092045902885
    7        683.452692030000        -0.000561962416
    8        210.066183900000        -0.004787764844
    9         82.670179069000        -0.021791471239
   10         36.089009785000        -0.059430999048
   11         16.176546639000        -0.101583927655
   12          7.167101192900        -0.238021258498
   13        683.452692030000         0.000595912864
   14        210.066183900000         0.005077013295
   15         82.670179069000         0.023107983117
   16         36.089009785000         0.063021468699
   17         16.176546639000         0.107721028076
   18          7.167101192900         0.252401095932
   19        683.452692030000        -0.000202369151
   20        210.066183900000        -0.001724129373
   21         82.670179069000        -0.007847360275
   22         36.089009785000        -0.021401788613
   23         16.176546639000        -0.036581544665
   24          7.167101192900        -0.085714202040
   25        683.452692030000         0.000122494381
   26        210.066183900000         0.001043618354
   27         82.670179069000         0.004750020120
   28         36.089009785000         0.012954537952
   29         16.176546639000         0.022142869332
   30          7.167101192900         0.051882947890
   31          3.491676458500         0.098989606191
   32          3.491676458500        -0.255976971182
   33          3.491676458500         0.271441583877
   34          3.491676458500        -0.092180261598
   35          3.491676458500         0.055796869897
   36          1.618422805200         0.043397983726
   37          1.618422805200        -0.112222728957
   38          1.618422805200         0.119002565155
   39          1.618422805200        -0.040412700165
   40          1.618422805200         0.024461874701
   41          0.625075343000         0.004956666656
   42          0.625075343000        -0.012817443221
   43          0.625075343000         0.013591793037
   44          0.625075343000        -0.004615709034
   45          0.625075343000         0.002793902642
   46          0.220085982100        -0.000176340657
   47          0.220085982100         0.000455988490
   48          0.220085982100        -0.000483540836
   49          0.220085982100         0.000164206891
   50          0.220085982100        -0.000099389957
   51          0.071286177600         0.000072430158
   52          0.071286177600        -0.000187298002
   53          0.071286177600         0.000198613006
   54          0.071286177600        -0.000067448163
   55          0.071286177600         0.000040827021
 S 16
    1     172414.352409999992        -0.000013712725
    2      34210.526012000002        -0.000070203207
    3       9110.782687200001        -0.000331758553
    4       2455.828865600000        -0.001501135247
    5        674.351413000000        -0.004341302027
    6        151.330471130000        -0.010402539718
    7         63.554646256000         0.105690101230
    8         45.199135406000        -0.252586191973
    9         19.546862559000         0.477265291689
   10          5.125818214900        -0.684280474582
   11          2.599302929800        -0.453026634946
   12          0.966196957800         0.679960464561
   13          0.422156094300         0.677762536528
   14          0.089000995900         0.051216494785
   15          0.048557312600        -0.030693273657
   16          0.022443383900         0.007288909875
 F 55
    1       4713.183417200000         0.000000004252
    2       1092.086801100000         0.000000154392
    3        349.766209160000         0.000002250136
    4        129.026755100000         0.000016941087
    5         43.220986902000         0.000137012260
    6         27.836718700000        -0.000071203724
    7         15.188684778000        -0.001251819044
    8          8.554766439600         0.004036394441
    9          4.297792095400         0.012143031729
   10       4713.183417200000         0.000000004676
   11       1092.086801100000         0.000000169763
   12        349.766209160000         0.000002474166
   13        129.026755100000         0.000018627793
   14         43.220986902000         0.000150653620
   15         27.836718700000        -0.000078292985
   16         15.188684778000        -0.001376453984
   17          8.554766439600         0.004438270241
   18          4.297792095400         0.013352029178
   19       4713.183417200000        -0.000000002943
   20       1092.086801100000        -0.000000106857
   21        349.766209160000        -0.000001557356
   22        129.026755100000        -0.000011725207
   23         43.220986902000        -0.000094828454
   24         27.836718700000         0.000049281276
   25         15.188684778000         0.000866404693
   26          8.554766439600        -0.002793655443
   27          4.297792095400        -0.008404393370
   28         29.965607553000        -0.000043080027
   29         29.965607553000        -0.000047369193
   30         29.965607553000         0.000029816391
   31         13.588862420000         0.000657786228
   32          5.681416622700        -0.000528990743
   33         13.588862420000         0.000723277208
   34          5.681416622700        -0.000581658496
   35         13.588862420000        -0.000455264597
   36          5.681416622700         0.000366123137
   37          2.122906683900        -0.001295060610
   38          2.122906683900        -0.001423995482
   39          2.122906683900         0.000896327685
   40          1.042907765700        -0.061006153555
   41          1.042907765700        -0.067080090026
   42          1.042907765700         0.042223367015
   43          0.503628461400        -0.155149877660
   44          0.503628461400        -0.170596943952
   45          0.503628461400         0.107381637119
   46          0.233642260400        -0.129471648159
   47          0.233642260400        -0.142363193450
   48          0.233642260400         0.089610000622
   49          0.067000000000        -0.013829086833
   50          0.067000000000        -0.015205151794
   51          0.067000000000         0.009573379327
   52          0.030000000000         0.005169693793
   53          0.030000000000         0.005695145900
   54          0.030000000000        -0.003572959627
   55        253.765677020000         0.000014073598
 S 16
    1     172414.352409999992         0.000085295612
    2      34210.526012000002         0.000436676563
    3       9110.782687200001         0.002063597827
    4       2455.828865600000         0.009337331037
    5        674.351413000000         0.027003678871
    6        151.330471130000         0.064705666696
    7         63.554646256000        -0.613865960678
    8         45.199135406000         1.243161515264
    9         19.546862559000        -1.996961663022
   10          5.125818214900         6.793176705221
   11          2.599302929800        -8.895937741039
   12          0.966196957800         5.937675123588
   13          0.422156094300        -2.965583894641
   14          0.089000995900         1.608167301571
   15          0.048557312600        -1.381974161994
   16          0.022443383900         0.388183168231
 S 16
    1     172414.352409999992        -0.001305874996
    2      34210.526012000002        -0.006685513985
    3       9110.782687200001        -0.031593662901
    4       2455.828865600000        -0.142954448439
    5        674.351413000000        -0.413426063993
    6        151.330471130000        -0.990643135256
    7         63.554646256000         2.643846441415
    8         45.199135406000        -2.886225372209
    9         19.546862559000         0.764242455288
   10          5.125818214900        -0.008337364724
   11          2.599302929800        -0.154019507077
   12          0.966196957800         0.139873486979
   13          0.422156094300        -0.075299274580
   14          0.089000995900         0.044167288384
   15          0.048557312600        -0.038532143816
   16          0.022443383900         0.010952618172
 S 16
    1     172414.352409999992         0.000156371076
    2      34210.526012000002         0.000800552133
    3       9110.782687200001         0.003783160767
    4       2455.828865600000         0.017117979085
    5        674.351413000000         0.049505410947
    6        151.330471130000         0.118623859946
    7         63.554646256000        -4.627552426034
    8         45.199135406000         8.258870892542
    9         19.546862559000        -6.181705336309
   10          5.125818214900         4.880745126589
   11          2.599302929800        -4.140388251302
   12          0.966196957800         1.998847185481
   13          0.422156094300        -0.926227692215
   14          0.089000995900         0.507180551732
   15          0.048557312600        -0.439869149476
   16          0.022443383900         0.124657792257
 S 16
    1     172414.352409999992        -0.000182622169
    2      34210.526012000002        -0.000934946352
    3       9110.782687200001        -0.004418266114
    4       2455.828865600000        -0.019991692553
    5        674.351413000000        -0.057816226463
    6        151.330471130000        -0.138538067241
    7         63.554646256000        -7.075416544454
    8         45.199135406000        10.760928621013
    9         19.546862559000        -4.195245762701
   10          5.125818214900         2.232889066497
   11          2.599302929800        -1.792464634152
   12          0.966196957800         0.850522802169
   13          0.422156094300        -0.395241711942
   14          0.089000995900         0.217955388219
   15          0.048557312600        -0.189314213487
   16          0.022443383900         0.053717349264
 S 16
    1     172414.352409999992        -0.001646346962
    2      34210.526012000002        -0.008428582885
    3       9110.782687200001        -0.039830865216
    4       2455.828865600000        -0.180225996130
    5        674.351413000000        -0.521215848984
    6        151.330471130000        -1.248926828165
    7         63.554646256000        12.065760588293
    8         45.199135406000       -12.962406962195
    9         19.546862559000         3.589647888540
   10          5.125818214900        -1.695608526938
   11          2.599302929800         1.346447837472
   12          0.966196957800        -0.637339252772
   13          0.422156094300         0.296450031162
   14          0.089000995900        -0.163729570804
   15          0.048557312600         0.142258895617
   16          0.022443383900        -0.040375847818
 F 55
    1       4713.183417200000         0.000000005291
    2       1092.086801100000         0.000000192116
    3        349.766209160000         0.000002799933
    4        129.026755100000         0.000021080468
    5         43.220986902000         0.000170489808
    6         27.836718700000        -0.000088601627
    7         15.188684778000        -0.001557688255
    8          8.554766439600         0.005022646239
    9          4.297792095400         0.015110057635
   10       4713.183417200000        -0.000000002378
   11       1092.086801100000        -0.000000086354
   12        349.766209160000        -0.000001258548
   13        129.026755100000        -0.000009475508
   14         43.220986902000        -0.000076633853
   15         27.836718700000         0.000039825748
   16         15.188684778000         0.000700168849
   17          8.554766439600        -0.002257640722
   18          4.297792095400        -0.006791854294
   19       4713.183417200000         0.000000003866
   20       1092.086801100000         0.000000140385
   21        349.766209160000         0.000002045998
   22        129.026755100000         0.000015404153
   23         43.220986902000         0.000124582194
   24         27.836718700000        -0.000064743959
   25         15.188684778000        -0.001138251157
   26          8.554766439600         0.003670203505
   27          4.297792095400         0.011041388115
   28         29.965607553000        -0.000053606259
   29         29.965607553000         0.000024095599
   30         29.965607553000        -0.000039171754
   31         13.588862420000         0.000818510575
   32          5.681416622700        -0.000658245033
   33         13.588862420000        -0.000367914133
   34          5.681416622700         0.000295876020
   35         13.588862420000         0.000598111105
   36          5.681416622700        -0.000481000095
   37          2.122906683900        -0.001611532965
   38          2.122906683900         0.000724364065
   39          2.122906683900        -0.001177604080
   40          1.042907765700        -0.075912419499
   41          1.042907765700         0.034122062637
   42          1.042907765700        -0.055471542218
   43          0.503628461400        -0.193060446887
   44          0.503628461400         0.086778975176
   45          0.503628461400        -0.141075394766
   46          0.233642260400        -0.161099691349
   47          0.233642260400         0.072413665298
   48          0.233642260400        -0.117720788933
   49          0.067000000000        -0.017199557779
   50          0.067000000000         0.007736617031
   51          0.067000000000        -0.012561082280
   52          0.030000000000         0.006416128366
   53          0.030000000000        -0.002860816631
   54          0.030000000000         0.004726861319
   55        253.765677020000         0.000007384898
 F 55
    1       4713.183417200000         0.000000000004
    2       1092.086801100000         0.000000000146
    3        349.766209160000         0.000000002125
    4        129.026755100000         0.000000015999
    5         43.220986902000         0.000000129391
    6         27.836718700000        -0.000000067243
    7         15.188684778000        -0.000001182187
    8          8.554766439600         0.000003811870
    9          4.297792095400         0.000011467577
   10       4713.183417200000         0.000000000005
   11       1092.086801100000         0.000000000175
   12        349.766209160000         0.000000002556
   13        129.026755100000         0.000000019244
   14         43.220986902000         0.000000155639
   15         27.836718700000        -0.000000080884
   16         15.188684778000        -0.000001422005
   17          8.554766439600         0.000004585147
   18          4.297792095400         0.000013793890
   19       4713.183417200000        -0.000000000003
   20       1092.086801100000        -0.000000000110
   21        349.766209160000        -0.000000001601
   22        129.026755100000        -0.000000012056
   23         43.220986902000        -0.000000097507
   24         27.836718700000         0.000000050673
   25         15.188684778000         0.000000890873
   26          8.554766439600        -0.000002872552
   27          4.297792095400        -0.000008641744
   28         29.965607553000         0.000000054817
   29         29.965607553000         0.000000066300
   30         29.965607553000        -0.000000045177
   31         13.588862420000        -0.000001110926
   32          5.681416622700         0.000000893405
   33         13.588862420000        -0.000001342938
   34          5.681416622700         0.000001079989
   35         13.588862420000         0.000000907414
   36          5.681416622700        -0.000000729741
   37          2.122906683900         0.000021312355
   38          2.122906683900         0.000025711293
   39          2.122906683900        -0.000016963504
   40          1.042907765700         0.000123091053
   41          1.042907765700         0.000148762436
   42          1.042907765700        -0.000100128119
   43          0.503628461400         0.000033414565
   44          0.503628461400         0.000040511237
   45          0.503628461400        -0.000031827095
   46          0.233642260400         0.001821660991
   47          0.233642260400         0.002203445998
   48          0.233642260400        -0.001454578756
   49          0.067000000000         0.002021047805
   50          0.067000000000         0.002435261228
   51          0.067000000000        -0.001614486668
   52          0.030000000000        -0.001984074508
   53          0.030000000000        -0.002446456338
   54          0.030000000000         0.001553246164
   55        253.765677020000         0.000315309677
 D 55
    1        683.452692030000         0.000043385892
    2        210.066183900000         0.000369635837
    3         82.670179069000         0.001682394391
    4         36.089009785000         0.004588326248
    5         16.176546639000         0.007842711869
    6          7.167101192900         0.018376254908
    7        683.452692030000        -0.000083124040
    8        210.066183900000        -0.000708193904
    9         82.670179069000        -0.003223338570
   10         36.089009785000        -0.008790881045
   11         16.176546639000        -0.015026034198
   12          7.167101192900        -0.035207494458
   13        683.452692030000        -0.000060980699
   14        210.066183900000        -0.000519538744
   15         82.670179069000        -0.002364676205
   16         36.089009785000        -0.006449085870
   17         16.176546639000        -0.011023261985
   18          7.167101192900        -0.025828600556
   19        683.452692030000         0.000087122766
   20        210.066183900000         0.000742261943
   21         82.670179069000         0.003378398961
   22         36.089009785000         0.009213770986
   23         16.176546639000         0.015748869449
   24          7.167101192900         0.036901169434
   25        683.452692030000        -0.000017722504
   26        210.066183900000        -0.000150990844
   27         82.670179069000        -0.000687233549
   28         36.089009785000        -0.001874264291
   29         16.176546639000        -0.003203633308
   30          7.167101192900        -0.007506431868
   31          3.491676458500         0.013435119308
   32          3.491676458500        -0.025740657827
   33          3.491676458500        -0.018883626347
   34          3.491676458500         0.026978926008
   35          3.491676458500        -0.005488050253
   36          1.618422805200        -0.010629748280
   37          1.618422805200         0.020365782056
   38          1.618422805200         0.014940558900
   39          1.618422805200        -0.021345489258
   40          1.618422805200         0.004342097029
   41          0.625075343000        -0.060719758675
   42          0.625075343000         0.116334399747
   43          0.625075343000         0.085344180015
   44          0.625075343000        -0.121930727438
   45          0.625075343000         0.024803135031
   46          0.220085982100        -0.081255345491
   47          0.220085982100         0.155679006023
   48          0.220085982100         0.114207809044
   49          0.220085982100        -0.163168028664
   50          0.220085982100         0.033191621611
   51          0.071286177600        -0.220153632172
   52          0.071286177600         0.421797455068
   53          0.071286177600         0.309435206669
   54          0.071286177600        -0.442088210122
   55          0.071286177600         0.089929546744
 D 55
    1     172414.352409999992         0.000000000000
    2      34210.526012000002         0.000000000000
    3       9110.782687200001         0.000000000000
    4       2455.828865600000         0.000000000000
    5        674.351413000000         0.000000000002
    6        151.330471130000         0.000000000022
    7         63.554646256000        -0.000000000542
    8         45.199135406000         0.000000001749
    9         19.546862559000        -0.000000007359
   10          5.125818214900         0.000000049809
   11          0.966196957800         0.000000088987
   12          0.422156094300        -0.000002843714
   13          0.089000995900         0.000059547053
   14          0.048557312600        -0.000131853331
   15          0.022443383900         0.000097343434
   16        683.452692030000         0.000051717757
   17        210.066183900000         0.000440621030
   18         82.670179069000         0.002005482894
   19         36.089009785000         0.005469472468
   20         16.176546639000         0.009348833174
   21          7.167101192900         0.021905247110
   22        683.452692030000        -0.000136169073
   23        210.066183900000        -0.001160122957
   24         82.670179069000        -0.005280289836
   25         36.089009785000        -0.014400721124
   26         16.176546639000        -0.024614794236
   27          7.167101192900        -0.057674914102
   28        683.452692030000         0.000144050304
   29        210.066183900000         0.001227268873
   30         82.670179069000         0.005585903906
   31         36.089009785000         0.015234210029
   32         16.176546639000         0.026039456080
   33          7.167101192900         0.061013038675
   34        683.452692030000        -0.000048930578
   35        210.066183900000        -0.000416875037
   36         82.670179069000        -0.001897403208
   37         36.089009785000        -0.005174711105
   38         16.176546639000        -0.008845004913
   39          7.167101192900        -0.020724727320
   40        683.452692030000         0.000029087088
   41        210.066183900000         0.000247813969
   42         82.670179069000         0.001127923184
   43         36.089009785000         0.003076139328
   44         16.176546639000         0.005257968400
   45          7.167101192900         0.012319943563
   46          3.491676458500         0.019955363265
   47          3.491676458500        -0.052541020546
   48          3.491676458500         0.055582000975
   49          3.491676458500        -0.018879929649
   50          3.491676458500         0.011223296596
   51          1.618422805200        -0.024912314848
   52          1.618422805200         0.065592311073
   53          1.618422805200        -0.069388677179
   54          1.618422805200         0.023569740425
   55          1.618422805200        -0.014011184196
 F 55
    1       4713.183417200000         0.000000000000
    2       1092.086801100000         0.000000000000
    3        349.766209160000         0.000000000000
    4        129.026755100000         0.000000000001
    5         43.220986902000         0.000000000009
    6         15.188684778000        -0.000000000085
    7          8.554766439600         0.000000000275
    8          4.297792095400         0.000000000829
    9       4713.183417200000        -0.000000000000
   10       1092.086801100000        -0.000000000000
   11        349.766209160000        -0.000000000000
   12        129.026755100000        -0.000000000000
   13       4713.183417200000         0.000000000000
   14       1092.086801100000         0.000000000000
   15        349.766209160000         0.000000000000
   16        129.026755100000         0.000000000001
   17         43.220986902000         0.000000000006
   18         15.188684778000        -0.000000000058
   19          8.554766439600         0.000000000187
   20          2.122906683900         0.000000029640
   21          2.122906683900        -0.000000011755
   22          2.122906683900         0.000000020243
   23          1.042907765700        -0.000000131186
   24          1.042907765700         0.000000051633
   25          1.042907765700        -0.000000089360
   26          0.503628461400         0.000000630825
   27          0.503628461400        -0.000000249103
   28          0.503628461400         0.000000430204
   29          0.233642260400        -0.000002668303
   30          0.233642260400         0.000001056310
   31          0.233642260400        -0.000001823741
   32        253.765677020000         0.000043368809
   33         88.431756748000         0.000488733887
   34         38.865808516000         0.002617236063
   35         18.951789135000         0.006362655054
   36          9.175991926700         0.009746375596
   37          4.380562414500         0.010740773909
   38        253.765677020000         0.000123511408
   39         88.431756748000         0.001391880750
   40         38.865808516000         0.007453709654
   41         18.951789135000         0.018120407282
   42          9.175991926700         0.027757012414
   43          4.380562414500         0.030588990930
   44        253.765677020000        -0.000096560498
   45         88.431756748000        -0.001088164249
   46         38.865808516000        -0.005827266717
   47         18.951789135000        -0.014166428684
   48          9.175991926700        -0.021700270349
   49          4.380562414500        -0.023914294629
   50        253.765677020000         0.000042947507
   51         88.431756748000         0.000483986130
   52         38.865808516000         0.002591811181
   53         18.951789135000         0.006300845668
   54          9.175991926700         0.009651695390
   55          4.380562414500         0.010636433718
 P 55
    1       4713.183417200000         0.000070462836
    2       1092.086801100000         0.000592809282
    3        349.766209160000         0.002767074098
    4        129.026755100000         0.007685201782
    5         43.220986902000         0.020820365309
    6         27.836718700000        -0.006968751584
    7         15.188684778000        -0.066849160696
    8          8.554766439600         0.121404837599
    9          4.297792095400         0.183487620405
   10       4713.183417200000        -0.000029217049
   11       1092.086801100000        -0.000245805289
   12        349.766209160000        -0.001147352902
   13        129.026755100000        -0.003186629000
   14         43.220986902000        -0.008633056329
   15         27.836718700000         0.002889556647
   16         15.188684778000         0.027718657251
   17          8.554766439600        -0.050339885304
   18          4.297792095400        -0.076082188721
   19       4713.183417200000         0.000049231948
   20       1092.086801100000         0.000414192180
   21        349.766209160000         0.001933337567
   22        129.026755100000         0.005369602977
   23         43.220986902000         0.014547060533
   24         27.836718700000        -0.004869023652
   25         15.188684778000        -0.046707095327
   26          8.554766439600         0.084824809524
   27          4.297792095400         0.128201666085
   28         29.965607553000        -0.003798339826
   29         29.965607553000         0.001574961868
   30         29.965607553000        -0.002653876539
   31         13.588862420000         0.028645689316
   32          5.681416622700        -0.009631548354
   33         13.588862420000        -0.011877786218
   34          5.681416622700         0.003993671475
   35         13.588862420000         0.020014565951
   36          5.681416622700        -0.006729503264
   37          2.122906683900        -0.227972800341
   38          2.122906683900         0.094527737078
   39          2.122906683900        -0.159283185963
   40          1.042907765700         0.385688584738
   41          1.042907765700        -0.159923766640
   42          1.042907765700         0.269478228374
   43          0.503628461400        -1.833028894949
   44          0.503628461400         0.760055907795
   45          0.503628461400        -1.280725956208
   46          0.233642260400         2.401697371252
   47          0.233642260400        -0.995851338723
   48          0.233642260400         1.678051107964
   49          0.067000000000        -1.463281916251
   50          0.067000000000         0.606742245406
   51          0.067000000000        -1.022386030689
   52          0.030000000000         0.656238005007
   53          0.030000000000        -0.272105680190
   54          0.030000000000         0.458509437880
   55        253.765677020000        -0.000511785056
 D 55
    1         45.199135406000         0.000000000052
    2         19.546862559000        -0.000000000242
    3        683.452692030000         0.000097980770
    4        210.066183900000         0.000834769148
    5         82.670179069000         0.003799444725
    6         36.089009785000         0.010362072086
    7         16.176546639000         0.017711631944
    8          7.167101192900         0.041500117416
    9        683.452692030000        -0.000257209951
   10        210.066183900000        -0.002191357864
   11         82.670179069000        -0.009973946804
   12         36.089009785000        -0.027201542131
   13         16.176546639000        -0.046494919020
   14          7.167101192900        -0.108942225352
   15        683.452692030000         0.000272204490
   16        210.066183900000         0.002319107208
   17         82.670179069000         0.010555396862
   18         36.089009785000         0.028787307382
   19         16.176546639000         0.049205428098
   20          7.167101192900         0.115293218043
   21        683.452692030000        -0.000092457641
   22        210.066183900000        -0.000787713613
   23         82.670179069000        -0.003585271854
   24         36.089009785000        -0.009777967069
   25         16.176546639000        -0.016713235774
   26          7.167101192900        -0.039160775768
   27        683.452692030000         0.000055124740
   28        210.066183900000         0.000469647586
   29         82.670179069000         0.002137597018
   30         36.089009785000         0.005829781979
   31         16.176546639000         0.009964701256
   32          7.167101192900         0.023348287354
   33          3.491676458500         0.008627349573
   34          3.491676458500        -0.022647716604
   35          3.491676458500         0.023968006373
   36          3.491676458500        -0.008141032238
   37          3.491676458500         0.004853817984
   38          1.618422805200         0.017386665614
   39          1.618422805200        -0.045641851445
   40          1.618422805200         0.048302627187
   41          1.618422805200        -0.016406588544
   42          1.618422805200         0.009781875117
   43          0.625075343000        -0.332419026921
   44          0.625075343000         0.872635413470
   45          0.625075343000        -0.923507300950
   46          0.625075343000         0.313680755488
   47          0.625075343000        -0.187021585429
   48          0.220085982100         0.344295520921
   49          0.220085982100        -0.903812451999
   50          0.220085982100         0.956501876801
   51          0.220085982100        -0.324887771035
   52          0.220085982100         0.193703375469
   53          0.071286177600        -0.127139560221
   54          0.071286177600         0.333754907752
   55          0.071286177600        -0.353211768600
 F 55
    1       4713.183417200000         0.000000000000
    2       1092.086801100000         0.000000000000
    3        349.766209160000         0.000000000000
    4        129.026755100000         0.000000000003
    5         43.220986902000         0.000000000025
    6         27.836718700000        -0.000000000013
    7         15.188684778000        -0.000000000232
    8          8.554766439600         0.000000000749
    9          4.297792095400         0.000000002252
   10       4713.183417200000        -0.000000000000
   11       1092.086801100000        -0.000000000000
   12        349.766209160000        -0.000000000000
   13        129.026755100000        -0.000000000001
   14         43.220986902000        -0.000000000010
   15         15.188684778000         0.000000000089
   16          8.554766439600        -0.000000000286
   17          4.297792095400        -0.000000000860
   18       4713.183417200000         0.000000000000
   19       1092.086801100000         0.000000000000
   20        349.766209160000         0.000000000000
   21        129.026755100000         0.000000000002
   22         43.220986902000         0.000000000017
   23         15.188684778000        -0.000000000155
   24          8.554766439600         0.000000000501
   25          4.297792095400         0.000000001508
   26         29.965607553000         0.000000000011
   27         13.588862420000        -0.000000000310
   28         13.588862420000         0.000000000126
   29         13.588862420000        -0.000000000213
   30          2.122906683900        -0.000000016124
   31          2.122906683900         0.000000006226
   32          2.122906683900        -0.000000010848
   33          1.042907765700         0.000000210247
   34          1.042907765700        -0.000000082989
   35          1.042907765700         0.000000143070
   36          0.503628461400        -0.000000927898
   37          0.503628461400         0.000000366634
   38          0.503628461400        -0.000000632090
   39          0.233642260400         0.000001437726
   40          0.233642260400        -0.000000567164
   41          0.233642260400         0.000000978981
   42        253.765677020000         0.000115356949
   43         88.431756748000         0.001299986121
   44         38.865808516000         0.006961601489
   45         18.951789135000         0.016924063341
   46          9.175991926700         0.025924441374
   47          4.380562414500         0.028569447252
   48        253.765677020000         0.000326553576
   49         88.431756748000         0.003680013385
   50         38.865808516000         0.019706969362
   51         18.951789135000         0.047908803493
   52          9.175991926700         0.073387161371
   53          4.380562414500         0.080874669797
   54        253.765677020000        -0.000255027890
   55         88.431756748000        -0.002873972659
 P 55
    1       4713.183417200000         0.000081921481
    2       1092.086801100000         0.000689211749
    3        349.766209160000         0.003217054855
    4        129.026755100000         0.008934966982
    5         43.220986902000         0.024206166847
    6         27.836718700000        -0.008102007868
    7         15.188684778000        -0.077720151081
    8          8.554766439600         0.141147655737
    9          4.297792095400         0.213326321992
   10       4713.183417200000        -0.000031868196
   11       1092.086801100000        -0.000268109595
   12        349.766209160000        -0.001251463393
   13        129.026755100000        -0.003475782852
   14         43.220986902000        -0.009416417521
   15         27.836718700000         0.003151754234
   16         15.188684778000         0.030233840698
   17          8.554766439600        -0.054907712854
   18          4.297792095400        -0.082985865906
   19       4713.183417200000         0.000055309109
   20       1092.086801100000         0.000465319808
   21        349.766209160000         0.002171987564
   22        129.026755100000         0.006032423456
   23         43.220986902000         0.016342740714
   24         27.836718700000        -0.005470052929
   25         15.188684778000        -0.052472590368
   26          8.554766439600         0.095295531698
   27          4.297792095400         0.144026800681
   28         29.965607553000        -0.010189382422
   29         29.965607553000         0.003963761772
   30         29.965607553000        -0.006879339274
   31         13.588862420000         0.074496224003
   32          5.681416622700        -0.025047886813
   33         13.588862420000        -0.028979703854
   34          5.681416622700         0.009743854158
   35         13.588862420000         0.050295962870
   36          5.681416622700        -0.016911026055
   37          2.122906683900         0.762103116319
   38          2.122906683900        -0.296464994532
   39          2.122906683900         0.514532254618
   40          1.042907765700        -3.417885168407
   41          1.042907765700         1.329588197427
   42          1.042907765700        -2.307577709657
   43          0.503628461400         4.192664553963
   44          0.503628461400        -1.630984376039
   45          0.503628461400         2.830668322374
   46          0.233642260400        -2.225907229611
   47          0.233642260400         0.865898015035
   48          0.233642260400        -1.502816408522
   49          0.067000000000         0.747840913415
   50          0.067000000000        -0.290916869188
   51          0.067000000000         0.504903160657
   52          0.030000000000        -0.308043564018
   53          0.030000000000         0.119831728351
   54          0.030000000000        -0.207974939953
   55        253.765677020000         0.000283579927
 F 55
    1       4713.183417200000         0.000000000000
    2       1092.086801100000         0.000000000000
    3        349.766209160000         0.000000000000
    4        129.026755100000         0.000000000002
    5         43.220986902000         0.000000000016
    6         15.188684778000        -0.000000000142
    7          8.554766439600         0.000000000458
    8          4.297792095400         0.000000001378
    9       4713.183417200000        -0.000000000000
   10       1092.086801100000        -0.000000000000
   11        349.766209160000        -0.000000000000
   12        129.026755100000        -0.000000000001
   13         43.220986902000        -0.000000000006
   14         15.188684778000         0.000000000050
   15          8.554766439600        -0.000000000162
   16       4713.183417200000         0.000000000000
   17       1092.086801100000         0.000000000000
   18        349.766209160000         0.000000000000
   19        129.026755100000         0.000000000001
   20         43.220986902000         0.000000000010
   21         15.188684778000        -0.000000000090
   22          8.554766439600         0.000000000291
   23          4.297792095400         0.000000000874
   24         29.965607553000        -0.000000000013
[...]
  BAS[ATNO][ 24].a[ 37] =         2.122906683900;     BAS[ATNO][ 24].d[ 37] =         2.872270178006;
  BAS[ATNO][ 24].a[ 38] =         2.122906683900;     BAS[ATNO][ 24].d[ 38] =        -1.913144360960;
  BAS[ATNO][ 24].a[ 39] =         1.042907765700;     BAS[ATNO][ 24].d[ 39] =        -1.958709808472;
  BAS[ATNO][ 24].a[ 40] =         1.042907765700;     BAS[ATNO][ 24].d[ 40] =        -2.466505585808;
  BAS[ATNO][ 24].a[ 41] =         1.042907765700;     BAS[ATNO][ 24].d[ 41] =         1.642875133821;
  BAS[ATNO][ 24].a[ 42] =         0.503628461400;     BAS[ATNO][ 24].d[ 42] =         1.142095583905;
  BAS[ATNO][ 24].a[ 43] =         0.503628461400;     BAS[ATNO][ 24].d[ 43] =         1.438184015321;
  BAS[ATNO][ 24].a[ 44] =         0.503628461400;     BAS[ATNO][ 24].d[ 44] =        -0.957936917054;
  BAS[ATNO][ 24].a[ 45] =         0.233642260400;     BAS[ATNO][ 24].d[ 45] =        -0.447940307162;
  BAS[ATNO][ 24].a[ 46] =         0.233642260400;     BAS[ATNO][ 24].d[ 46] =        -0.564068891122;
  BAS[ATNO][ 24].a[ 47] =         0.233642260400;     BAS[ATNO][ 24].d[ 47] =         0.375711597986;
  BAS[ATNO][ 24].a[ 48] =         0.067000000000;     BAS[ATNO][ 24].d[ 48] =         0.139454886031;
  BAS[ATNO][ 24].a[ 49] =         0.067000000000;     BAS[ATNO][ 24].d[ 49] =         0.175608583702;
  BAS[ATNO][ 24].a[ 50] =         0.067000000000;     BAS[ATNO][ 24].d[ 50] =        -0.116968304121;
  BAS[ATNO][ 24].a[ 51] =         0.030000000000;     BAS[ATNO][ 24].d[ 51] =        -0.058408508250;
  BAS[ATNO][ 24].a[ 52] =         0.030000000000;     BAS[ATNO][ 24].d[ 52] =        -0.073550921750;
  BAS[ATNO][ 24].a[ 53] =         0.030000000000;     BAS[ATNO][ 24].d[ 53] =         0.048990353441;
  BAS[ATNO][ 24].a[ 54] =       253.765677020000;     BAS[ATNO][ 24].d[ 54] =         0.000006288738;

  // Basis function  26 L = p
  InitBFNGauss(BAS[ATNO][ 25]);
  BAS[ATNO][ 25].l  = 1;
  BAS[ATNO][ 25].ng = 55;
  BAS[ATNO][ 25].a[  0] =      4713.183417200000;     BAS[ATNO][ 25].d[  0] =        -0.000196625834;
  BAS[ATNO][ 25].a[  1] =      1092.086801100000;     BAS[ATNO][ 25].d[  1] =        -0.001654228338;
  BAS[ATNO][ 25].a[  2] =       349.766209160000;     BAS[ATNO][ 25].d[  2] =        -0.007721492441;
  BAS[ATNO][ 25].a[  3] =       129.026755100000;     BAS[ATNO][ 25].d[  3] =        -0.021445478277;
  BAS[ATNO][ 25].a[  4] =        43.220986902000;     BAS[ATNO][ 25].d[  4] =        -0.058099019988;
  BAS[ATNO][ 25].a[  5] =        27.836718700000;     BAS[ATNO][ 25].d[  5] =         0.019446231204;
  BAS[ATNO][ 25].a[  6] =        15.188684778000;     BAS[ATNO][ 25].d[  6] =         0.186541910564;
  BAS[ATNO][ 25].a[  7] =         8.554766439600;     BAS[ATNO][ 25].d[  7] =        -0.338778978252;
  BAS[ATNO][ 25].a[  8] =         4.297792095400;     BAS[ATNO][ 25].d[  8] =        -0.512020359254;
  BAS[ATNO][ 25].a[  9] =      4713.183417200000;     BAS[ATNO][ 25].d[  9] =        -0.000246823516;
  BAS[ATNO][ 25].a[ 10] =      1092.086801100000;     BAS[ATNO][ 25].d[ 10] =        -0.002076545311;
  BAS[ATNO][ 25].a[ 11] =       349.766209160000;     BAS[ATNO][ 25].d[ 11] =        -0.009692754349;
  BAS[ATNO][ 25].a[ 12] =       129.026755100000;     BAS[ATNO][ 25].d[ 12] =        -0.026920411362;
  BAS[ATNO][ 25].a[ 13] =        43.220986902000;     BAS[ATNO][ 25].d[ 13] =        -0.072931435597;
  BAS[ATNO][ 25].a[ 14] =        27.836718700000;     BAS[ATNO][ 25].d[ 14] =         0.024410765603;
  BAS[ATNO][ 25].a[ 15] =        15.188684778000;     BAS[ATNO][ 25].d[ 15] =         0.234165212068;
  BAS[ATNO][ 25].a[ 16] =         8.554766439600;     BAS[ATNO][ 25].d[ 16] =        -0.425267710867;
  BAS[ATNO][ 25].a[ 17] =         4.297792095400;     BAS[ATNO][ 25].d[ 17] =        -0.642736828657;
  BAS[ATNO][ 25].a[ 18] =      4713.183417200000;     BAS[ATNO][ 25].d[ 18] =         0.000164206753;
  BAS[ATNO][ 25].a[ 19] =      1092.086801100000;     BAS[ATNO][ 25].d[ 19] =         0.001381484103;
  BAS[ATNO][ 25].a[ 20] =       349.766209160000;     BAS[ATNO][ 25].d[ 20] =         0.006448395793;
  BAS[ATNO][ 25].a[ 21] =       129.026755100000;     BAS[ATNO][ 25].d[ 21] =         0.017909611768;
  BAS[ATNO][ 25].a[ 22] =        43.220986902000;     BAS[ATNO][ 25].d[ 22] =         0.048519826821;
  BAS[ATNO][ 25].a[ 23] =        27.836718700000;     BAS[ATNO][ 25].d[ 23] =        -0.016239994591;
  BAS[ATNO][ 25].a[ 24] =        15.188684778000;     BAS[ATNO][ 25].d[ 24] =        -0.155785436610;
  BAS[ATNO][ 25].a[ 25] =         8.554766439600;     BAS[ATNO][ 25].d[ 25] =         0.282922110541;
  BAS[ATNO][ 25].a[ 26] =         4.297792095400;     BAS[ATNO][ 25].d[ 26] =         0.427599969241;
  BAS[ATNO][ 25].a[ 27] =        29.965607553000;     BAS[ATNO][ 25].d[ 27] =        -1.253481159703;
  BAS[ATNO][ 25].a[ 28] =        29.965607553000;     BAS[ATNO][ 25].d[ 28] =        -1.573489200074;
  BAS[ATNO][ 25].a[ 29] =        29.965607553000;     BAS[ATNO][ 25].d[ 29] =         1.046810923739;
  BAS[ATNO][ 25].a[ 30] =        13.588862420000;     BAS[ATNO][ 25].d[ 30] =         1.731570899779;
  BAS[ATNO][ 25].a[ 31] =         5.681416622700;     BAS[ATNO][ 25].d[ 31] =        -0.582206581427;
  BAS[ATNO][ 25].a[ 32] =        13.588862420000;     BAS[ATNO][ 25].d[ 32] =         2.173633076774;
  BAS[ATNO][ 25].a[ 33] =         5.681416622700;     BAS[ATNO][ 25].d[ 33] =        -0.730841274283;
  BAS[ATNO][ 25].a[ 34] =        13.588862420000;     BAS[ATNO][ 25].d[ 34] =        -1.446074653105;
  BAS[ATNO][ 25].a[ 35] =         5.681416622700;     BAS[ATNO][ 25].d[ 35] =         0.486214096333;
  BAS[ATNO][ 25].a[ 36] =         2.122906683900;     BAS[ATNO][ 25].d[ 36] =         1.023722712028;
  BAS[ATNO][ 25].a[ 37] =         2.122906683900;     BAS[ATNO][ 25].d[ 37] =         1.285074465219;
  BAS[ATNO][ 25].a[ 38] =         2.122906683900;     BAS[ATNO][ 25].d[ 38] =        -0.854934363975;
  BAS[ATNO][ 25].a[ 39] =         1.042907765700;     BAS[ATNO][ 25].d[ 39] =        -0.761378084818;
  BAS[ATNO][ 25].a[ 40] =         1.042907765700;     BAS[ATNO][ 25].d[ 40] =        -0.955754447610;
  BAS[ATNO][ 25].a[ 41] =         1.042907765700;     BAS[ATNO][ 25].d[ 41] =         0.635844336631;
  BAS[ATNO][ 25].a[ 42] =         0.503628461400;     BAS[ATNO][ 25].d[ 42] =         0.413471401666;
  BAS[ATNO][ 25].a[ 43] =         0.503628461400;     BAS[ATNO][ 25].d[ 43] =         0.519028770284;
  BAS[ATNO][ 25].a[ 44] =         0.503628461400;     BAS[ATNO][ 25].d[ 44] =        -0.345299469957;
  BAS[ATNO][ 25].a[ 45] =         0.233642260400;     BAS[ATNO][ 25].d[ 45] =        -0.157250040988;
  BAS[ATNO][ 25].a[ 46] =         0.233642260400;     BAS[ATNO][ 25].d[ 46] =        -0.197395261361;
  BAS[ATNO][ 25].a[ 47] =         0.233642260400;     BAS[ATNO][ 25].d[ 47] =         0.131323123165;
  BAS[ATNO][ 25].a[ 48] =         0.067000000000;     BAS[ATNO][ 25].d[ 48] =         0.048270009824;
  BAS[ATNO][ 25].a[ 49] =         0.067000000000;     BAS[ATNO][ 25].d[ 49] =         0.060593123826;
  BAS[ATNO][ 25].a[ 50] =         0.067000000000;     BAS[ATNO][ 25].d[ 50] =        -0.040311394550;
  BAS[ATNO][ 25].a[ 51] =         0.030000000000;     BAS[ATNO][ 25].d[ 51] =        -0.020178733016;
  BAS[ATNO][ 25].a[ 52] =         0.030000000000;     BAS[ATNO][ 25].d[ 52] =        -0.025330271793;
  BAS[ATNO][ 25].a[ 53] =         0.030000000000;     BAS[ATNO][ 25].d[ 53] =         0.016851723689;
  BAS[ATNO][ 25].a[ 54] =       253.765677020000;     BAS[ATNO][ 25].d[ 54] =         0.000000582982;

-------------------------------------------
RADIAL EXPECTATION VALUES <R**-3> TO <R**3>
-------------------------------------------
   0 :     0.000000     5.826711     2.164178     0.504013     0.275745     0.163654
   1 :    37.949465     6.540755     2.226988     0.523674     0.308336     0.201360
   2 :    37.949690     6.540782     2.226993     0.523672     0.308334     0.201373
   3 :    37.983313     6.544453     2.227573     0.523653     0.309190     0.208717
   4 :    26.196836     6.419063     2.216695     0.556695     0.368286     1.414264
   5 :    26.196821     6.419060     2.216694     0.556695     0.368286     1.414265
   6 :    26.205112     6.420516     2.216959     0.556621     0.368176     1.413514
   7 :    26.205109     6.420515     2.216958     0.556621     0.368176     1.413514
   8 :    26.208768     6.421163     2.217077     0.556588     0.368129     1.413212
   9 :     0.000000     1.491945     0.948500     1.248797     1.751756     2.715871
  10 :    10.057431     1.575081     0.903853     1.427333     2.345049     4.321718
  11 :     0.000000     0.124963     0.264972     4.596605    24.419587   147.489697
  12 :     0.000000     0.055050     0.148808     6.915886    60.621709   567.868334
  13 :     0.000000     0.005625     0.017503     0.874863     7.740827    72.871401
  14 :     0.000000     0.062515     0.087278     1.606650    11.208292    94.801839
  15 :     0.000000     0.147708     0.204580     3.553909    24.276663   202.867763
  16 :     0.000000     0.920823     0.683722     2.287708     8.539029    51.612852
  17 :     0.000000    14.457681     1.582075     1.054665     2.053167     8.876894
  18 :     0.000000  2969.754728    37.801439     0.044989     0.005301     0.007586
  19 :     0.000000    28.420956     3.545377     0.378513     0.297115     0.927867
  20 :     0.000000   164.951255     7.606065     0.192803     0.075069     0.174788
  21 :     0.000000  1998.346834    22.043695     0.119608     0.040673     0.097971
  22 :    10.057739     1.575211     0.903895     1.427296     2.344951     4.321300
  23 :    10.568253     1.633232     0.914049     1.516496     3.358113    12.917926
  24 :    13.203190     4.305745     1.815815     0.728558     0.708072     6.396789
  25 :    13.182866     4.299682     1.814030     0.730055     0.712204     6.467455
  26 :    13.183356     4.299765     1.814050     0.730045     0.712183     6.467477
  27 :    13.203205     4.305732     1.815810     0.728563     0.708086     6.396827
  28 :    13.213227     4.308607     1.816646     0.727862     0.706129     6.358013
  29 :    13.213801     4.308789     1.816701     0.727817     0.706014     6.357604
  30 :    13.215333     4.309142     1.816779     0.727871     0.706712     6.354317
  31 :     0.018416     0.053966     0.213606     5.376443    32.550198   218.405293
  32 :     0.251942     0.068876     0.192843     6.082137    40.961590   300.011687
  33 :     0.251941     0.068876     0.192843     6.082137    40.961590   300.011690
  34 :     0.623232     0.240819     0.348564     3.748931    16.529786   409.811150
  35 :     0.623227     0.240817     0.348563     3.748939    16.529848   409.813147
  36 :     0.596586     0.232673     0.343153     3.795045    16.887160   421.402264
  37 :     0.596586     0.232673     0.343153     3.795045    16.887163   421.402369
  38 :     0.583227     0.126245     0.227172     6.068695    44.794372   374.860186
  39 :     0.583226     0.126245     0.227171     6.068695    44.794372   374.860191
  40 :     0.474640     0.104579     0.204325     6.638788    51.818505   445.234335
  41 :     1.299931     0.414950     0.419065     3.753639    18.256039   510.426244
  42 :     1.299937     0.414952     0.419066     3.753631    18.255975   510.424182
  43 :     1.359034     0.431030     0.427845     3.692821    17.800769   495.856537
  44 :     1.359034     0.431030     0.427845     3.692821    17.800773   495.856637
  45 :     0.279074     0.169603     0.322443     3.492735    12.847663   344.269258
  46 :     0.279074     0.169603     0.322443     3.492735    12.847663   344.269258
  47 :     0.276393     0.168920     0.322444     3.490242    12.830098   343.618657
  48 :     0.276391     0.168919     0.322444     3.490243    12.830099   343.618694
  49 :     0.275290     0.168553     0.322393     3.490715    12.843382   343.057095
  50 :     0.275290     0.168553     0.322393     3.490715    12.843382   343.057086
  51 :     0.274632     0.168388     0.322350     3.491253    12.852016   342.842260
  52 :     4.088884     0.558935     0.438420     3.527626    16.958408   107.083992
  53 :     4.088884     0.558935     0.438420     3.527626    16.958407   107.083993
  54 :     4.006871     0.548333     0.433635     3.564655    17.273871   109.542044
  55 :     4.110817     1.044439     0.663044     2.459099     8.304889   178.718818
  56 :     4.110811     1.044438     0.663044     2.459099     8.304887   178.718759
  57 :     4.098369     1.040790     0.660946     2.471621     8.392978   181.478278
  58 :     4.098369     1.040790     0.660946     2.471621     8.392977   181.478277
  59 :     4.090564     1.039021     0.660088     2.475714     8.419609   182.227379
  60 :     1.639241     0.640035     0.560223     2.459374     7.194232   169.231535
  61 :     1.639241     0.640035     0.560223     2.459374     7.194232   169.231535
  62 :     1.634653     0.638736     0.559822     2.460864     7.204857   169.645382
  63 :     1.634682     0.638744     0.559824     2.460863     7.204853   169.645338
  64 :     1.631935     0.637948     0.559559     2.462036     7.213607   169.902810
  65 :     1.631935     0.637947     0.559559     2.462036     7.213607   169.902814
  66 :     1.630995     0.637669     0.559462     2.462488     7.217015   169.990899
  67 :     8.484757     1.399364     0.775017     2.080930     6.363705    29.149376
  68 :     8.484757     1.399364     0.775017     2.080930     6.363704    29.149376
  69 :     8.463879     1.394123     0.772821     2.087572     6.401334    29.364317
  70 :     3.585358     1.319025     0.858691     1.714742     3.841214    75.306760
  71 :     3.585358     1.319025     0.858691     1.714742     3.841214    75.306760
  72 :     3.581102     1.317507     0.858038     1.716532     3.849940    75.565071
  73 :     3.581103     1.317507     0.858038     1.716532     3.849940    75.565067
  74 :     3.578596     1.316606     0.857651     1.717594     3.855155    75.715500
  75 :     3.578596     1.316605     0.857651     1.717594     3.855155    75.715501
  76 :     3.577752     1.316303     0.857522     1.717946     3.856892    75.764970
  77 :    12.251738     2.798093     1.187867     1.412656     2.967809    45.254727
  78 :    12.251732     2.798092     1.187867     1.412656     2.967808    45.254721
  79 :    12.240077     2.795041     1.186818     1.414643     2.976852    45.458410
  80 :    12.240076     2.795041     1.186818     1.414643     2.976852    45.458409
  81 :    12.235610     2.793938     1.186453     1.415302     2.979804    45.521239
  82 :   115.842099     8.865500     1.806673     1.149976     2.312197     8.296060
  83 :   115.842098     8.865500     1.806673     1.149976     2.312197     8.296060
  84 :   115.739176     8.857612     1.805355     1.151270     2.317497     8.320831
  85 :    11.099103     3.264936     1.412764     1.119431     1.822262    28.804423
  86 :    11.099103     3.264936     1.412764     1.119431     1.822262    28.804423
  87 :    11.091532     3.262937     1.412208     1.120012     1.824315    28.853972
  88 :    11.091534     3.262937     1.412208     1.120012     1.824315    28.853970
  89 :    11.087315     3.261774     1.411883     1.120349     1.825508    28.882697
  90 :    11.087314     3.261773     1.411882     1.120349     1.825508    28.882697
  91 :    11.085921     3.261387     1.411775     1.120461     1.825900    28.892131
  92 :    62.859199    10.172765     2.423056     0.774054     1.043208    11.892514
  93 :    62.859204    10.172766     2.423057     0.774054     1.043208    11.892513
  94 :    62.842566    10.170077     2.422571     0.774323     1.044075    11.908547
  95 :    62.842567    10.170077     2.422571     0.774323     1.044075    11.908547
  96 :    62.836845    10.169193     2.422408     0.774411     1.044351    11.913403
  97 :   107.404750    14.201913     3.163253     0.549306     0.701245     2.264028
  98 :   107.404750    14.201913     3.163253     0.549306     0.701245     2.264028
  99 :   107.407620    14.201284     3.163084     0.549401     0.701570     2.265493
 100 :   600.676821    49.551987     5.856995     0.277710     0.160960     0.309787
 101 :   600.676821    49.551987     5.856995     0.277710     0.160960     0.309787
 102 :   600.678463    49.551323     5.856897     0.277724     0.160990     0.309899
Making the total density                ... o.k.
o.k.
Initializing the integrals              ... done
Making exponents                        ... done
Making rho(0)                           ... done (        13.385676647)
Integral calculation                    ... Two index integrals                     ... done
Solving the equation system             ... done
atomic density will be written to file 70_Yb_atom70.adf

-------
TIMINGS
-------

Total SCF time: 0 days 0 hours 0 min 10 sec 

Total time                  ....      10.579 sec
Sum of individual times     ....       9.757 sec  ( 92.2%)

Fock matrix formation       ....       9.542 sec  ( 90.2%)
Diagonalization             ....       0.101 sec  (  1.0%)
Density matrix formation    ....       0.005 sec  (  0.0%)
Population analysis         ....       0.000 sec  (  0.0%)
Initial guess               ....       0.001 sec  (  0.0%)
Orbital Transformation      ....       0.000 sec  (  0.0%)
Orbital Orthonormalization  ....       0.000 sec  (  0.0%)
DIIS solution               ....       0.108 sec  (  1.0%)

-------------------------   --------------------
FINAL SINGLE POINT ENERGY     -1155.524298097823
-------------------------   --------------------


                            ***************************************
                            *     ORCA property calculations      *
                            ***************************************

                                    ---------------------
                                    Active property flags
                                    ---------------------
   (+) Dipole Moment


------------------------------------------------------------------------------
                       ORCA ELECTRIC PROPERTIES CALCULATION
------------------------------------------------------------------------------

Dipole Moment Calculation                       ... on
Quadrupole Moment Calculation                   ... off
Polarizability Calculation                      ... off
GBWName                                         ... 70_Yb_atom70.gbw
Electron density file                           ... 70_Yb_atom70.scfp
The origin for moment calculation is the CENTER OF MASS  = ( 0.000000,  0.000000  0.000000)

-------------
DIPOLE MOMENT
-------------
                                X             Y             Z
Electronic contribution:      0.00000       0.00000      -0.00000
Nuclear contribution   :      0.00000       0.00000       0.00000
                        -----------------------------------------
Total Dipole Moment    :      0.00000       0.00000      -0.00000
                        -----------------------------------------
Magnitude (a.u.)       :      0.00000
Magnitude (Debye)      :      0.00000



--------------------
Rotational spectrum 
--------------------
 
Rotational constants in cm-1:     0.000000     0.000000     0.000000 
Rotational constants in MHz :     0.000000     0.000000     0.000000 

 Dipole components along the rotational axes: 
x,y,z [a.u.] :     0.000000     0.000000    -0.000000 
x,y,z [Debye]:     0.000000     0.000000    -0.000000 

 

Timings for individual modules:

Sum of individual times         ...       14.089 sec (=   0.235 min)
GTO integral calculation        ...        3.473 sec (=   0.058 min)  24.7 %
SCF iterations                  ...       10.616 sec (=   0.177 min)  75.3 %
                             ****ORCA TERMINATED NORMALLY****
TOTAL RUN TIME: 0 days 0 hours 0 minutes 14 seconds 536 msec
