
                                 *****************
                                 * O   R   C   A *
                                 *****************

           --- An Ab Initio, DFT and Semiempirical electronic structure package ---

                  #######################################################
                  #                        -***-                        #
                  #          Department of theory and spectroscopy      #
                  #               Directorship: Frank Neese             #
                  #        Max Planck Institute fuer Kohlenforschung    #
                  #                Kaiser Wilhelm Platz 1               #
                  #                 D-45470 Muelheim/Ruhr               #
                  #                      Germany                        #
                  #                                                     #
                  #                  All rights reserved                #
                  #                        -***-                        #
                  #######################################################


                         Program Version 4.2.0 -  RELEASE  -


 With contributions from (in alphabetic order):
   Daniel Aravena         : Magnetic Suceptibility
   Michael Atanasov       : Ab Initio Ligand Field Theory (pilot matlab implementation)
   Alexander A. Auer      : GIAO ZORA, VPT2
   Ute Becker             : Parallelization
   Giovanni Bistoni       : ED, misc. LED, open-shell LED, HFLED
   Martin Brehm           : Molecular dynamics
   Dmytro Bykov           : SCF Hessian
   Vijay G. Chilkuri      : MRCI spin determinant printing, contributions to CSF-ICE
   Dipayan Datta          : RHF DLPNO-CCSD density
   Achintya Kumar Dutta   : EOM-CC, STEOM-CC
   Dmitry Ganyushin       : Spin-Orbit,Spin-Spin,Magnetic field MRCI
   Miquel Garcia          : C-PCM Hessian, Gaussian charge scheme
   Yang Guo               : DLPNO-NEVPT2, CIM, IAO-localization
   Andreas Hansen         : Spin unrestricted coupled pair/coupled cluster methods
   Benjamin Helmich-Paris : CASSCF linear response (MC-RPA)
   Lee Huntington         : MR-EOM, pCC
   Robert Izsak           : Overlap fitted RIJCOSX, COSX-SCS-MP3, EOM
   Christian Kollmar      : KDIIS, OOCD, Brueckner-CCSD(T), CCSD density
   Simone Kossmann        : Meta GGA functionals, TD-DFT gradient, OOMP2, MP2 Hessian
   Martin Krupicka        : AUTO-CI
   Lucas Lang             : DCDCAS
   Dagmar Lenk            : GEPOL surface, SMD
   Dimitrios Liakos       : Extrapolation schemes; Compound Job, initial MDCI parallelization
   Dimitrios Manganas     : Further ROCIS development; embedding schemes
   Dimitrios Pantazis     : SARC Basis sets
   Taras Petrenko         : DFT Hessian,TD-DFT gradient, ASA, ECA, R-Raman, ABS, FL, XAS/XES, NRVS
   Peter Pinski           : DLPNO-MP2, DLPNO-MP2 Gradient
   Christoph Reimann      : Effective Core Potentials
   Marius Retegan         : Local ZFS, SOC
   Christoph Riplinger    : Optimizer, TS searches, QM/MM, DLPNO-CCSD(T), (RO)-DLPNO pert. Triples
   Tobias Risthaus        : Range-separated hybrids, TD-DFT gradient, RPA, STAB
   Michael Roemelt        : Original ROCIS implementation
   Masaaki Saitow         : Open-shell DLPNO-CCSD energy and density
   Barbara Sandhoefer     : DKH picture change effects
   Avijit Sen             : IP-ROCIS
   Kantharuban Sivalingam : CASSCF convergence, NEVPT2, FIC-MRCI
   Bernardo de Souza      : ESD, SOC TD-DFT
   Georgi Stoychev        : AutoAux, RI-MP2 NMR
   Willem Van den Heuvel  : Paramagnetic NMR
   Boris Wezisla          : Elementary symmetry handling
   Frank Wennmohs         : Technical directorship


 We gratefully acknowledge several colleagues who have allowed us to
 interface, adapt or use parts of their codes:
   Stefan Grimme, W. Hujo, H. Kruse,             : VdW corrections, initial TS optimization,
                  C. Bannwarth                     DFT functionals, gCP, sTDA/sTD-DF
   Ed Valeev, F. Pavosevic, A. Kumar             : LibInt (2-el integral package), F12 methods
   Garnet Chan, S. Sharma, J. Yang, R. Olivares  : DMRG
   Ulf Ekstrom                                   : XCFun DFT Library
   Mihaly Kallay                                 : mrcc  (arbitrary order and MRCC methods)
   Andreas Klamt, Michael Diedenhofen            : otool_cosmo (COSMO solvation model)
   Jiri Pittner, Ondrej Demel                    : Mk-CCSD
   Frank Weinhold                                : gennbo (NPA and NBO analysis)
   Christopher J. Cramer and Donald G. Truhlar   : smd solvation model
   Lars Goerigk                                  : TD-DFT with DH, B97 family of functionals
   V. Asgeirsson, H. Jonsson                     : NEB implementation
   FAccTs GmbH                                   : IRC, NEB, NEB-TS, Multilevel, MM, QM/MM, CI optimization
   S Lehtola, MJT Oliveira, MAL Marques          : LibXC Library


 Your calculation uses the libint2 library for the computation of 2-el integrals
 For citations please refer to: http://libint.valeyev.net

 Your ORCA version has been built with support for libXC version: 4.2.3
 For citations please refer to: https://tddft.org/programs/libxc/

 This ORCA versions uses:
   CBLAS   interface :  Fast vector & matrix operations
   LAPACKE interface :  Fast linear algebra routines
   SCALAPACK package :  Parallel linear algebra routines


Setting NCore(Ta) from 46 to 60
----- Orbital basis set information -----
Your calculation utilizes the basis: def2-QZVP
   F. Weigend and R. Ahlrichs, Phys. Chem. Chem. Phys. 7, 3297 (2005).

cite the ECPs for Ta [Def2-ECP] as follows:
Ce-Yb(ecp-28): M. Dolg, H. Stoll, H.Preuss, J. Chem. Phys., 1989, 90, 1730-1734.
Y-Cd(ecp-28), Hf-Hg(ecp-46): D. Andrae,U. Haeussermann, M. Dolg, H. Stoll, H. Preuss, Theor. Chim. Acta, 1990, 77, 123-141.
In-Sb(ecp-28), Tl-Bi(ecp-46): B. Metz, H. Stoll, M. Dolg, J. Chem. Phys., 2000, 113, 2563-2569.
Te-Xe(ecp-28), Po-Rn(ecp-46): K. A. Peterson, D. Figgen, E. Goll, H. Stoll, M. Dolg, J. Chem. Phys., 2003, 119, 11113-11123.
Rb(ecp-28), Cs(ecp-46): T. Leininger, A. Nicklass, W. Kuechle, H. Stoll, M. Dolg, A. Bergner, Chem. Phys. Lett., 1996, 255, 274-280.
Sr(ecp-28), Ba(ecp-46): M. Kaupp, P. V. Schleyer, H. Stoll and H. Preuss, J. Chem. Phys., 1991, 94, 1360-1366.
La(ecp-46): M. Dolg, H. Stoll, A. Savin, H. Preuss, Theor. Chim. Acta, 1989, 75, 173-194.
Lu(ecp-28): X. Cao, M. Dolg, J. Chem. Phys., 2001, 115, 7348-7355.

ECP parameters for Ta [Def2-ECP] have been obtained from:
TURBOMOLE (7.0.2)

================================================================================
                                        WARNINGS
                       Please study these warnings very carefully!
================================================================================


WARNING: your system is open-shell and RHF/RKS was chosen
  ===> : WILL SWITCH to UHF/UKS


WARNING: MDCI localization with Augmented Hessian Foster-Boys
  ===> : Switching off randomization!

WARNING: Post HF methods need fully converged wavefunctions
  ===> : Setting SCFConvForced true
         You can overwrite this default with %scf ConvForced false 


INFO   : the flag for use of LIBINT has been found!

================================================================================
                                       INPUT FILE
================================================================================
NAME = 73_Ta.in
|  1> #
|  2> # 73_Ta CCSD(T)/Def2-QZVP
|  3> #
|  4> ! CCSD(T) Def2-QZVP tightscf slowconv
|  5> 
|  6> *xyz 0 4
|  7>  Ta 0.0 0.0 0.0
|  8> *
|  9> 
| 10> %maxcore 5000 
| 11> 
| 12> %pal
| 13> nprocs 24
| 14> end
| 15> 
| 16> %method
| 17> NewNCore Ta 60 end
| 18> end
| 19> 
| 20> 
| 21>                          ****END OF INPUT****
================================================================================

                       ****************************
                       * Single Point Calculation *
                       ****************************

---------------------------------
CARTESIAN COORDINATES (ANGSTROEM)
---------------------------------
  Ta     0.000000    0.000000    0.000000

----------------------------
CARTESIAN COORDINATES (A.U.)
----------------------------
  NO LB      ZA    FRAG     MASS         X           Y           Z
   0 Ta   13.0000*   0   180.948    0.000000    0.000000    0.000000
* core charge reduced due to ECP

--------------------------------
INTERNAL COORDINATES (ANGSTROEM)
--------------------------------
 Ta     0   0   0     0.000000000000     0.00000000     0.00000000

---------------------------
INTERNAL COORDINATES (A.U.)
---------------------------
 Ta     0   0   0     0.000000000000     0.00000000     0.00000000

---------------------
BASIS SET INFORMATION
---------------------
There are 1 groups of distinct atoms

 Group   1 Type Ta  : 10s8p6d3f1g contracted to 7s5p4d3f1g pattern {4111111/41111/3111/111/1}

Atom   0Ta   basis set group =>   1
-------------------------
ECP PARAMETER INFORMATION
-------------------------

 Group 1, Type Ta ECP Def2-ECP (replacing 60 core electrons, lmax=3)

Atom   0Ta   ECP group =>   1



           ************************************************************
           *        Program running with 24 parallel MPI-processes    *
           *              working on a common directory               *
           ************************************************************
------------------------------------------------------------------------------
                           ORCA GTO INTEGRAL CALCULATION
------------------------------------------------------------------------------

                         BASIS SET STATISTICS AND STARTUP INFO

 # of primitive gaussian shells          ...   28
 # of primitive gaussian functions       ...   94
 # of contracted shells                  ...   20
 # of contracted basis functions         ...   72
 Highest angular momentum                ...    4
 Maximum contraction depth               ...    4
 Integral package used                   ... LIBINT
 Integral threshhold            Thresh   ...  2.500e-11
 Primitive cut-off              TCut     ...  2.500e-12


------------------------------ INTEGRAL EVALUATION ----------------------------


 * One electron integrals 

   ECP integrals                         ... done
 Pre-screening matrix                    ... done
 Shell pair data                         ... done (   0.000 sec)



           ************************************************************
           *        Program running with 24 parallel MPI-processes    *
           *              working on a common directory               *
           ************************************************************
-------------------------------------------------------------------------------
                                 ORCA SCF
-------------------------------------------------------------------------------

------------
SCF SETTINGS
------------
Hamiltonian:
 Ab initio Hamiltonian  Method          .... Hartree-Fock(GTOs)


General Settings:
 Integral files         IntName         .... 73_Ta
 Hartree-Fock type      HFTyp           .... UHF
 Total Charge           Charge          ....    0
 Multiplicity           Mult            ....    4
 Number of Electrons    NEL             ....   13
 Basis Dimension        Dim             ....   72
 Nuclear Repulsion      ENuc            ....      0.0000000000 Eh

Convergence Acceleration:
 DIIS                   CNVDIIS         .... on
   Start iteration      DIISMaxIt       ....     0
   Startup error        DIISStart       ....  0.200000
   # of expansion vecs  DIISMaxEq       ....     5
   Bias factor          DIISBfac        ....   1.050
   Max. coefficient     DIISMaxC        ....  10.000
 Newton-Raphson         CNVNR           .... off
 SOSCF                  CNVSOSCF        .... off
 Level Shifting         CNVShift        .... on
   Level shift para.    LevelShift      ....    0.2500
   Turn off err/grad.   ShiftErr        ....    0.0000
 Zerner damping         CNVZerner       .... off
 Static damping         CNVDamp         .... on
   Fraction old density DampFac         ....    0.8500
   Max. Damping (<1)    DampMax         ....    0.9800
   Min. Damping (>=0)   DampMin         ....    0.0000
   Turn off err/grad.   DampErr         ....    0.0300
 Fernandez-Rico         CNVRico         .... off

SCF Procedure:
 Maximum # iterations   MaxIter         ....   125
 SCF integral mode      SCFMode         .... Direct
   Integral package                     .... LIBINT
 Reset frequency        DirectResetFreq ....    20
 Integral Threshold     Thresh          ....  2.500e-11 Eh
 Primitive CutOff       TCut            ....  2.500e-12 Eh

Convergence Tolerance:
 Convergence Check Mode ConvCheckMode   .... Total+1el-Energy
 Convergence forced     ConvForced      .... 1
 Energy Change          TolE            ....  1.000e-08 Eh
 1-El. energy change                    ....  1.000e-05 Eh
 DIIS Error             TolErr          ....  5.000e-07


Diagonalization of the overlap matrix:
Smallest eigenvalue                        ... 5.647e-03
Time for diagonalization                   ...    0.002 sec
Threshold for overlap eigenvalues          ... 1.000e-08
Number of eigenvalues below threshold      ... 0
Time for construction of square roots      ...    0.012 sec
Total time needed                          ...    0.014 sec

-------------------
DFT GRID GENERATION
-------------------

General Integration Accuracy     IntAcc      ...  4.340
Radial Grid Type                 RadialGrid  ... Gauss-Chebyshev
Angular Grid (max. acc.)         AngularGrid ... Lebedev-110
Angular grid pruning method      GridPruning ... 3 (G Style)
Weight generation scheme         WeightScheme... Becke
Basis function cutoff            BFCut       ...    1.0000e-11
Integration weight cutoff        WCut        ...    1.0000e-14
Grids for H and He will be reduced by one unit

# of grid points (after initial pruning)     ...   3590 (   0.0 sec)
# of grid points (after weights+screening)   ...   3590 (   0.0 sec)
Grid point division into batches done        ...    0.0 sec
Reduced shell lists constructed in    0.0 sec

Total number of grid points                  ...     3590
Total number of batches                      ...       57
Average number of points per batch           ...       62
Average number of grid points per atom       ...     3590
Average number of shells per batch           ...     6.00 (30.00%)
Average number of basis functions per batch  ...    19.50 (27.08%)
Average number of large shells per batch     ...     4.50 (75.00%)
Average number of large basis fcns per batch ...    15.00 (76.92%)
Maximum spatial batch extension              ...  25.56, 38.92, 38.92 au
Average spatial batch extension              ...   1.27,  1.82,  2.05 au

Time for grid setup =    0.070 sec

------------------------------
INITIAL GUESS: MODEL POTENTIAL
------------------------------
Loading Hartree-Fock densities                     ... done
  calling /sw/apps/orca/orca_4_2_0_linux_x86-64_openmpi314/orca 73_Ta_atom73.inp > 73_Ta_atom73.out in order to generate an atomic fitting density for atom 0 (Ta with ECP) on-the-fly... 
    atom 0 (Ta), assumed electronic state with S=4: 1s2 2s2 2p6 3s2 3p6 4s2 3d10 4p6 5s2 4d10 5p6 6s2 4f14 5d3           ... done
Calculating cut-offs                               ... done
Setting up the integral package                    ... done
Initializing the effective Hamiltonian             ... done
Starting the Coulomb interaction                   ... done (   0.0 sec)
Reading the grid                                   ... done
Mapping shells                                     ... done
Starting the XC term evaluation                    ... done (   0.0 sec)
Transforming the Hamiltonian                       ... done (   0.0 sec)
Diagonalizing the Hamiltonian                      ... done (   0.0 sec)
Back transforming the eigenvectors                 ... done (   0.0 sec)
Now organizing SCF variables                       ... done
                      ------------------
                      INITIAL GUESS DONE (   1.6 sec)
                      ------------------
--------------
SCF ITERATIONS
--------------
ITER       Energy         Delta-E        Max-DP      RMS-DP      [F,P]     Damp
               ***  Starting incremental Fock matrix formation  ***
  0    -56.1609282016   0.000000000000 0.09592805  0.00176359  0.3885531 0.8500
  1    -56.1817769392  -0.020848737614 0.08557341  0.00158536  0.3311001 0.8500
                               ***Turning on DIIS***
  2    -56.1992363375  -0.017459398233 0.07265838  0.00134603  0.2810962 0.8500
  3    -56.4086147918  -0.209378454348 0.06082276  0.00112639  0.2386689 0.8500
  4    -56.5378996348  -0.129284843006 0.05127419  0.00095611  0.2029661 0.8500
  5    -56.5459269313  -0.008027296486 0.04374987  0.00082626  0.1728100 0.8500
  6    -56.5199902148   0.025936716533 0.03748135  0.00071876  0.1471710 0.8500
  7    -56.4745256641   0.045464550665 0.03225944  0.00062988  0.1253218 0.8500
  8    -56.4408199667   0.033705697418 0.02767626  0.00055148  0.1066563 0.8500
  9    -56.4162509064   0.024569060263 0.02366344  0.00048198  0.0907362 0.8500
 10    -56.3972507171   0.019000189392 0.02019242  0.00042087  0.0771798 0.8500
 11    -56.3817224890   0.015528228040 0.01721413  0.00036744  0.0656456 0.8500
 12    -56.3686130462   0.013109442770 0.01466906  0.00032084  0.0558348 0.8500
 13    -56.3574688158   0.011144230411 0.01256112  0.00028020  0.0474903 0.8500
 14    -56.3479897871   0.009479028719 0.01075581  0.00024472  0.0403928 0.8500
 15    -56.3399266128   0.008063174292 0.00920843  0.00021374  0.0343559 0.8500
 16    -56.3330643696   0.006862243182 0.05255094  0.00124456  0.0292214 0.0000
 17    -56.2932870496   0.039777320051 0.00477144  0.00007348  0.0006903 0.0000
 18    -56.2932750663   0.000011983290 0.00494221  0.00007530  0.0004104 0.0000
 19    -56.2934335154  -0.000158449097 0.00416368  0.00005850  0.0002508 0.0000
               *** Restarting incremental Fock matrix formation ***
                                   *** Resetting DIIS ***
 20    -56.2933725831   0.000060932311 0.00250270  0.00003246  0.0001378 0.0000
 21    -56.2935930866  -0.000220503469 0.00225398  0.00002992  0.0000908 0.0000
 22    -56.2936594877  -0.000066401191 0.00170311  0.00002302  0.0000526 0.0000
 23    -56.2935174725   0.000142015196 0.00094320  0.00001271  0.0000386 0.0000
 24    -56.2934845232   0.000032949312 0.00058864  0.00000799  0.0000353 0.0000
 25    -56.2934971235  -0.000012600316 0.00044009  0.00000615  0.0000317 0.0000
 26    -56.2934616094   0.000035514176 0.00023485  0.00000349  0.0000266 0.0000
 27    -56.2934242305   0.000037378875 0.00008134  0.00000153  0.0000225 0.0000
 28    -56.2933955706   0.000028659929 0.00005168  0.00000165  0.0000182 0.0000
 29    -56.2933619540   0.000033616531 0.00009384  0.00000154  0.0000133 0.0000
 30    -56.2933698936  -0.000007939580 0.00006368  0.00000142  0.0000093 0.0000
 31    -56.2933675300   0.000002363590 0.00005464  0.00000092  0.0000076 0.0000
 32    -56.2933683229  -0.000000792898 0.00003394  0.00000055  0.0000042 0.0000
 33    -56.2933717517  -0.000003428729 0.00001336  0.00000024  0.0000022 0.0000
 34    -56.2933732355  -0.000001483828 0.00000294  0.00000009  0.0000011 0.0000
                            ***DIIS convergence achieved***

               *****************************************************
               *                     SUCCESS                       *
               *           SCF CONVERGED AFTER  35 CYCLES          *
               *****************************************************


----------------
TOTAL SCF ENERGY
----------------

Total Energy       :          -56.29337404 Eh           -1531.82058 eV

Components:
Nuclear Repulsion  :            0.00000000 Eh               0.00000 eV
Electronic Energy  :          -56.29337404 Eh           -1531.82058 eV
One Electron Energy:          -94.56275729 Eh           -2573.18344 eV
Two Electron Energy:           38.26938325 Eh            1041.36286 eV

Virial components:
Potential Energy   :          -75.75246556 Eh           -2061.32938 eV
Kinetic Energy     :           19.45909152 Eh             529.50880 eV
Virial Ratio       :            3.89290864


---------------
SCF CONVERGENCE
---------------

  Last Energy change         ...   -8.0242e-07  Tolerance :   1.0000e-08
  Last MAX-Density change    ...    3.2988e-06  Tolerance :   1.0000e-07
  Last RMS-Density change    ...    6.9901e-08  Tolerance :   5.0000e-09
  Last DIIS Error            ...    7.9819e-07  Tolerance :   5.0000e-07

             **** THE GBW FILE WAS UPDATED (73_Ta.gbw) ****
             **** DENSITY FILE WAS UPDATED (73_Ta.scfp) ****
             **** ENERGY FILE WAS UPDATED (73_Ta.en.tmp) ****
----------------------
UHF SPIN CONTAMINATION
----------------------

Expectation value of <S**2>     :     3.778009
Ideal value S*(S+1) for S=1.5   :     3.750000
Deviation                       :     0.028009

             **** THE GBW FILE WAS UPDATED (73_Ta.gbw) ****
             **** DENSITY FILE WAS UPDATED (73_Ta.scfp) ****
----------------
ORBITAL ENERGIES
----------------
                 SPIN UP ORBITALS
  NO   OCC          E(Eh)            E(eV) 
   0   1.0000      -3.186159       -86.6998 
   1   1.0000      -1.791204       -48.7411 
   2   1.0000      -1.791203       -48.7411 
   3   1.0000      -1.791203       -48.7411 
   4   1.0000      -0.327844        -8.9211 
   5   1.0000      -0.327844        -8.9211 
   6   1.0000      -0.327844        -8.9211 
   7   1.0000      -0.282922        -7.6987 
   8   0.0000       0.035292         0.9603 
   9   0.0000       0.035292         0.9604 
  10   0.0000       0.035292         0.9604 
  11   0.0000       0.079967         2.1760 
  12   0.0000       0.079967         2.1760 
  13   0.0000       0.099869         2.7176 
  14   0.0000       0.248799         6.7702 
  15   0.0000       0.248800         6.7702 
  16   0.0000       0.248800         6.7702 
  17   0.0000       0.265944         7.2367 
  18   0.0000       0.265944         7.2367 
  19   0.0000       0.265944         7.2367 
  20   0.0000       0.307244         8.3605 
  21   0.0000       0.307244         8.3605 
  22   0.0000       0.489537        13.3210 
  23   0.0000       0.500099        13.6084 
  24   0.0000       0.500099        13.6084 
  25   0.0000       0.500100        13.6084 
  26   0.0000       0.508031        13.8242 
  27   0.0000       0.508031        13.8242 
  28   0.0000       0.508032        13.8242 
  29   0.0000       0.552653        15.0385 
  30   0.0000       1.059869        28.8405 
  31   0.0000       1.059869        28.8405 
  32   0.0000       1.059869        28.8405 
  33   0.0000       1.080275        29.3958 
  34   0.0000       1.080275        29.3958 
  35   0.0000       1.080276        29.3958 
  36   0.0000       1.097019        29.8514 
  37   0.0000       1.097019        29.8514 
  38   0.0000       1.301518        35.4161 
  39   0.0000       1.327379        36.1198 
  40   0.0000       1.327379        36.1198 
  41   0.0000       1.327380        36.1198 
  42   0.0000       1.348348        36.6904 
  43   0.0000       1.348348        36.6904 
  44   0.0000       1.348348        36.6904 
  45   0.0000       1.763026        47.9744 
  46   0.0000       1.763026        47.9744 
  47   0.0000       1.763026        47.9744 
  48   0.0000       1.768746        48.1300 
  49   0.0000       1.768746        48.1300 
  50   0.0000       1.770051        48.1655 
  51   0.0000       1.770051        48.1655 
  52   0.0000       1.770052        48.1656 
  53   0.0000       1.772495        48.2321 
  54   0.0000       2.687381        73.1273 
  55   0.0000       3.517127        95.7059 
  56   0.0000       3.532006        96.1108 
  57   0.0000       3.532006        96.1108 
  58   0.0000       3.532006        96.1108 
  59   0.0000       3.544197        96.4425 
  60   0.0000       3.544197        96.4425 
  61   0.0000       3.544197        96.4425 
  62   0.0000       3.953000       107.5666 
  63   0.0000       3.953000       107.5666 
  64   0.0000       3.953001       107.5666 
  65   0.0000       3.966883       107.9444 
  66   0.0000       3.966883       107.9444 
  67   0.0000      37.933997      1032.2365 
  68   0.0000      37.933998      1032.2366 
  69   0.0000      37.933998      1032.2366 
  70   0.0000      80.265033      2184.1226 
  71   0.0000     678.803317     18471.1773 

                 SPIN DOWN ORBITALS
  NO   OCC          E(Eh)            E(eV) 
   0   1.0000      -3.083057       -83.8942 
   1   1.0000      -1.632419       -44.4204 
   2   1.0000      -1.632419       -44.4204 
   3   1.0000      -1.632419       -44.4204 
   4   1.0000      -0.217455        -5.9173 
   5   0.0000       0.047222         1.2850 
   6   0.0000       0.047222         1.2850 
   7   0.0000       0.047222         1.2850 
   8   0.0000       0.114473         3.1150 
   9   0.0000       0.115237         3.1358 
  10   0.0000       0.115237         3.1358 
  11   0.0000       0.132246         3.5986 
  12   0.0000       0.132246         3.5986 
  13   0.0000       0.132246         3.5986 
  14   0.0000       0.280454         7.6315 
  15   0.0000       0.280454         7.6316 
  16   0.0000       0.280454         7.6316 
  17   0.0000       0.323799         8.8110 
  18   0.0000       0.323799         8.8110 
  19   0.0000       0.338433         9.2092 
  20   0.0000       0.338433         9.2092 
  21   0.0000       0.338433         9.2092 
  22   0.0000       0.527687        14.3591 
  23   0.0000       0.527687        14.3591 
  24   0.0000       0.527687        14.3591 
  25   0.0000       0.531707        14.4685 
  26   0.0000       0.531707        14.4685 
  27   0.0000       0.531707        14.4685 
  28   0.0000       0.536954        14.6113 
  29   0.0000       0.590784        16.0760 
  30   0.0000       1.115719        30.3603 
  31   0.0000       1.115719        30.3603 
  32   0.0000       1.126259        30.6471 
  33   0.0000       1.126259        30.6471 
  34   0.0000       1.126259        30.6471 
  35   0.0000       1.134303        30.8660 
  36   0.0000       1.134303        30.8660 
  37   0.0000       1.134303        30.8660 
  38   0.0000       1.406617        38.2760 
  39   0.0000       1.406617        38.2760 
  40   0.0000       1.406617        38.2760 
  41   0.0000       1.417854        38.5818 
  42   0.0000       1.417854        38.5818 
  43   0.0000       1.417854        38.5818 
  44   0.0000       1.432728        38.9865 
  45   0.0000       1.806830        49.1663 
  46   0.0000       1.812099        49.3097 
  47   0.0000       1.812099        49.3097 
  48   0.0000       1.812099        49.3097 
  49   0.0000       1.816137        49.4196 
  50   0.0000       1.816137        49.4196 
  51   0.0000       1.828256        49.7494 
  52   0.0000       1.828256        49.7494 
  53   0.0000       1.828256        49.7494 
  54   0.0000       2.728333        74.2417 
  55   0.0000       3.588832        97.6571 
  56   0.0000       3.588832        97.6571 
  57   0.0000       3.588832        97.6571 
  58   0.0000       3.602468        98.0281 
  59   0.0000       3.602468        98.0281 
  60   0.0000       3.602468        98.0281 
  61   0.0000       3.619829        98.5006 
  62   0.0000       3.985003       108.4374 
  63   0.0000       3.985003       108.4374 
  64   0.0000       4.008538       109.0779 
  65   0.0000       4.008538       109.0779 
  66   0.0000       4.008538       109.0779 
  67   0.0000      37.949478      1032.6578 
  68   0.0000      37.949478      1032.6578 
  69   0.0000      37.949478      1032.6578 
  70   0.0000      80.268705      2184.2225 
  71   0.0000     678.803431     18471.1804 

                    ********************************
                    * MULLIKEN POPULATION ANALYSIS *
                    ********************************

--------------------------------------------
MULLIKEN ATOMIC CHARGES AND SPIN POPULATIONS
--------------------------------------------
   0 Ta:   -0.000000    3.000000
Sum of atomic charges         :   -0.0000000
Sum of atomic spin populations:    3.0000000

-----------------------------------------------------
MULLIKEN REDUCED ORBITAL CHARGES AND SPIN POPULATIONS
-----------------------------------------------------
CHARGE
  0 Tas       :     3.999816  s :     3.999816
      pz      :     1.999367  p :     5.998100
      px      :     1.999367
      py      :     1.999367
      dz2     :     0.000017  d :     2.999916
      dxz     :     0.999954
      dyz     :     0.999967
      dx2y2   :     0.000011
      dxy     :     0.999967
      f0      :     0.000633  f :     0.001900
      f+1     :     0.000238
      f-1     :     0.000238
      f+2     :     0.000000
      f-2     :     0.000000
      f+3     :     0.000396
      f-3     :     0.000396
      g0      :     0.000107  g :     0.000268
      g+1     :     0.000004
      g-1     :     0.000004
      g+2     :     0.000000
      g-2     :     0.000028
      g+3     :     0.000025
      g-3     :     0.000025
      g+4     :     0.000077
      g-4     :     0.000000

SPIN
  0 Tas       :    -0.000077  s :    -0.000077
      pz      :    -0.000572  p :    -0.001716
      px      :    -0.000572
      py      :    -0.000572
      dz2     :     0.000017  d :     2.999916
      dxz     :     0.999954
      dyz     :     0.999967
      dx2y2   :     0.000011
      dxy     :     0.999967
      f0      :     0.000572  f :     0.001716
      f+1     :     0.000215
      f-1     :     0.000215
      f+2     :     0.000000
      f-2     :     0.000000
      f+3     :     0.000358
      f-3     :     0.000358
      g0      :     0.000045  g :     0.000161
      g+1     :     0.000004
      g-1     :     0.000004
      g+2     :     0.000000
      g-2     :     0.000028
      g+3     :     0.000025
      g-3     :     0.000025
      g+4     :     0.000032
      g-4     :     0.000000


                     *******************************
                     * LOEWDIN POPULATION ANALYSIS *
                     *******************************

-------------------------------------------
LOEWDIN ATOMIC CHARGES AND SPIN POPULATIONS
-------------------------------------------
   0 Ta:   -0.000000    3.000000

----------------------------------------------------
LOEWDIN REDUCED ORBITAL CHARGES AND SPIN POPULATIONS
----------------------------------------------------
CHARGE
  0 Tas       :     3.999816  s :     3.999816
      pz      :     1.999367  p :     5.998100
      px      :     1.999367
      py      :     1.999367
      dz2     :     0.000017  d :     2.999916
      dxz     :     0.999954
      dyz     :     0.999967
      dx2y2   :     0.000011
      dxy     :     0.999967
      f0      :     0.000633  f :     0.001900
      f+1     :     0.000238
      f-1     :     0.000238
      f+2     :     0.000000
      f-2     :     0.000000
      f+3     :     0.000396
      f-3     :     0.000396
      g0      :     0.000107  g :     0.000268
      g+1     :     0.000004
      g-1     :     0.000004
      g+2     :     0.000000
      g-2     :     0.000028
      g+3     :     0.000025
      g-3     :     0.000025
      g+4     :     0.000077
      g-4     :     0.000000

SPIN
  0 Tas       :    -0.000077  s :    -0.000077
      pz      :    -0.000572  p :    -0.001716
      px      :    -0.000572
      py      :    -0.000572
      dz2     :     0.000017  d :     2.999916
      dxz     :     0.999954
      dyz     :     0.999967
      dx2y2   :     0.000011
      dxy     :     0.999967
      f0      :     0.000572  f :     0.001716
      f+1     :     0.000215
      f-1     :     0.000215
      f+2     :     0.000000
      f-2     :     0.000000
      f+3     :     0.000358
      f-3     :     0.000358
      g0      :     0.000045  g :     0.000161
      g+1     :     0.000004
      g-1     :     0.000004
      g+2     :     0.000000
      g-2     :     0.000028
      g+3     :     0.000025
      g-3     :     0.000025
      g+4     :     0.000032
      g-4     :     0.000000


                      *****************************
                      * MAYER POPULATION ANALYSIS *
                      *****************************

  NA   - Mulliken gross atomic population
  ZA   - Total nuclear charge
  QA   - Mulliken gross atomic charge
  VA   - Mayer's total valence
  BVA  - Mayer's bonded valence
  FA   - Mayer's free valence

  ATOM       NA         ZA         QA         VA         BVA        FA
  0 Ta    13.0000    13.0000    -0.0000     3.0560     0.0000     3.0560

  Mayer bond orders larger than 0.100000


-------
TIMINGS
-------

Total SCF time: 0 days 0 hours 0 min 13 sec 

Total time                  ....      13.808 sec
Sum of individual times     ....       8.138 sec  ( 58.9%)

Fock matrix formation       ....       5.630 sec  ( 40.8%)
Diagonalization             ....       0.197 sec  (  1.4%)
Density matrix formation    ....       0.021 sec  (  0.2%)
Population analysis         ....       0.072 sec  (  0.5%)
Initial guess               ....       1.525 sec  ( 11.0%)
Orbital Transformation      ....       0.000 sec  (  0.0%)
Orbital Orthonormalization  ....       0.000 sec  (  0.0%)
DIIS solution               ....       0.623 sec  (  4.5%)


           ************************************************************
           *        Program running with 24 parallel MPI-processes    *
           *              working on a common directory               *
           ************************************************************


------------------------------------------------------------------------------- 
                              ORCA-MATRIX DRIVEN CI                            
------------------------------------------------------------------------------- 

--------------------------------
AUTOMATIC CHOICE OF INCORE LEVEL
--------------------------------

Memory available                           ...   2500.00 MB
Memory needed for S+T                      ...      3.38 MB
Memory needed for J+K                      ...      6.79 MB
Memory needed for DIIS                     ...     47.25 MB
Memory needed for 3-ext                    ...     16.00 MB
Memory needed for 4-ext                    ...     65.00 MB
Memory needed for triples                  ...     10.00 MB
 -> Final InCoreLevel    ... 5
 -> check shows that triples correction can be computed


Wavefunction type
-----------------
Correlation treatment                      ...      CCSD     
Single excitations                         ... ON
Orbital optimization                       ... OFF
Calculation of Z vector                    ... OFF
Calculation of Brueckner orbitals          ... OFF
Perturbative triple excitations            ... ON
Calculation of F12 correction              ... OFF
Frozen core treatment                      ... chemical core (0 el)
Reference Wavefunction                     ... UHF
  Alpha-MOs occ    :     0 ...    7 (  8 MO's/  8 electrons)
  Beta-MOs occ     :     0 ...    4 (  5 MO's/  5 electrons)
  Alpha-MOs virt   :     8 ...   71 ( 64 MO's              )
  Beta-MOs virt    :     5 ...   71 ( 67 MO's              )
Number of AO's                             ...     72
Number of electrons                        ...     13
Number of correlated electrons             ...     13

Algorithmic settings
--------------------
Integral transformation                    ... AO direct full transformation
K(C) Formation                             ... FULL-MO TRAFO
Maximum number of iterations               ...        50
Convergence tolerance (max. residuum)      ... 1.000e-05
Level shift for amplitude update           ... 2.000e-01
Maximum number of DIIS vectors             ...         7
DIIS turned on at iteration                ...         0
Damping before turning on DIIS             ...     0.500
Damping after turning on DIIS              ...     0.000
Pair specific amplitude update             ... OFF
Natural orbital iterations                 ... OFF
Perturbative natural orbital generation    ... OFF
Printlevel                                 ... 2

Memory handling:
----------------
Maximum memory for working arrays          ...   2500 MB
Data storage in matrix containers          ... UNCOMPRESSED
Data type for integral storage             ... DOUBLE
In-Core Storage of quantities:
   Amplitudes+Sigma Vector      ... YES
   J+K operators                ... YES
   DIIS vectors                 ... YES
   3-external integrals         ... YES
   4-external integrals         ... YES


Initializing the integral package          ... done
Warning: reference  - re-canonicalizations have been set to INT 1 VIRT 1

--------------------------
UNRESTRICTED FOCK OPERATOR
--------------------------

<ss|ss>:          406 b            0 skpd (  0.0%)    0.000 s ( 0.000 ms/b)
<ss|sp>:          980 b            0 skpd (  0.0%)    0.000 s ( 0.000 ms/b)
<ss|sd>:          784 b            0 skpd (  0.0%)    0.000 s ( 0.000 ms/b)
<ss|sf>:          588 b            0 skpd (  0.0%)    0.000 s ( 0.000 ms/b)
<ss|sg>:          196 b            0 skpd (  0.0%)    0.000 s ( 0.000 ms/b)
<ss|pp>:          420 b            0 skpd (  0.0%)    0.000 s ( 0.001 ms/b)
<ss|pd>:          560 b            0 skpd (  0.0%)    0.000 s ( 0.001 ms/b)
<ss|pf>:          420 b            0 skpd (  0.0%)    0.000 s ( 0.000 ms/b)
<ss|pg>:          140 b            0 skpd (  0.0%)    0.000 s ( 0.001 ms/b)
<ss|dd>:          280 b            0 skpd (  0.0%)    0.000 s ( 0.001 ms/b)
<ss|df>:          336 b            0 skpd (  0.0%)    0.000 s ( 0.001 ms/b)
<ss|dg>:          112 b            0 skpd (  0.0%)    0.000 s ( 0.002 ms/b)
<ss|ff>:          168 b            0 skpd (  0.0%)    0.000 s ( 0.001 ms/b)
<ss|fg>:           84 b            0 skpd (  0.0%)    0.000 s ( 0.005 ms/b)
<ss|gg>:           28 b            0 skpd (  0.0%)    0.000 s ( 0.017 ms/b)
<sp|sp>:          630 b            0 skpd (  0.0%)    0.000 s ( 0.000 ms/b)
<sp|sd>:          980 b            0 skpd (  0.0%)    0.000 s ( 0.000 ms/b)
<sp|sf>:          735 b            0 skpd (  0.0%)    0.000 s ( 0.000 ms/b)
<sp|sg>:          245 b            0 skpd (  0.0%)    0.000 s ( 0.001 ms/b)
<sp|pp>:          525 b            0 skpd (  0.0%)    0.001 s ( 0.001 ms/b)
<sp|pd>:          700 b            0 skpd (  0.0%)    0.001 s ( 0.001 ms/b)
<sp|pf>:          525 b            0 skpd (  0.0%)    0.000 s ( 0.001 ms/b)
<sp|pg>:          175 b            0 skpd (  0.0%)    0.001 s ( 0.003 ms/b)
<sp|dd>:          350 b            0 skpd (  0.0%)    0.001 s ( 0.003 ms/b)
<sp|df>:          420 b            0 skpd (  0.0%)    0.001 s ( 0.002 ms/b)
<sp|dg>:          140 b            0 skpd (  0.0%)    0.001 s ( 0.006 ms/b)
<sp|ff>:          210 b            0 skpd (  0.0%)    0.001 s ( 0.004 ms/b)
<sp|fg>:          105 b            0 skpd (  0.0%)    0.001 s ( 0.010 ms/b)
<sp|gg>:           35 b            0 skpd (  0.0%)    0.001 s ( 0.029 ms/b)
<sd|sd>:          406 b            0 skpd (  0.0%)    0.000 s ( 0.000 ms/b)
<sd|sf>:          588 b            0 skpd (  0.0%)    0.000 s ( 0.000 ms/b)
<sd|sg>:          196 b            0 skpd (  0.0%)    0.000 s ( 0.002 ms/b)
<sd|pp>:          420 b            0 skpd (  0.0%)    0.001 s ( 0.001 ms/b)
<sd|pd>:          560 b            0 skpd (  0.0%)    0.001 s ( 0.001 ms/b)
<sd|pf>:          420 b            0 skpd (  0.0%)    0.000 s ( 0.001 ms/b)
<sd|pg>:          140 b            0 skpd (  0.0%)    0.000 s ( 0.003 ms/b)
<sd|dd>:          280 b            0 skpd (  0.0%)    0.001 s ( 0.004 ms/b)
<sd|df>:          336 b            0 skpd (  0.0%)    0.001 s ( 0.003 ms/b)
<sd|dg>:          112 b            0 skpd (  0.0%)    0.001 s ( 0.008 ms/b)
<sd|ff>:          168 b            0 skpd (  0.0%)    0.001 s ( 0.005 ms/b)
<sd|fg>:           84 b            0 skpd (  0.0%)    0.001 s ( 0.015 ms/b)
<sd|gg>:           28 b            0 skpd (  0.0%)    0.001 s ( 0.043 ms/b)
<sf|sf>:          231 b            0 skpd (  0.0%)    0.000 s ( 0.001 ms/b)
<sf|sg>:          147 b            0 skpd (  0.0%)    0.000 s ( 0.001 ms/b)
<sf|pp>:          315 b            0 skpd (  0.0%)    0.000 s ( 0.001 ms/b)
<sf|pd>:          420 b            0 skpd (  0.0%)    0.001 s ( 0.001 ms/b)
<sf|pf>:          315 b            0 skpd (  0.0%)    0.000 s ( 0.001 ms/b)
<sf|pg>:          105 b            0 skpd (  0.0%)    0.001 s ( 0.005 ms/b)
<sf|dd>:          210 b            0 skpd (  0.0%)    0.001 s ( 0.004 ms/b)
<sf|df>:          252 b            0 skpd (  0.0%)    0.001 s ( 0.003 ms/b)
<sf|dg>:           84 b            0 skpd (  0.0%)    0.001 s ( 0.010 ms/b)
<sf|ff>:          126 b            0 skpd (  0.0%)    0.001 s ( 0.005 ms/b)
<sf|fg>:           63 b            0 skpd (  0.0%)    0.001 s ( 0.016 ms/b)
<sf|gg>:           21 b            0 skpd (  0.0%)    0.001 s ( 0.064 ms/b)
<sg|sg>:           28 b            0 skpd (  0.0%)    0.000 s ( 0.003 ms/b)
<sg|pp>:          105 b            0 skpd (  0.0%)    0.000 s ( 0.003 ms/b)
<sg|pd>:          140 b            0 skpd (  0.0%)    0.000 s ( 0.003 ms/b)
<sg|pf>:          105 b            0 skpd (  0.0%)    0.000 s ( 0.002 ms/b)
<sg|pg>:           35 b            0 skpd (  0.0%)    0.000 s ( 0.011 ms/b)
<sg|dd>:           70 b            0 skpd (  0.0%)    0.000 s ( 0.006 ms/b)
<sg|df>:           84 b            0 skpd (  0.0%)    0.000 s ( 0.004 ms/b)
<sg|dg>:           28 b            0 skpd (  0.0%)    0.001 s ( 0.020 ms/b)
<sg|ff>:           42 b            0 skpd (  0.0%)    0.000 s ( 0.007 ms/b)
<sg|fg>:           21 b            0 skpd (  0.0%)    0.000 s ( 0.023 ms/b)
<sg|gg>:            7 b            0 skpd (  0.0%)    0.001 s ( 0.092 ms/b)
<pp|pp>:          120 b            0 skpd (  0.0%)    0.000 s ( 0.002 ms/b)
<pp|pd>:          300 b            0 skpd (  0.0%)    0.000 s ( 0.001 ms/b)
<pp|pf>:          225 b            0 skpd (  0.0%)    0.000 s ( 0.001 ms/b)
<pp|pg>:           75 b            0 skpd (  0.0%)    0.000 s ( 0.005 ms/b)
<pp|dd>:          150 b            0 skpd (  0.0%)    0.000 s ( 0.003 ms/b)
<pp|df>:          180 b            0 skpd (  0.0%)    0.000 s ( 0.002 ms/b)
<pp|dg>:           60 b            0 skpd (  0.0%)    0.001 s ( 0.009 ms/b)
<pp|ff>:           90 b            0 skpd (  0.0%)    0.000 s ( 0.004 ms/b)
<pp|fg>:           45 b            0 skpd (  0.0%)    0.001 s ( 0.012 ms/b)
<pp|gg>:           15 b            0 skpd (  0.0%)    0.001 s ( 0.048 ms/b)
<pd|pd>:          210 b            0 skpd (  0.0%)    0.001 s ( 0.004 ms/b)
<pd|pf>:          300 b            0 skpd (  0.0%)    0.001 s ( 0.002 ms/b)
<pd|pg>:          100 b            0 skpd (  0.0%)    0.001 s ( 0.010 ms/b)
<pd|dd>:          200 b            0 skpd (  0.0%)    0.001 s ( 0.006 ms/b)
<pd|df>:          240 b            0 skpd (  0.0%)    0.001 s ( 0.004 ms/b)
<pd|dg>:           80 b            0 skpd (  0.0%)    0.002 s ( 0.019 ms/b)
<pd|ff>:          120 b            0 skpd (  0.0%)    0.001 s ( 0.008 ms/b)
<pd|fg>:           60 b            0 skpd (  0.0%)    0.001 s ( 0.024 ms/b)
<pd|gg>:           20 b            0 skpd (  0.0%)    0.002 s ( 0.098 ms/b)
<pf|pf>:          120 b            0 skpd (  0.0%)    0.001 s ( 0.005 ms/b)
<pf|pg>:           75 b            0 skpd (  0.0%)    0.001 s ( 0.014 ms/b)
<pf|dd>:          150 b            0 skpd (  0.0%)    0.001 s ( 0.008 ms/b)
<pf|df>:          180 b            0 skpd (  0.0%)    0.001 s ( 0.006 ms/b)
<pf|dg>:           60 b            0 skpd (  0.0%)    0.002 s ( 0.026 ms/b)
<pf|ff>:           90 b            0 skpd (  0.0%)    0.001 s ( 0.015 ms/b)
<pf|fg>:           45 b            0 skpd (  0.0%)    0.002 s ( 0.038 ms/b)
<pf|gg>:           15 b            0 skpd (  0.0%)    0.002 s ( 0.142 ms/b)
<pg|pg>:           15 b            0 skpd (  0.0%)    0.000 s ( 0.021 ms/b)
<pg|dd>:           50 b            0 skpd (  0.0%)    0.001 s ( 0.015 ms/b)
<pg|df>:           60 b            0 skpd (  0.0%)    0.001 s ( 0.010 ms/b)
<pg|dg>:           20 b            0 skpd (  0.0%)    0.001 s ( 0.050 ms/b)
<pg|ff>:           30 b            0 skpd (  0.0%)    0.001 s ( 0.018 ms/b)
<pg|fg>:           15 b            0 skpd (  0.0%)    0.001 s ( 0.066 ms/b)
<pg|gg>:            5 b            0 skpd (  0.0%)    0.001 s ( 0.231 ms/b)
<dd|dd>:           55 b            0 skpd (  0.0%)    0.001 s ( 0.020 ms/b)
<dd|df>:          120 b            0 skpd (  0.0%)    0.001 s ( 0.008 ms/b)
<dd|dg>:           40 b            0 skpd (  0.0%)    0.002 s ( 0.038 ms/b)
<dd|ff>:           60 b            0 skpd (  0.0%)    0.001 s ( 0.016 ms/b)
<dd|fg>:           30 b            0 skpd (  0.0%)    0.001 s ( 0.045 ms/b)
<dd|gg>:           10 b            0 skpd (  0.0%)    0.002 s ( 0.185 ms/b)
<df|df>:           78 b            0 skpd (  0.0%)    0.002 s ( 0.021 ms/b)
<df|dg>:           48 b            0 skpd (  0.0%)    0.002 s ( 0.051 ms/b)
<df|ff>:           72 b            0 skpd (  0.0%)    0.002 s ( 0.027 ms/b)
<df|fg>:           36 b            0 skpd (  0.0%)    0.003 s ( 0.072 ms/b)
<df|gg>:           12 b            0 skpd (  0.0%)    0.003 s ( 0.280 ms/b)
<dg|dg>:           10 b            0 skpd (  0.0%)    0.001 s ( 0.081 ms/b)
<dg|ff>:           24 b            0 skpd (  0.0%)    0.001 s ( 0.034 ms/b)
<dg|fg>:           12 b            0 skpd (  0.0%)    0.001 s ( 0.113 ms/b)
<dg|gg>:            4 b            0 skpd (  0.0%)    0.002 s ( 0.429 ms/b)
<ff|ff>:           21 b            0 skpd (  0.0%)    0.001 s ( 0.051 ms/b)
<ff|fg>:           18 b            0 skpd (  0.0%)    0.002 s ( 0.107 ms/b)
<ff|gg>:            6 b            0 skpd (  0.0%)    0.003 s ( 0.497 ms/b)
<fg|fg>:            6 b            0 skpd (  0.0%)    0.001 s ( 0.241 ms/b)
<fg|gg>:            3 b            0 skpd (  0.0%)    0.002 s ( 0.674 ms/b)
<gg|gg>:            1 b            0 skpd (  0.0%)    0.001 s ( 1.141 ms/b)
Recanonicalizing the internal orbitals
Recanonicalizing the virtual orbitals
Time needed for Fock operator              ...            0.142 sec
Reference energy                           ...    -56.293373854
Warning: for UHF the TrafoType has to be JK
Warning: for UHF the K(C)-option cannot be MO but must be AOX

-------------------------------
PARTIAL EXCHANGE TRANSFORMATION
-------------------------------

Transformation type                        ... two-operators
Generation of integrals (i,mue|j,nue)      ... ON
Generation of integrals (mue,kappa|nue,tau)... ON
Generation of integrals (i,mue|a,nue)      ... ON
Dimension of the basis                     ...   72
Number of internal alpha-MOs               ...    8 (   0-   7)
Number of internal beta-MOs                ...    5 (   0-   4)
Number of external alpha-MOs               ...   64 (   8-  71)
Number of external beta-MOs                ...   67 (   5-  71)
Pair cutoff                                ... 0.000e+00 Eh
Number of AO pairs in the trafo            ... 2628
Total Number of distinct AO pairs          ... 2628
Memory devoted for trafo                   ... 2500.0 MB 
Max. Number of MO pairs treated together   ... 63209      
Number Format for Storage                  ... Double (8 Byte)
Integral package used                      ... LIBINT

Starting integral evaluation:
    ... done with AO integral generation
Closing buffer AOK[aa] ( 0.00 GB; CompressionRatio= 0.00)
Closing buffer AOK[bb] ( 0.00 GB; CompressionRatio= 0.00)
Closing buffer AOK[ab] ( 0.00 GB; CompressionRatio= 0.00)
Closing buffer AOK[ba] ( 0.00 GB; CompressionRatio= 0.00)
Collecting buffer AOK 
Closing buffer IAAO1[aa] ( 0.00 GB; CompressionRatio= 0.00)
Closing buffer IAAO1[bb] ( 0.00 GB; CompressionRatio= 0.00)
Closing buffer IAAO1[ab] ( 0.00 GB; CompressionRatio= 0.00)
Closing buffer IAAO1[ba] ( 0.00 GB; CompressionRatio= 0.00)
Closing buffer IAAO2[aa] ( 0.00 GB; CompressionRatio= 0.00)
Closing buffer IAAO2[bb] ( 0.00 GB; CompressionRatio= 0.00)
Closing buffer IAAO2[ab] ( 0.00 GB; CompressionRatio= 0.00)
Closing buffer IAAO2[ba] ( 0.00 GB; CompressionRatio= 0.00)
Collecting buffer IAAO 
Closing buffer PRQS    ( 0.00 GB; CompressionRatio= 0.00)
Collecting buffer PRQS 
Number of alpha/alpha MO pairs in trafo    ...   36
Number of beta /beta  MO pairs in trafo    ...   15
Number of alpha/ beta MO pairs in trafo    ...   40
------------------------
SORTING OF (i,mue|j,nue)
------------------------

SORTING OF ALPHA/ALPHA PAIRS
IBATCH = 1 of  1
Closing buffer KAO[aa] ( 0.00 GB; CompressionRatio= 1.00)
Collecting buffer KAO 
SORTING OF BETA /BETA  PAIRS
IBATCH = 1 of  1
Closing buffer KAO[bb] ( 0.00 GB; CompressionRatio= 1.00)
Collecting buffer KAO 
SORTING OF ALPHA/BETA  PAIRS
IBATCH = 1 of  1
Closing buffer KAO[ab] ( 0.00 GB; CompressionRatio= 0.999710731848)
Collecting buffer KAO[ab] 
------------------------
SORTING OF (i,mue|a,nue)
------------------------

Number of alpha/alpha (i,a) pairs in trafo  ...  512
Number of beta /beta  (i,a) pairs in trafo  ...  335
Number of alpha/ beta (i,a) pairs in trafo  ...  536
Number of beta /alpha (i,a) pairs in trafo  ...  320
Setting up the alpha/alpha list             ... done
Setting up the beta /beta  list             ... done
Setting up the alpha/beta  list             ... done
Setting up the beta /alpha list             ... done
    ... Now sorting (i,mue|a,nue)integrals
    ... Integrals (i,b|a,c) will be made on the fly
SORTING OF ALPHA/ALPHA PAIRS
IBATCH = 1 of  1
Closing buffer IPAQ[aa]  0.00 GB; CompressionRatio= 1.00)
SORTING OF BETA /BETA  PAIRS
IBATCH = 1 of  1
Closing buffer IPAQ[bb]( 0.00 GB; CompressionRatio= 1.00)
SORTING OF ALPHA/BETA  PAIRS (NMatSort_ab=23)
IBATCH = 1 of  1
Closing buffer IPAQ[ab]( 0.00 GB; CompressionRatio= 1.00)
SORTING OF BETA/ALPHA  PAIRS
IBATCH = 1 of  1
Closing buffer IPAQ[ba]( 0.00 GB; CompressionRatio= 1.00)
N(AO-Batches) Done                         ...         0 
N(AO-Batches) Skipped                      ...         0 
N(IJ)-pairs Skipped                        ...         0 
TOTAL TIME for half transformation         ...     4.415 sec
AO-integral generation                     ...     0.000 sec
Half transformation                        ...     0.000 sec
K-integral sorting                         ...     1.014 sec
<ss|**>: 
------------------------------
PARTIAL COULOMB TRANSFORMATION
------------------------------

Transformation type                        ... two-operators
Dimension of the basis                     ...   72
Number of internal alpha-MOs               ...    8 (0-7)
Number of internal beta-MOs                ...    5 (0-4)
Pair cutoff                                ... 0.000e+00 Eh
Number of AO pairs included in the trafo   ... 2628
Total Number of distinct AO pairs          ... 2628
Memory devoted for trafo                   ... 2500.0 MB 
Max. Number of MO pairs treated together   ... 124687      
Max. Number of MOs treated per batch       ... 1731      
Number Format for Storage                  ... Double (8 Byte)
AO-integral source                         ... DIRECT
Integral package used                      ... LIBINT

Starting integral evaluation:
        5880 b        0 skpd     0.003 s (  0.000 ms/b)
<sp|**>:         7350 b        0 skpd     0.015 s (  0.002 ms/b)
<sd|**>:         5880 b        0 skpd     0.024 s (  0.004 ms/b)
<sf|**>:         4410 b        0 skpd     0.025 s (  0.006 ms/b)
<sg|**>: <pp|**>:         1470 b        0 skpd     0.019 s (  0.013 ms/b)
        3150 b        0 skpd     0.018 s (  0.006 ms/b)
<pd|**>:         4200 b        0 skpd     0.048 s (  0.012 ms/b)
<pf|**>:         3150 b        0 skpd     0.057 s (  0.018 ms/b)
<pg|**>:         1050 b        0 skpd     0.040 s (  0.038 ms/b)
<dd|**>:         2100 b        0 skpd     0.038 s (  0.018 ms/b)
<df|**>:         2520 b        0 skpd     0.073 s (  0.029 ms/b)
<dg|**>:          840 b        0 skpd     0.057 s (  0.068 ms/b)
<ff|**>:         1260 b        0 skpd     0.061 s (  0.049 ms/b)
<fg|**>:          630 b        0 skpd     0.061 s (  0.097 ms/b)
<gg|**>:          210 b        0 skpd     0.043 s (  0.203 ms/b)
Closing buffer AOJ[aa] ( 0.00 GB; CompressionRatio= 0.96)
Closing buffer AOJ[bb] ( 0.00 GB; CompressionRatio= 0.00)
Collecting buffer AOJ 
    ... done with AO integral generation
Number of Alpha-MO pairs included          ...   36
Number of Beta-MO pairs included           ...   15
    ... Now sorting integrals
SORTING ALPHA/ALPHA PAIRS
IBATCH = 1 of  1
Closing buffer JAO[aa] ( 0.00 GB; CompressionRatio= 1.00)
SORTING BETA/BETA PAIRS
IBATCH = 1 of  1
Closing buffer JAO[bb] ( 0.00 GB; CompressionRatio= 1.00)
Collecting buffer JAO 
TOTAL TIME for half transformation         ...     0.751 sec
AO-integral generation                     ...     0.354 sec
Half transformation                        ...     0.234 sec
J-integral sorting                         ...     0.103 sec

-------------------------- SECOND HALF TRANSFORMATION -------------------------
Formation of (ij|kl),(ij|ka), (ij|ab)      ... ok (     0.140 sec)
Formation of (ik|jl),(ik|ja), (ia|jb)      ... ok (     0.305 sec)


-----------------------
SPIN UNRESTRICTED GUESS
-----------------------

Entering MDCI_UHF_Guess, Tailored=0
Spin-components of the MP2 energy:
EMP2(aa)=     -0.067500744
EMP2(bb)=     -0.030172634
EMP2(ab)=     -0.220372225

Initial guess performed in     0.010 sec
E(0)                                       ...    -56.293373854
E(MP2)                                     ...     -0.318045604
Initial E(tot)                             ...    -56.611419457
<T|T>                                      ...      0.106978242
Number of pairs included                   ... 78

------------------------------------------------
                  UHF COUPLED CLUSTER ITERATIONS
------------------------------------------------

Number of amplitudes to be optimized       ...       251727

Iter       E(tot)           E(Corr)          Delta-E          Residual     Time      <S|S>**1/2
  0    -56.611419457     -0.318045604     -0.000000000      0.019794365    0.38      0.000001627
                           *** Turning on DIIS ***
  1    -56.610373227     -0.316999373      0.001046230      0.010292274    0.32      0.033394642
  2    -56.616641577     -0.323267723     -0.006268350      0.006791240    0.33      0.048275385
  3    -56.618863088     -0.325489234     -0.002221511      0.003281257    0.33      0.061605181
  4    -56.620136877     -0.326763023     -0.001273789      0.000935452    0.34      0.071788179
  5    -56.620281318     -0.326907464     -0.000144441      0.000497577    0.35      0.073576727
  6    -56.620306978     -0.326933125     -0.000025660      0.000190382    0.35      0.073643278
  7    -56.620304705     -0.326930851      0.000002273      0.000044614    0.35      0.073404046
  8    -56.620306685     -0.326932831     -0.000001979      0.000013793    0.35      0.073317613
  9    -56.620307688     -0.326933834     -0.000001004      0.000004981    0.34      0.073306481
               --- The Coupled-Cluster iterations have converged ---

----------------------
COUPLED CLUSTER ENERGY
----------------------

E(0)                                       ...    -56.293373854
E(CORR)                                    ...     -0.326933834
E(TOT)                                     ...    -56.620307688
Singles norm <S|S>**1/2                    ...      0.073306481 ( 0.033735040, 0.039571441)  
T1 diagnostic                              ...      0.020331560                              

------------------
LARGEST AMPLITUDES
------------------
   4b->  8b  -1b-> -1b       0.095695
   7a-> 10a   4b->  5b       0.065845
   7a->  8a   4b->  7b       0.065837
   7a->  9a   4b->  6b       0.065837
   7a-> 12a   4b->  9b       0.045874
   7a-> 11a   4b-> 10b       0.045874
   7a-> 10a   4b-> 14b       0.042182
   7a->  8a   4b-> 16b       0.042114
   7a->  9a   4b-> 15b       0.042112
   7a-> 16a   4b->  5b       0.037179
   7a-> 14a   4b->  7b       0.037175
   7a-> 15a   4b->  6b       0.037175
   4a->  8a   4b->  7b       0.037074
   4b-> 29b  -1b-> -1b       0.036571
   6a-> 12a   4b-> 13b       0.035957
   4a-> 12a   4b-> 11b       0.032074

----------------------
UHF TRIPLES CORRECTION (Algorithm 1)
----------------------

Multiplier for the singles contribution    ...      1.000000000

SPIN-CASE Alpha-Alpha-Alpha:
10% done
20% done
30% done
40% done
50% done
60% done
70% done
80% done
90% done


SPIN-CASE Beta-Beta-Beta:
10% done
20% done
30% done
40% done
50% done
60% done
70% done
80% done
90% done


SPIN-CASE Alpha-Alpha-Beta:
10% done
20% done
30% done
40% done
50% done
60% done
70% done
80% done
90% done


SPIN-CASE Beta-Beta-Alpha:
10% done
20% done
30% done
40% done
50% done
60% done
70% done
80% done
90% done


Triples Correction (T)                     ...     -0.013157965
    alpha-alpha-alpha ... -0.000863916 (  6.6%)
    alpha-alpha-beta  ... -0.008195855 ( 62.3%)
    alpha-beta -beta  ... -0.003953459 ( 30.0%)
    beta -beta -beta  ... -0.000144735 (  1.1%)
Scaling of triples based on CCSD energies (Peterson et al. Molecular Physics 113, 1551 (2015))
E(T*) = f*E(T) where f = E(F12-CCSD)/E(CCSD) 
f = CCSD (with F12)/ CCSD (without F12)    ...      1.000000000
Scaled triples correction (T)              ...     -0.013157965

Final correlation energy                   ...     -0.340091799
E(CCSD)                                    ...    -56.620307688
E(CCSD(T))                                 ...    -56.633465653



        !!!!!!!!!!!!!!!!!!!!!!!!!!!!!!!!!!!!!!!!!!!!!!!!!!!!!!!!!!!!!!!!!!!!!!!!!! 
        !  Warning: Densities are linearized densities                           !
        !!!!!!!!!!!!!!!!!!!!!!!!!!!!!!!!!!!!!!!!!!!!!!!!!!!!!!!!!!!!!!!!!!!!!!!!!! 

NORM  =      1.146176583 sqrt=     1.070596368
W(HF) =      0.872465914
------------------------------------------------------------------------------
                           ORCA POPULATION ANALYSIS
------------------------------------------------------------------------------
Input electron density              ... 73_Ta.mdcip
Input spin density                  ... 73_Ta.mdcir
BaseName (.gbw .S,...)              ... 73_Ta

                    ********************************
                    * MULLIKEN POPULATION ANALYSIS *
                    ********************************

------------------------------------------
MULLIKEN ATOMIC CHARGES AND SPIN DENSITIES
------------------------------------------
   0 Ta:   -0.000000    3.000000
Sum of atomic charges       :   -0.0000000
Sum of atomic spin densities:    3.0000000

---------------------------------------------------
MULLIKEN REDUCED ORBITAL CHARGES AND SPIN DENSITIES
---------------------------------------------------
CHARGE
  0 Tas       :     3.887745  s :     3.887745
      pz      :     2.014768  p :     6.044305
      px      :     2.014768
      py      :     2.014768
      dz2     :     0.023712  d :     3.020834
      dxz     :     0.991131
      dyz     :     0.991144
      dx2y2   :     0.023705
      dxy     :     0.991143
      f0      :     0.004704  f :     0.043478
      f+1     :     0.005865
      f-1     :     0.005865
      f+2     :     0.006562
      f-2     :     0.009682
      f+3     :     0.005400
      f-3     :     0.005400
      g0      :     0.000340  g :     0.003638
      g+1     :     0.000364
      g-1     :     0.000364
      g+2     :     0.000341
      g-2     :     0.000533
      g+3     :     0.000509
      g-3     :     0.000509
      g+4     :     0.000340
      g-4     :     0.000339

SPIN
  0 Tas       :     0.029632  s :     0.029632
      pz      :     0.005767  p :     0.017300
      px      :     0.005767
      py      :     0.005767
      dz2     :     0.003290  d :     2.920948
      dxz     :     0.971450
      dyz     :     0.971463
      dx2y2   :     0.003283
      dxy     :     0.971463
      f0      :     0.002904  f :     0.029636
      f+1     :     0.003920
      f-1     :     0.003920
      f+2     :     0.004530
      f-2     :     0.007332
      f+3     :     0.003514
      f-3     :     0.003514
      g0      :     0.000212  g :     0.002484
      g+1     :     0.000237
      g-1     :     0.000237
      g+2     :     0.000242
      g-2     :     0.000388
      g+3     :     0.000367
      g-3     :     0.000367
      g+4     :     0.000220
      g-4     :     0.000215


                     *******************************
                     * LOEWDIN POPULATION ANALYSIS *
                     *******************************

-----------------------------------------
LOEWDIN ATOMIC CHARGES AND SPIN DENSITIES
-----------------------------------------
   0 Ta:   -0.000000    3.000000

--------------------------------------------------
LOEWDIN REDUCED ORBITAL CHARGES AND SPIN DENSITIES
--------------------------------------------------
CHARGE
  0 Tas       :     3.887745  s :     3.887745
      pz      :     2.014768  p :     6.044305
      px      :     2.014768
      py      :     2.014768
      dz2     :     0.023712  d :     3.020834
      dxz     :     0.991131
      dyz     :     0.991144
      dx2y2   :     0.023705
      dxy     :     0.991143
      f0      :     0.004704  f :     0.043478
      f+1     :     0.005865
      f-1     :     0.005865
      f+2     :     0.006562
      f-2     :     0.009682
      f+3     :     0.005400
      f-3     :     0.005400
      g0      :     0.000340  g :     0.003638
      g+1     :     0.000364
      g-1     :     0.000364
      g+2     :     0.000341
      g-2     :     0.000533
      g+3     :     0.000509
      g-3     :     0.000509
      g+4     :     0.000340
      g-4     :     0.000339

SPIN
  0 Tas       :     0.029632  s :     0.029632
      pz      :     0.005767  p :     0.017300
      px      :     0.005767
      py      :     0.005767
      dz2     :     0.003290  d :     2.920948
      dxz     :     0.971450
      dyz     :     0.971463
      dx2y2   :     0.003283
      dxy     :     0.971463
      f0      :     0.002904  f :     0.029636
      f+1     :     0.003920
      f-1     :     0.003920
      f+2     :     0.004530
      f-2     :     0.007332
      f+3     :     0.003514
      f-3     :     0.003514
      g0      :     0.000212  g :     0.002484
      g+1     :     0.000237
      g-1     :     0.000237
      g+2     :     0.000242
      g-2     :     0.000388
      g+3     :     0.000367
      g-3     :     0.000367
      g+4     :     0.000220
      g-4     :     0.000215


                      *****************************
                      * MAYER POPULATION ANALYSIS *
                      *****************************

  NA   - Mulliken gross atomic population
  ZA   - Total nuclear charge
  QA   - Mulliken gross atomic charge
  VA   - Mayer's total valence
  BVA  - Mayer's bonded valence
  FA   - Mayer's free valence

  ATOM       NA         ZA         QA         VA         BVA        FA
  0 Ta    13.0000    13.0000    -0.0000     3.8541     0.0000     3.8541





------------------------------------------------------------------------------- 
                                     TIMINGS                                   
------------------------------------------------------------------------------- 


Total execution time                   ...       10.334 sec

Fock Matrix Formation                  ...        0.142 sec (  1.4%)
Initial Guess                          ...        0.010 sec (  0.1%)
DIIS Solver                            ...        0.233 sec (  2.3%)
State Vector Update                    ...        0.009 sec (  0.1%)
Sigma-vector construction              ...        3.212 sec ( 31.1%)
  <D|H|D>(0-ext Fock)                  ...        0.003 sec (  0.1% of sigma)
  <D|H|D>(0-ext)                       ...        0.009 sec (  0.3% of sigma)
  <D|H|D>(2-ext Fock)                  ...        0.001 sec (  0.0% of sigma)
  <D|H|D>(2-ext)                       ...        0.039 sec (  1.2% of sigma)
  <D|H|D>(4-ext)                       ...        1.713 sec ( 53.3% of sigma)
  <S|H|0>                              ...        0.091 sec (  2.8% of sigma)
  <S|H|D>(1-ext)                       ...        0.001 sec (  0.0% of sigma)
  <D|H|S>(1-ext)                       ...        0.019 sec (  0.6% of sigma)
  Fock-dressing                        ...        0.626 sec ( 19.5% of sigma)
  (ik|jl)-dressing                     ...        0.011 sec (  0.3% of sigma)
  (ij|ab),(ia|jb)-dressing             ...        0.526 sec ( 16.4% of sigma)
  Pair energies                        ...        0.001 sec (  0.0% of sigma)
Total Time for computing (T)           ...        0.384 sec (  3.7% of ALL)
  I/O of integral and amplitudes       ...        0.091 sec ( 23.6% of (T))
  External N**7 contributions          ...        0.092 sec ( 24.0% of (T))
  Internal N**7 contributions          ...        0.039 sec ( 10.1% of (T))
  N**6 triples energy contributions    ...        0.148 sec ( 38.5% of (T))


-------------------------   --------------------
FINAL SINGLE POINT ENERGY       -56.633465653229
-------------------------   --------------------


                            ***************************************
                            *     ORCA property calculations      *
                            ***************************************

                                    ---------------------
                                    Active property flags
                                    ---------------------
   (+) Dipole Moment


------------------------------------------------------------------------------
                       ORCA ELECTRIC PROPERTIES CALCULATION
------------------------------------------------------------------------------

Dipole Moment Calculation                       ... on
Quadrupole Moment Calculation                   ... off
Polarizability Calculation                      ... off
GBWName                                         ... 73_Ta.gbw
Electron density file                           ... 73_Ta.scfp
The origin for moment calculation is the CENTER OF MASS  = ( 0.000000,  0.000000  0.000000)

-------------
DIPOLE MOMENT
-------------
                                X             Y             Z
Electronic contribution:      0.00000       0.00000      -0.00000
Nuclear contribution   :      0.00000       0.00000       0.00000
                        -----------------------------------------
Total Dipole Moment    :      0.00000       0.00000      -0.00000
                        -----------------------------------------
Magnitude (a.u.)       :      0.00000
Magnitude (Debye)      :      0.00000



--------------------
Rotational spectrum 
--------------------
 
Rotational constants in cm-1:     0.000000     0.000000     0.000000 
Rotational constants in MHz :     0.000000     0.000000     0.000000 

 Dipole components along the rotational axes: 
x,y,z [a.u.] :     0.000000     0.000000    -0.000000 
x,y,z [Debye]:     0.000000     0.000000    -0.000000 

 

                           *** MDCI DENSITY ***

------------------------------------------------------------------------------
                       ORCA ELECTRIC PROPERTIES CALCULATION
------------------------------------------------------------------------------

Dipole Moment Calculation                       ... on
Quadrupole Moment Calculation                   ... off
Polarizability Calculation                      ... off
GBWName                                         ... 73_Ta.gbw
Electron density file                           ... 73_Ta.mdcip
The origin for moment calculation is the CENTER OF MASS  = ( 0.000000,  0.000000  0.000000)

-------------
DIPOLE MOMENT
-------------
                                X             Y             Z
Electronic contribution:     -0.00000      -0.00000       0.00000
Nuclear contribution   :      0.00000       0.00000       0.00000
                        -----------------------------------------
Total Dipole Moment    :     -0.00000      -0.00000       0.00000
                        -----------------------------------------
Magnitude (a.u.)       :      0.00000
Magnitude (Debye)      :      0.00000



--------------------
Rotational spectrum 
--------------------
 
Rotational constants in cm-1:     0.000000     0.000000     0.000000 
Rotational constants in MHz :     0.000000     0.000000     0.000000 

 Dipole components along the rotational axes: 
x,y,z [a.u.] :    -0.000000    -0.000000     0.000000 
x,y,z [Debye]:    -0.000000    -0.000000     0.000000 

 

Timings for individual modules:

Sum of individual times         ...       26.111 sec (=   0.435 min)
GTO integral calculation        ...        1.032 sec (=   0.017 min)   4.0 %
SCF iterations                  ...       14.195 sec (=   0.237 min)  54.4 %
MDCI module                     ...       10.885 sec (=   0.181 min)  41.7 %
                             ****ORCA TERMINATED NORMALLY****
TOTAL RUN TIME: 0 days 0 hours 0 minutes 26 seconds 881 msec
