
                                 *****************
                                 * O   R   C   A *
                                 *****************

           --- An Ab Initio, DFT and Semiempirical electronic structure package ---

                  #######################################################
                  #                        -***-                        #
                  #          Department of theory and spectroscopy      #
                  #               Directorship: Frank Neese             #
                  #        Max Planck Institute fuer Kohlenforschung    #
                  #                Kaiser Wilhelm Platz 1               #
                  #                 D-45470 Muelheim/Ruhr               #
                  #                      Germany                        #
                  #                                                     #
                  #                  All rights reserved                #
                  #                        -***-                        #
                  #######################################################


                         Program Version 4.2.0 -  RELEASE  -


 With contributions from (in alphabetic order):
   Daniel Aravena         : Magnetic Suceptibility
   Michael Atanasov       : Ab Initio Ligand Field Theory (pilot matlab implementation)
   Alexander A. Auer      : GIAO ZORA, VPT2
   Ute Becker             : Parallelization
   Giovanni Bistoni       : ED, misc. LED, open-shell LED, HFLED
   Martin Brehm           : Molecular dynamics
   Dmytro Bykov           : SCF Hessian
   Vijay G. Chilkuri      : MRCI spin determinant printing, contributions to CSF-ICE
   Dipayan Datta          : RHF DLPNO-CCSD density
   Achintya Kumar Dutta   : EOM-CC, STEOM-CC
   Dmitry Ganyushin       : Spin-Orbit,Spin-Spin,Magnetic field MRCI
   Miquel Garcia          : C-PCM Hessian, Gaussian charge scheme
   Yang Guo               : DLPNO-NEVPT2, CIM, IAO-localization
   Andreas Hansen         : Spin unrestricted coupled pair/coupled cluster methods
   Benjamin Helmich-Paris : CASSCF linear response (MC-RPA)
   Lee Huntington         : MR-EOM, pCC
   Robert Izsak           : Overlap fitted RIJCOSX, COSX-SCS-MP3, EOM
   Christian Kollmar      : KDIIS, OOCD, Brueckner-CCSD(T), CCSD density
   Simone Kossmann        : Meta GGA functionals, TD-DFT gradient, OOMP2, MP2 Hessian
   Martin Krupicka        : AUTO-CI
   Lucas Lang             : DCDCAS
   Dagmar Lenk            : GEPOL surface, SMD
   Dimitrios Liakos       : Extrapolation schemes; Compound Job, initial MDCI parallelization
   Dimitrios Manganas     : Further ROCIS development; embedding schemes
   Dimitrios Pantazis     : SARC Basis sets
   Taras Petrenko         : DFT Hessian,TD-DFT gradient, ASA, ECA, R-Raman, ABS, FL, XAS/XES, NRVS
   Peter Pinski           : DLPNO-MP2, DLPNO-MP2 Gradient
   Christoph Reimann      : Effective Core Potentials
   Marius Retegan         : Local ZFS, SOC
   Christoph Riplinger    : Optimizer, TS searches, QM/MM, DLPNO-CCSD(T), (RO)-DLPNO pert. Triples
   Tobias Risthaus        : Range-separated hybrids, TD-DFT gradient, RPA, STAB
   Michael Roemelt        : Original ROCIS implementation
   Masaaki Saitow         : Open-shell DLPNO-CCSD energy and density
   Barbara Sandhoefer     : DKH picture change effects
   Avijit Sen             : IP-ROCIS
   Kantharuban Sivalingam : CASSCF convergence, NEVPT2, FIC-MRCI
   Bernardo de Souza      : ESD, SOC TD-DFT
   Georgi Stoychev        : AutoAux, RI-MP2 NMR
   Willem Van den Heuvel  : Paramagnetic NMR
   Boris Wezisla          : Elementary symmetry handling
   Frank Wennmohs         : Technical directorship


 We gratefully acknowledge several colleagues who have allowed us to
 interface, adapt or use parts of their codes:
   Stefan Grimme, W. Hujo, H. Kruse,             : VdW corrections, initial TS optimization,
                  C. Bannwarth                     DFT functionals, gCP, sTDA/sTD-DF
   Ed Valeev, F. Pavosevic, A. Kumar             : LibInt (2-el integral package), F12 methods
   Garnet Chan, S. Sharma, J. Yang, R. Olivares  : DMRG
   Ulf Ekstrom                                   : XCFun DFT Library
   Mihaly Kallay                                 : mrcc  (arbitrary order and MRCC methods)
   Andreas Klamt, Michael Diedenhofen            : otool_cosmo (COSMO solvation model)
   Jiri Pittner, Ondrej Demel                    : Mk-CCSD
   Frank Weinhold                                : gennbo (NPA and NBO analysis)
   Christopher J. Cramer and Donald G. Truhlar   : smd solvation model
   Lars Goerigk                                  : TD-DFT with DH, B97 family of functionals
   V. Asgeirsson, H. Jonsson                     : NEB implementation
   FAccTs GmbH                                   : IRC, NEB, NEB-TS, Multilevel, MM, QM/MM, CI optimization
   S Lehtola, MJT Oliveira, MAL Marques          : LibXC Library


 Your calculation uses the libint2 library for the computation of 2-el integrals
 For citations please refer to: http://libint.valeyev.net

 Your ORCA version has been built with support for libXC version: 4.2.3
 For citations please refer to: https://tddft.org/programs/libxc/

 This ORCA versions uses:
   CBLAS   interface :  Fast vector & matrix operations
   LAPACKE interface :  Fast linear algebra routines
   SCALAPACK package :  Parallel linear algebra routines


----- Orbital basis set information -----
Your calculation utilizes the basis: def2-SVP
   F. Weigend and R. Ahlrichs, Phys. Chem. Chem. Phys. 7, 3297 (2005).

----- AuxJ basis set information -----
Your calculation utilizes the auxiliary basis: def2/J
   F. Weigend, Phys. Chem. Chem. Phys. 8, 1057 (2006).

================================================================================
                                        WARNINGS
                       Please study these warnings very carefully!
================================================================================


INFO   : the flag for use of LIBINT has been found!

================================================================================
                                       INPUT FILE
================================================================================
NAME = 73_Ta_atom73.inp
|  1> # input to generate an atomic fitting density for Ta
|  2> # this file is use internally by ORCA
|  3> #
|  4> # atomic ground state (S=4): 1s2 2s2 2p6 3s2 3p6 4s2 3d10 4p6 5s2 4d10 5p6 6s2 4f14 5d3 
|  5> #
|  6> ! RHF AllowRHF def2-SVP def2/J  NoMulliken NoLoewdin NoMayer NoPrintMOs 
|  7> 
|  8> %output print[p_atomdensfit] 2 end
|  9> 
| 10> %scf
| 11>   guess hcore
| 12>   maxiter 1000
| 13>   maxdisk 500000
| 14>   SCFMode Conventional
| 15>   lshift 0.200000
| 16>   hftyp rohf
| 17>   rohf_case sahf
| 18>   rohf_numop   2
| 19>   rohf_norb[1] 5
| 20>   rohf_nel[1]  3
| 21> end
| 22> 
| 23> %basis
| 24>   NewECP 73
| 25>     N_core 60
| 26>     lmax f
| 27>     s 3
| 28>       1      14.5464077000   1345.8806470000  2
| 29>       2       7.2732038000     36.7668062000  2
| 30>       3       2.0178811000    -12.0179609000  2
| 31>     p 3
| 32>       1       9.9355653000    378.4253015000  2
| 33>       2       4.9677824000     22.2930909000  2
| 34>       3       2.0178811000    -12.0179609000  2
| 35>     d 3
| 36>       1       6.3473769000    104.8839557000  2
| 37>       2       3.1736885000      8.7558481000  2
| 38>       3       2.0178811000    -12.0179609000  2
| 39>     f 1
| 40>       1       2.0178811000     12.0179609000  2
| 41>   end
| 42>   NewGTO 73
| 43>     s 4 
| 44>      1      24.4736509440      2.2887030616
| 45>      2      18.7213725490     -8.2997748821
| 46>      3      11.5000000000     37.9651621324
| 47>      4      10.3500000000    -31.4510745200
| 48>     s 1 
| 49>      1       3.8125414615      1.0000000000
| 50>     s 1 
| 51>      1       1.0507430630      1.0000000000
| 52>     s 1 
| 53>      1       0.4973227575      1.0000000000
| 54>     s 1 
| 55>      1       0.1560265097      1.0000000000
| 56>     s 1 
| 57>      1       0.0750564424      1.0000000000
| 58>     s 1 
| 59>      1       0.0316326688      1.0000000000
| 60>     p 4 
| 61>      1      17.0000000000     -0.0771704057
| 62>      2      12.0081865360      0.2448500499
| 63>      3       5.0278760583     -0.6757474915
| 64>      4       1.1937124184      1.2268252800
| 65>     p 1 
| 66>      1       0.5788970705      1.0000000000
| 67>     p 1 
| 68>      1       0.2722519880      1.0000000000
| 69>     p 1 
| 70>      1       0.1000000000      1.0000000000
| 71>     p 1 
| 72>      1       0.0417000000      1.0000000000
| 73>     d 3 
| 74>      1       7.1419762952      0.1764265527
| 75>      2       5.7696869171     -0.3416152275
| 76>      3       1.2199483941      1.0661973413
| 77>     d 1 
| 78>      1       0.5236603425      1.0000000000
| 79>     d 1 
| 80>      1       0.2138480877      1.0000000000
| 81>     d 1 
| 82>      1       0.0802542567      1.0000000000
| 83>   end
| 84>   NewAuxGTO 73
| 85>     S 1
| 86>      1 1310.72 1.0
| 87>     S 1
| 88>      1  655.36 1.0
| 89>     S 1
| 90>      1  327.68 1.0
| 91>     S 1
| 92>      1  163.84 1.0
| 93>     S 1
| 94>      1   81.82 1.0
| 95>     S 1
| 96>      1   40.96 1.0
| 97>     S 1
| 98>      1   20.48 1.0
| 99>     S 1
|100>      1   10.24 1.0
|101>     S 1
|102>      1    5.12 1.0
|103>     S 1
|104>      1    2.56 1.0
|105>     S 1
|106>      1    1.28 1.0
|107>     S 1
|108>      1    0.64 1.0
|109>     S 1
|110>      1    0.32 1.0
|111>     S 1
|112>      1    0.16 1.0
|113>     S 1
|114>      1    0.08 1.0
|115>     S 1
|116>      1    0.04 1.0
|117>     S 1
|118>      1    0.02 1.0
|119>     S 1
|120>      1    0.01 1.0
|121>   end
|122> end
|123> 
|124> * xyz 0 4
|125> 73  0.0 0.0 0.0
|126> *
|127> 
|128> 
|129>                          ****END OF INPUT****
================================================================================

                       ****************************
                       * Single Point Calculation *
                       ****************************

---------------------------------
CARTESIAN COORDINATES (ANGSTROEM)
---------------------------------
  Ta     0.000000    0.000000    0.000000

----------------------------
CARTESIAN COORDINATES (A.U.)
----------------------------
  NO LB      ZA    FRAG     MASS         X           Y           Z
   0 Ta   13.0000*   0   180.948    0.000000    0.000000    0.000000
* core charge reduced due to ECP

--------------------------------
INTERNAL COORDINATES (ANGSTROEM)
--------------------------------
 Ta     0   0   0     0.000000000000     0.00000000     0.00000000

---------------------------
INTERNAL COORDINATES (A.U.)
---------------------------
 Ta     0   0   0     0.000000000000     0.00000000     0.00000000

---------------------
BASIS SET INFORMATION
---------------------
There are 1 groups of distinct atoms

 Group   1 Type Ta  : 10s8p6d contracted to 7s5p4d pattern {4111111/41111/3111}

Atom   0Ta   basis set group =>   1
---------------------------------
AUXILIARY/J BASIS SET INFORMATION
---------------------------------
There are 1 groups of distinct atoms

 Group   1 Type Ta  : 18s contracted to 18s pattern {111111111111111111}

Atom   0Ta   basis set group =>   1
-------------------------
ECP PARAMETER INFORMATION
-------------------------

 Group 1, Type Ta ECP (replacing 60 core electrons, lmax=3)

Atom   0Ta   ECP group =>   1

------------------------------------------------------------------------------
                           ORCA GTO INTEGRAL CALCULATION
------------------------------------------------------------------------------

                         BASIS SET STATISTICS AND STARTUP INFO

 # of primitive gaussian shells          ...   24
 # of primitive gaussian functions       ...   64
 # of contracted shells                  ...   16
 # of contracted basis functions         ...   42
 Highest angular momentum                ...    2
 Maximum contraction depth               ...    4
 Integral package used                   ... LIBINT
 Integral threshhold            Thresh   ...  1.000e-10
 Primitive cut-off              TCut     ...  1.000e-11
 Storage cut-off                TCutStore... -1.000e+00
 Buffer length                           ... 1048576 integrals/buffer
 Generate file with integrals 4 distinct ...false


------------------------------ INTEGRAL EVALUATION ----------------------------


 * One electron integrals 

   ECP integrals                         ... done
 Pre-screening matrix                    ... done
 Shell pair data                         ... done (   0.000 sec)
 Statistics run                          ... done
 Maximum amount of storage needed        ...     4 MB
 Maximum amount of storage dedicated     ... 500000 MB
 Beginning two electron integral evaluation:
 Starting repulsion integrals
  <ss|ss>  ...          406 b.         0 skpd (  0.0%)     0.000 s. (  0.000 ms/b)
  <ss|sp>  ...          980 b.         0 skpd (  0.0%)     0.000 s. (  0.000 ms/b)
  <ss|sd>  ...          784 b.         0 skpd (  0.0%)     0.000 s. (  0.000 ms/b)
  <ss|pp>  ...          420 b.         0 skpd (  0.0%)     0.000 s. (  0.001 ms/b)
  <ss|pd>  ...          560 b.         0 skpd (  0.0%)     0.000 s. (  0.001 ms/b)
  <ss|dd>  ...          280 b.         0 skpd (  0.0%)     0.000 s. (  0.001 ms/b)
  <sp|sp>  ...          630 b.         0 skpd (  0.0%)     0.000 s. (  0.001 ms/b)
  <sp|sd>  ...          980 b.         0 skpd (  0.0%)     0.001 s. (  0.001 ms/b)
  <sp|pp>  ...          525 b.         0 skpd (  0.0%)     0.001 s. (  0.001 ms/b)
  <sp|pd>  ...          700 b.         0 skpd (  0.0%)     0.001 s. (  0.002 ms/b)
  <sp|dd>  ...          350 b.         0 skpd (  0.0%)     0.001 s. (  0.003 ms/b)
  <sd|sd>  ...          406 b.         0 skpd (  0.0%)     0.001 s. (  0.001 ms/b)
  <sd|pp>  ...          420 b.         0 skpd (  0.0%)     0.001 s. (  0.002 ms/b)
  <sd|pd>  ...          560 b.         0 skpd (  0.0%)     0.002 s. (  0.003 ms/b)
  <sd|dd>  ...          280 b.         0 skpd (  0.0%)     0.002 s. (  0.006 ms/b)
  <pp|pp>  ...          120 b.         0 skpd (  0.0%)     0.000 s. (  0.003 ms/b)
  <pp|pd>  ...          300 b.         0 skpd (  0.0%)     0.002 s. (  0.005 ms/b)
  <pp|dd>  ...          150 b.         0 skpd (  0.0%)     0.001 s. (  0.009 ms/b)
  <pd|pd>  ...          210 b.         0 skpd (  0.0%)     0.002 s. (  0.010 ms/b)
  <pd|dd>  ...          200 b.         0 skpd (  0.0%)     0.004 s. (  0.018 ms/b)
  <dd|dd>  ...           55 b.         0 skpd (  0.0%)     0.002 s. (  0.040 ms/b)


                                      INTEGRAL STATISTICS

Integral type statistics:
 Number of integrals retained            ...     408156 
 One   Center Integrals retained         ...     408156 (100.0%)
 Two   Center Integrals retained         ...          0 (  0.0%)
 Three Center Integrals retained         ...          0 (  0.0%)
 Four  Center Integrals retained         ...          0 (  0.0%)

Storage statistics:
 Number of char integrals                ...          0 (  0.0%)
 Number of short int integrals           ...          0 (  0.0%)
 Number of double/float integrals        ...     408156 (100.0%)
 Amount of memory used                   ...          5 MB
 Amount of memory estimated              ...          4 MB ( 95.1%)

Prescreening statistics:
 Total number of shell quadruples        ...       9316 
 Number of skipped shell quadruples      ...          0 (  0.0%)
 # of negligible batches done            ...          0 (  0.0%)

Timings:
 Total evaluation time               ...     0.190 sec (   0.003 min)
 One electron matrix time            ...     0.017 sec (   0.000 min) =  8.8%
 Schwartz matrix evaluation time     ...     0.071 sec (   0.001 min) = 37.6%
 Statistics run                      ...     0.003 sec (   0.000 min) =  1.7%
 Repulsion integral time             ...     0.022 sec (   0.000 min) = 11.6%

-------------------------------------------------------------------------------
                                 ORCA SCF
-------------------------------------------------------------------------------

------------
SCF SETTINGS
------------
Hamiltonian:
 Ab initio Hamiltonian  Method          .... Hartree-Fock(GTOs)


General Settings:
 Integral files         IntName         .... 73_Ta_atom73
 Hartree-Fock type      HFTyp           .... ROHF
 Total Charge           Charge          ....    0
 Multiplicity           Mult            ....    4
 Number of Electrons    NEL             ....   13
 Basis Dimension        Dim             ....   42
 Nuclear Repulsion      ENuc            ....      0.0000000000 Eh

Convergence Acceleration:
 DIIS                   CNVDIIS         .... on
   Start iteration      DIISMaxIt       ....    12
   Startup error        DIISStart       ....  0.200000
   # of expansion vecs  DIISMaxEq       ....     5
   Bias factor          DIISBfac        ....   1.050
   Max. coefficient     DIISMaxC        ....  10.000
 Newton-Raphson         CNVNR           .... off
 SOSCF                  CNVSOSCF        .... off
 Level Shifting         CNVShift        .... on
   Level shift para.    LevelShift      ....    0.2000
   Turn off err/grad.   ShiftErr        ....    0.0010
 Zerner damping         CNVZerner       .... off
 Static damping         CNVDamp         .... on
   Fraction old density DampFac         ....    0.7000
   Max. Damping (<1)    DampMax         ....    0.9800
   Min. Damping (>=0)   DampMin         ....    0.0000
   Turn off err/grad.   DampErr         ....    0.1000
 Fernandez-Rico         CNVRico         .... off

SCF Procedure:
 Maximum # iterations   MaxIter         ....  1000
 SCF integral mode      SCFMode         .... Conventional
 Integral Threshold     Thresh          ....  1.000e-10 Eh
 Primitive CutOff       TCut            ....  1.000e-11 Eh
 Integral Buffer length BufferLength    .... 1048576
 Integral index format  IndFormat       ....     0
 Integral value format  ValFormat       ....     0
 Integral Storage       Thresh          ....  1.000e-10 Eh

Convergence Tolerance:
 Convergence Check Mode ConvCheckMode   .... Total+1el-Energy
 Convergence forced     ConvForced      .... 0
 Energy Change          TolE            ....  1.000e-06 Eh
 1-El. energy change                    ....  1.000e-03 Eh
 DIIS Error             TolErr          ....  1.000e-06


Diagonalization of the overlap matrix:
Smallest eigenvalue                        ... 5.647e-03
Time for diagonalization                   ...    0.000 sec
Threshold for overlap eigenvalues          ... 1.000e-08
Number of eigenvalues below threshold      ... 0
Time for construction of square roots      ...    0.002 sec
Total time needed                          ...    0.002 sec

--------------------
INITIAL GUESS: HCORE
--------------------
AVERAGE-CONFIGURATION (SAHF) CASE FOUND

-------------------
FINAL ROHF SETTINGS
-------------------
Number of operators             ... 2
  operator   0:   5 orbitals  10 electrons n(mue)= 2.000
  operator   1:   5 orbitals   3 electrons n(mue)= 0.600
Vector coupling coefficients a and b (Zerner convention):
   1.000    1.000           1.000    1.000 
   1.000    0.833           1.000    1.667 

                      -----------------
                      INTIAL GUESS DONE 
                      -----------------

 InCore treatment chosen:
   Memory dedicated               ...    1024 MB
   Memory needed                  ...      5 MB
   Number of tiny    integrals    ...       0
   Number of small   integrals    ...       0
   Number of regular integrals    ...  408156

--------------
SCF ITERATIONS
--------------
ITER       Energy         Delta-E        Max-DP      RMS-DP      [F,P]     Damp
  0    -51.0380196378   0.000000000000 2.23496668  0.07163377  1.0858837 0.7000
                            ****Activating DIIS****
  1    -54.6415786634  -3.603559025611 1.56443845  0.04387122  0.1421607 0.7000
  2    -54.5822758021   0.059302861322 1.09508137  0.02764709  0.1168373 0.7000
  3    -54.6403146885  -0.058038886350 0.76655898  0.01949878  0.1411160 0.7000
  4    -54.6203423065   0.019972381982 0.53658812  0.01415813  0.1803640 0.7000
  5    -54.5708024694   0.049539837044 0.37560523  0.01081080  0.1978308 0.7000
  6    -54.5046661070   0.066136362448 0.26290067  0.00859550  0.2078430 0.7000
  7    -54.6675177881  -0.162851681146 0.18405725  0.00621109  0.2288947 0.7000
  8    -54.7428572907  -0.075339502566 0.25784455  0.00833879  0.2373313 0.7000
  9    -54.9681015127  -0.225244222020 0.65343805  0.02244673  0.1776352 0.7000
 10    -55.8222573334  -0.854155820659 1.79075408  0.05681439  0.0829402 0.0000
 11    -56.1720942746  -0.349836941238 0.20611906  0.00528212  0.0850571 0.0000
 12    -56.2199108772  -0.047816602567 0.19656832  0.00608472  0.0495964 0.0000
 13    -56.2468515637  -0.026940686540 0.20705999  0.00592865  0.0186093 0.0000
 14    -56.2616257781  -0.014774214411 0.15348590  0.00358378  0.0104223 0.0000
 15    -56.2687284791  -0.007102701004 0.08562674  0.00217484  0.0051954 0.0000
 16    -56.2707919972  -0.002063518027 0.03378835  0.00072346  0.0036868 0.0000
 17    -56.2709223069  -0.000130309775 0.05229602  0.00107193  0.0023154 0.0000
 18    -56.2710244607  -0.000102153731 0.02221221  0.00047225  0.0011335 0.0000
 19    -56.2710409946  -0.000016533972 0.00479795  0.00010894  0.0007270 0.0000
 20    -56.2710428054  -0.000001810777 0.00604029  0.00012444  0.0003445 0.0000
 21    -56.2710437777  -0.000000972289 0.00264176  0.00005362  0.0001344 0.0000
 22    -56.2710440167  -0.000000238945 0.00103168  0.00002131  0.0000435 0.0000
                 **** Energy Check signals convergence ****

               *****************************************************
               *                     SUCCESS                       *
               *           SCF CONVERGED AFTER  23 CYCLES          *
               *****************************************************


----------------
TOTAL SCF ENERGY
----------------

Total Energy       :          -56.27104406 Eh           -1531.21295 eV

Components:
Nuclear Repulsion  :            0.00000000 Eh               0.00000 eV
Electronic Energy  :          -56.27104406 Eh           -1531.21295 eV
One Electron Energy:          -94.55833945 Eh           -2573.06323 eV
Two Electron Energy:           38.28729539 Eh            1041.85027 eV

Virial components:
Potential Energy   :          -75.70391404 Eh           -2060.00823 eV
Kinetic Energy     :           19.43286998 Eh             528.79528 eV
Virial Ratio       :            3.89566308


---------------
SCF CONVERGENCE
---------------

  Last Energy change         ...   -4.6155e-08  Tolerance :   1.0000e-06
  Last MAX-Density change    ...    2.2299e-05  Tolerance :   1.0000e-05
  Last RMS-Density change    ...    1.1745e-06  Tolerance :   1.0000e-06
  Last DIIS Error            ...    1.0667e-05  Tolerance :   1.0000e-06

             **** THE GBW FILE WAS UPDATED (73_Ta_atom73.gbw) ****
             **** DENSITY FILE WAS UPDATED (73_Ta_atom73.scfp) ****
             **** ENERGY FILE WAS UPDATED (73_Ta_atom73.en.tmp) ****
             **** THE GBW FILE WAS UPDATED (73_Ta_atom73.gbw) ****
             **** DENSITY FILE WAS UPDATED (73_Ta_atom73.scfp) ****
----------------
ORBITAL ENERGIES
----------------

  NO   OCC          E(Eh)            E(eV) 
   0   2.0000      -3.136574       -85.3505 
   1   2.0000      -1.712490       -46.5992 
   2   2.0000      -1.712488       -46.5992 
   3   2.0000      -1.712488       -46.5992 
   4   2.0000      -0.249339        -6.7849 
   5   0.6000      -0.312372        -8.5001 
   6   0.6000      -0.312371        -8.5000 
   7   0.6000      -0.312370        -8.5000 
   8   0.6000      -0.312367        -8.4999 
   9   0.6000      -0.312365        -8.4999 
  10   0.0000      -0.066517        -1.8100 
  11   0.0000      -0.066517        -1.8100 
  12   0.0000      -0.066516        -1.8100 
  13   0.0000       0.016525         0.4497 
  14   0.0000       0.133848         3.6422 
  15   0.0000       0.133850         3.6422 
  16   0.0000       0.133850         3.6422 
  17   0.0000       0.163553         4.4505 
  18   0.0000       0.163554         4.4505 
  19   0.0000       0.163554         4.4505 
  20   0.0000       0.163555         4.4506 
  21   0.0000       0.163555         4.4506 
  22   0.0000       0.415975        11.3193 
  23   0.0000       0.901979        24.5441 
  24   0.0000       0.901981        24.5441 
  25   0.0000       0.901980        24.5441 
  26   0.0000       0.901982        24.5442 
  27   0.0000       0.901981        24.5442 
  28   0.0000       0.909041        24.7363 
  29   0.0000       0.909044        24.7363 
  30   0.0000       0.909044        24.7363 
  31   0.0000       2.473018        67.2943 
  32   0.0000       3.733557       101.5952 
  33   0.0000       3.733558       101.5953 
  34   0.0000       3.733557       101.5953 
  35   0.0000       3.733559       101.5953 
  36   0.0000       3.733559       101.5953 
  37   0.0000      37.690213      1025.6028 
  38   0.0000      37.690214      1025.6029 
  39   0.0000      37.690215      1025.6029 
  40   0.0000      79.987898      2176.5814 
  41   0.0000     678.522859     18463.5457 
CleanUpVectors: The d-vectors have cracked symmetry at i=5
CleanUpVectors: The d-vectors have cracked symmetry at i=6
CleanUpVectors: The d-vectors have cracked symmetry at i=7
CleanUpVectors: The d-vectors have cracked symmetry at i=8
CleanUpVectors: The d-vectors have cracked symmetry at i=9
--------------------------
ATOM BASIS FOR ELEMENT Ta
--------------------------
 NewGTO Ta
 S 10
    1         24.473650944000         0.204765485519
    2         18.721372549000        -0.742563533883
    3         11.500000000000         3.396663808109
    4         10.350000000000        -2.813861986831
    5          3.812541461500        -0.615567816203
    6          1.050743063000         0.777642792469
    7          0.497322757500         0.545762504916
    8          0.156026509700         0.036665442046
    9          0.075056442400        -0.008867196837
   10          0.031632668800         0.001786427095
 S 10
    1         24.473650944000         0.065674220569
    2         18.721372549000        -0.238161627615
    3         11.500000000000         1.089408439936
    4         10.350000000000        -0.902487019749
    5          3.812541461500        -0.213587355552
    6          1.050743063000         0.327987308726
    7          0.497322757500         0.401058954297
    8          0.156026509700        -0.181623281451
    9          0.075056442400        -0.685074281062
   10          0.031632668800        -0.349954774139
 D 24
    1         24.473650944000         0.000000041510
    2         18.721372549000        -0.000000196784
    3         11.500000000000         0.000001465373
    4         10.350000000000        -0.000001348826
    5          3.812541461500        -0.000000877123
    6          1.050743063000         0.000005202228
    7          0.497322757500         0.000014061172
    8          0.156026509700        -0.000080358177
    9          0.075056442400        -0.000045828352
   10          0.031632668800         0.000091495486
   11          7.141976295200        -0.003845824411
   12          5.769686917100         0.007446680565
   13          1.219948394100        -0.023241443534
   14          7.141976295200        -0.025945889099
   15          5.769686917100         0.050239097639
   16          1.219948394100        -0.156798608552
   17          7.141976295200         0.001622022116
   18          5.769686917100        -0.003140725961
   19          1.219948394100         0.009802354812
   20          7.141976295200        -0.029483014965
   21          5.769686917100         0.057088044348
   22          1.219948394100        -0.178174496345
   23          7.141976295200        -0.000015356493
   24          5.769686917100         0.000029734820
 S 10
    1         24.473650944000         1.687842457772
    2         18.721372549000        -6.120808186522
    3         11.500000000000        27.998045547452
    4         10.350000000000       -23.194122386633
    5          3.812541461500        -1.750582393235
    6          1.050743063000         2.191907393377
    7          0.497322757500        -1.777921295561
    8          0.156026509700         1.037883493253
    9          0.075056442400        -0.679762963059
   10          0.031632668800         0.184339354271
 S 10
    1         24.473650944000         1.952159622537
    2         18.721372549000        -7.079330505047
    3         11.500000000000        32.382556663389
    4         10.350000000000       -26.826336187280
    5          3.812541461500         0.361791040518
    6          1.050743063000         0.192396666702
    7          0.497322757500        -0.191131329521
    8          0.156026509700         0.122277699363
    9          0.075056442400        -0.081711941823
   10          0.031632668800         0.022402874238
 P 8
    1         17.000000000000        -0.030802473237
    2         12.008186536000         0.097731598541
    3          5.027876058300        -0.269723786381
    4          1.193712418400         0.489685812988
    5          0.578897070500         0.496111548736
    6          0.272251988000         0.163907395561
    7          0.100000000000         0.012024031279
    8          0.041700000000        -0.000058851163
 D 24
    1          7.141976295200        -0.031221496557
    2          5.769686917100         0.060454271118
    3          1.219948394100        -0.188680649887
    4          7.141976295200        -0.015810504808
    5          5.769686917100         0.030613924685
    6          1.219948394100        -0.095547512168
    7          7.141976295200         0.001903314730
    8          5.769686917100        -0.003685393636
    9          1.219948394100         0.011502288482
   10          7.141976295200         0.018089913790
   11          5.769686917100        -0.035027550673
   12          1.219948394100         0.109322648387
   13          7.141976295200         0.002084953589
   14          5.769686917100        -0.004037101466
   15          1.219948394100         0.012599985314
   16          0.523660342500        -0.340182083239
   17          0.523660342500        -0.172267541781
   18          0.523660342500         0.020738069644
   19          0.523660342500         0.197103445932
   20          0.523660342500         0.022717163926
   21          0.213848087700        -0.313531698880
   22          0.213848087700        -0.158771839252
   23          0.213848087700         0.019113417572
   24          0.213848087700         0.181662060712
 P 8
    1         17.000000000000        -0.005626414876
    2         12.008186536000         0.017851765203
    3          5.027876058300        -0.049268054304
    4          1.193712418400         0.089446568839
    5          0.578897070500         0.175763409677
    6          0.272251988000        -0.105655603396
    7          0.100000000000         0.127262138334
    8          0.041700000000        -1.078477534161
 P 8
    1         17.000000000000        -0.008808250682
    2         12.008186536000         0.027947249978
    3          5.027876058300        -0.077129998850
    4          1.193712418400         0.140030164559
    5          0.578897070500         0.131372655814
    6          0.272251988000         0.526195838979
    7          0.100000000000        -2.200146670935
    8          0.041700000000         1.494476030861
 P 8
    1         17.000000000000        -0.023395977042
    2         12.008186536000         0.074231903982
    3          5.027876058300        -0.204868338503
    4          1.193712418400         0.371940199421
    5          0.578897070500         1.530722677007
    6          0.272251988000        -3.173204286716
    7          0.100000000000         2.225696757667
    8          0.041700000000        -0.824153200987
 P 8
    1         17.000000000000        -0.204427192586
    2         12.008186536000         0.648616627728
    3          5.027876058300        -1.790079517286
    4          1.193712418400         3.249904487462
    5          0.578897070500        -4.441197614562
    6          0.272251988000         2.901003725347
    7          0.100000000000        -1.238410332485
    8          0.041700000000         0.430904629766
 D 6
    1          7.141976295200        -0.024108806437
    2          5.769686917100         0.046681949342
    3          1.219948394100        -0.145696579860
    4          0.523660342500        -0.047125790203
    5          0.213848087700        -0.647372307483
    6          0.080254256700         1.266243991034
 D 6
    1          7.141976295200        -0.018698460167
    2          5.769686917100         0.036205880725
    3          1.219948394100        -0.113000272414
    4          0.523660342500        -1.250306052229
    5          0.213848087700         1.866379088020
    6          0.080254256700        -0.753550819800
 D 6
    1          7.141976295200        -0.318837020826
    2          5.769686917100         0.617365015288
    3          1.219948394100        -1.926825518667
    4          0.523660342500         2.315393204761
    5          0.213848087700        -1.255288798676
    6          0.080254256700         0.386298644375
 end
  // -----------------------------------------------
  // The basis set
  // -----------------------------------------------
  BAS[ATNO] = new BFNGauss[NSH];
  // Basis function   1 L = s
  InitBFNGauss(BAS[ATNO][  0]);
  BAS[ATNO][  0].l  = 0;
  BAS[ATNO][  0].ng = 10;
  BAS[ATNO][  0].a[  0] =        24.473650944000;     BAS[ATNO][  0].d[  0] =         0.204765485519;
  BAS[ATNO][  0].a[  1] =        18.721372549000;     BAS[ATNO][  0].d[  1] =        -0.742563533883;
  BAS[ATNO][  0].a[  2] =        11.500000000000;     BAS[ATNO][  0].d[  2] =         3.396663808109;
  BAS[ATNO][  0].a[  3] =        10.350000000000;     BAS[ATNO][  0].d[  3] =        -2.813861986831;
  BAS[ATNO][  0].a[  4] =         3.812541461500;     BAS[ATNO][  0].d[  4] =        -0.615567816203;
  BAS[ATNO][  0].a[  5] =         1.050743063000;     BAS[ATNO][  0].d[  5] =         0.777642792469;
  BAS[ATNO][  0].a[  6] =         0.497322757500;     BAS[ATNO][  0].d[  6] =         0.545762504916;
  BAS[ATNO][  0].a[  7] =         0.156026509700;     BAS[ATNO][  0].d[  7] =         0.036665442046;
  BAS[ATNO][  0].a[  8] =         0.075056442400;     BAS[ATNO][  0].d[  8] =        -0.008867196837;
  BAS[ATNO][  0].a[  9] =         0.031632668800;     BAS[ATNO][  0].d[  9] =         0.001786427095;

  // Basis function   2 L = s
  InitBFNGauss(BAS[ATNO][  1]);
  BAS[ATNO][  1].l  = 0;
  BAS[ATNO][  1].ng = 10;
  BAS[ATNO][  1].a[  0] =        24.473650944000;     BAS[ATNO][  1].d[  0] =         0.065674220569;
  BAS[ATNO][  1].a[  1] =        18.721372549000;     BAS[ATNO][  1].d[  1] =        -0.238161627615;
  BAS[ATNO][  1].a[  2] =        11.500000000000;     BAS[ATNO][  1].d[  2] =         1.089408439936;
  BAS[ATNO][  1].a[  3] =        10.350000000000;     BAS[ATNO][  1].d[  3] =        -0.902487019749;
  BAS[ATNO][  1].a[  4] =         3.812541461500;     BAS[ATNO][  1].d[  4] =        -0.213587355552;
  BAS[ATNO][  1].a[  5] =         1.050743063000;     BAS[ATNO][  1].d[  5] =         0.327987308726;
  BAS[ATNO][  1].a[  6] =         0.497322757500;     BAS[ATNO][  1].d[  6] =         0.401058954297;
  BAS[ATNO][  1].a[  7] =         0.156026509700;     BAS[ATNO][  1].d[  7] =        -0.181623281451;
  BAS[ATNO][  1].a[  8] =         0.075056442400;     BAS[ATNO][  1].d[  8] =        -0.685074281062;
  BAS[ATNO][  1].a[  9] =         0.031632668800;     BAS[ATNO][  1].d[  9] =        -0.349954774139;

  // Basis function   3 L = d
  InitBFNGauss(BAS[ATNO][  2]);
  BAS[ATNO][  2].l  = 2;
  BAS[ATNO][  2].ng = 24;
  BAS[ATNO][  2].a[  0] =        24.473650944000;     BAS[ATNO][  2].d[  0] =        -0.000000041510;
  BAS[ATNO][  2].a[  1] =        18.721372549000;     BAS[ATNO][  2].d[  1] =         0.000000196784;
  BAS[ATNO][  2].a[  2] =        11.500000000000;     BAS[ATNO][  2].d[  2] =        -0.000001465373;
  BAS[ATNO][  2].a[  3] =        10.350000000000;     BAS[ATNO][  2].d[  3] =         0.000001348826;
  BAS[ATNO][  2].a[  4] =         3.812541461500;     BAS[ATNO][  2].d[  4] =         0.000000877123;
  BAS[ATNO][  2].a[  5] =         1.050743063000;     BAS[ATNO][  2].d[  5] =        -0.000005202228;
  BAS[ATNO][  2].a[  6] =         0.497322757500;     BAS[ATNO][  2].d[  6] =        -0.000014061172;
  BAS[ATNO][  2].a[  7] =         0.156026509700;     BAS[ATNO][  2].d[  7] =         0.000080358177;
  BAS[ATNO][  2].a[  8] =         0.075056442400;     BAS[ATNO][  2].d[  8] =         0.000045828352;
  BAS[ATNO][  2].a[  9] =         0.031632668800;     BAS[ATNO][  2].d[  9] =        -0.000091495486;
  BAS[ATNO][  2].a[ 10] =         7.141976295200;     BAS[ATNO][  2].d[ 10] =         0.003845824411;
  BAS[ATNO][  2].a[ 11] =         5.769686917100;     BAS[ATNO][  2].d[ 11] =        -0.007446680565;
  BAS[ATNO][  2].a[ 12] =         1.219948394100;     BAS[ATNO][  2].d[ 12] =         0.023241443534;
  BAS[ATNO][  2].a[ 13] =         7.141976295200;     BAS[ATNO][  2].d[ 13] =         0.025945889099;
  BAS[ATNO][  2].a[ 14] =         5.769686917100;     BAS[ATNO][  2].d[ 14] =        -0.050239097639;
  BAS[ATNO][  2].a[ 15] =         1.219948394100;     BAS[ATNO][  2].d[ 15] =         0.156798608552;
  BAS[ATNO][  2].a[ 16] =         7.141976295200;     BAS[ATNO][  2].d[ 16] =        -0.001622022116;
  BAS[ATNO][  2].a[ 17] =         5.769686917100;     BAS[ATNO][  2].d[ 17] =         0.003140725961;
  BAS[ATNO][  2].a[ 18] =         1.219948394100;     BAS[ATNO][  2].d[ 18] =        -0.009802354812;
  BAS[ATNO][  2].a[ 19] =         7.141976295200;     BAS[ATNO][  2].d[ 19] =         0.029483014965;
  BAS[ATNO][  2].a[ 20] =         5.769686917100;     BAS[ATNO][  2].d[ 20] =        -0.057088044348;
  BAS[ATNO][  2].a[ 21] =         1.219948394100;     BAS[ATNO][  2].d[ 21] =         0.178174496345;
  BAS[ATNO][  2].a[ 22] =         7.141976295200;     BAS[ATNO][  2].d[ 22] =         0.000015356493;
  BAS[ATNO][  2].a[ 23] =         5.769686917100;     BAS[ATNO][  2].d[ 23] =        -0.000029734820;

  // Basis function   4 L = s
  InitBFNGauss(BAS[ATNO][  3]);
  BAS[ATNO][  3].l  = 0;
  BAS[ATNO][  3].ng = 10;
  BAS[ATNO][  3].a[  0] =        24.473650944000;     BAS[ATNO][  3].d[  0] =         1.687842457772;
  BAS[ATNO][  3].a[  1] =        18.721372549000;     BAS[ATNO][  3].d[  1] =        -6.120808186522;
  BAS[ATNO][  3].a[  2] =        11.500000000000;     BAS[ATNO][  3].d[  2] =        27.998045547452;
  BAS[ATNO][  3].a[  3] =        10.350000000000;     BAS[ATNO][  3].d[  3] =       -23.194122386633;
  BAS[ATNO][  3].a[  4] =         3.812541461500;     BAS[ATNO][  3].d[  4] =        -1.750582393235;
  BAS[ATNO][  3].a[  5] =         1.050743063000;     BAS[ATNO][  3].d[  5] =         2.191907393377;
  BAS[ATNO][  3].a[  6] =         0.497322757500;     BAS[ATNO][  3].d[  6] =        -1.777921295561;
  BAS[ATNO][  3].a[  7] =         0.156026509700;     BAS[ATNO][  3].d[  7] =         1.037883493253;
  BAS[ATNO][  3].a[  8] =         0.075056442400;     BAS[ATNO][  3].d[  8] =        -0.679762963059;
  BAS[ATNO][  3].a[  9] =         0.031632668800;     BAS[ATNO][  3].d[  9] =         0.184339354271;

  // Basis function   5 L = s
  InitBFNGauss(BAS[ATNO][  4]);
  BAS[ATNO][  4].l  = 0;
  BAS[ATNO][  4].ng = 10;
  BAS[ATNO][  4].a[  0] =        24.473650944000;     BAS[ATNO][  4].d[  0] =         1.952159622537;
  BAS[ATNO][  4].a[  1] =        18.721372549000;     BAS[ATNO][  4].d[  1] =        -7.079330505047;
  BAS[ATNO][  4].a[  2] =        11.500000000000;     BAS[ATNO][  4].d[  2] =        32.382556663389;
  BAS[ATNO][  4].a[  3] =        10.350000000000;     BAS[ATNO][  4].d[  3] =       -26.826336187280;
  BAS[ATNO][  4].a[  4] =         3.812541461500;     BAS[ATNO][  4].d[  4] =         0.361791040518;
  BAS[ATNO][  4].a[  5] =         1.050743063000;     BAS[ATNO][  4].d[  5] =         0.192396666702;
  BAS[ATNO][  4].a[  6] =         0.497322757500;     BAS[ATNO][  4].d[  6] =        -0.191131329521;
  BAS[ATNO][  4].a[  7] =         0.156026509700;     BAS[ATNO][  4].d[  7] =         0.122277699363;
  BAS[ATNO][  4].a[  8] =         0.075056442400;     BAS[ATNO][  4].d[  8] =        -0.081711941823;
  BAS[ATNO][  4].a[  9] =         0.031632668800;     BAS[ATNO][  4].d[  9] =         0.022402874238;

  // Basis function   6 L = p
  InitBFNGauss(BAS[ATNO][  5]);
  BAS[ATNO][  5].l  = 1;
  BAS[ATNO][  5].ng = 8;
  BAS[ATNO][  5].a[  0] =        17.000000000000;     BAS[ATNO][  5].d[  0] =        -0.030802473237;
  BAS[ATNO][  5].a[  1] =        12.008186536000;     BAS[ATNO][  5].d[  1] =         0.097731598541;
  BAS[ATNO][  5].a[  2] =         5.027876058300;     BAS[ATNO][  5].d[  2] =        -0.269723786381;
  BAS[ATNO][  5].a[  3] =         1.193712418400;     BAS[ATNO][  5].d[  3] =         0.489685812988;
  BAS[ATNO][  5].a[  4] =         0.578897070500;     BAS[ATNO][  5].d[  4] =         0.496111548736;
  BAS[ATNO][  5].a[  5] =         0.272251988000;     BAS[ATNO][  5].d[  5] =         0.163907395561;
  BAS[ATNO][  5].a[  6] =         0.100000000000;     BAS[ATNO][  5].d[  6] =         0.012024031279;
  BAS[ATNO][  5].a[  7] =         0.041700000000;     BAS[ATNO][  5].d[  7] =        -0.000058851163;

  // Basis function   7 L = d
  InitBFNGauss(BAS[ATNO][  6]);
  BAS[ATNO][  6].l  = 2;
  BAS[ATNO][  6].ng = 24;
  BAS[ATNO][  6].a[  0] =         7.141976295200;     BAS[ATNO][  6].d[  0] =         0.031221496557;
  BAS[ATNO][  6].a[  1] =         5.769686917100;     BAS[ATNO][  6].d[  1] =        -0.060454271118;
  BAS[ATNO][  6].a[  2] =         1.219948394100;     BAS[ATNO][  6].d[  2] =         0.188680649887;
  BAS[ATNO][  6].a[  3] =         7.141976295200;     BAS[ATNO][  6].d[  3] =         0.015810504808;
  BAS[ATNO][  6].a[  4] =         5.769686917100;     BAS[ATNO][  6].d[  4] =        -0.030613924685;
  BAS[ATNO][  6].a[  5] =         1.219948394100;     BAS[ATNO][  6].d[  5] =         0.095547512168;
  BAS[ATNO][  6].a[  6] =         7.141976295200;     BAS[ATNO][  6].d[  6] =        -0.001903314730;
  BAS[ATNO][  6].a[  7] =         5.769686917100;     BAS[ATNO][  6].d[  7] =         0.003685393636;
  BAS[ATNO][  6].a[  8] =         1.219948394100;     BAS[ATNO][  6].d[  8] =        -0.011502288482;
  BAS[ATNO][  6].a[  9] =         7.141976295200;     BAS[ATNO][  6].d[  9] =        -0.018089913790;
  BAS[ATNO][  6].a[ 10] =         5.769686917100;     BAS[ATNO][  6].d[ 10] =         0.035027550673;
  BAS[ATNO][  6].a[ 11] =         1.219948394100;     BAS[ATNO][  6].d[ 11] =        -0.109322648387;
  BAS[ATNO][  6].a[ 12] =         7.141976295200;     BAS[ATNO][  6].d[ 12] =        -0.002084953589;
  BAS[ATNO][  6].a[ 13] =         5.769686917100;     BAS[ATNO][  6].d[ 13] =         0.004037101466;
  BAS[ATNO][  6].a[ 14] =         1.219948394100;     BAS[ATNO][  6].d[ 14] =        -0.012599985314;
  BAS[ATNO][  6].a[ 15] =         0.523660342500;     BAS[ATNO][  6].d[ 15] =         0.340182083239;
  BAS[ATNO][  6].a[ 16] =         0.523660342500;     BAS[ATNO][  6].d[ 16] =         0.172267541781;
  BAS[ATNO][  6].a[ 17] =         0.523660342500;     BAS[ATNO][  6].d[ 17] =        -0.020738069644;
  BAS[ATNO][  6].a[ 18] =         0.523660342500;     BAS[ATNO][  6].d[ 18] =        -0.197103445932;
  BAS[ATNO][  6].a[ 19] =         0.523660342500;     BAS[ATNO][  6].d[ 19] =        -0.022717163926;
  BAS[ATNO][  6].a[ 20] =         0.213848087700;     BAS[ATNO][  6].d[ 20] =         0.313531698880;
  BAS[ATNO][  6].a[ 21] =         0.213848087700;     BAS[ATNO][  6].d[ 21] =         0.158771839252;
  BAS[ATNO][  6].a[ 22] =         0.213848087700;     BAS[ATNO][  6].d[ 22] =        -0.019113417572;
  BAS[ATNO][  6].a[ 23] =         0.213848087700;     BAS[ATNO][  6].d[ 23] =        -0.181662060712;

  // Basis function   8 L = p
  InitBFNGauss(BAS[ATNO][  7]);
  BAS[ATNO][  7].l  = 1;
  BAS[ATNO][  7].ng = 8;
  BAS[ATNO][  7].a[  0] =        17.000000000000;     BAS[ATNO][  7].d[  0] =         0.005626414876;
  BAS[ATNO][  7].a[  1] =        12.008186536000;     BAS[ATNO][  7].d[  1] =        -0.017851765203;
  BAS[ATNO][  7].a[  2] =         5.027876058300;     BAS[ATNO][  7].d[  2] =         0.049268054304;
  BAS[ATNO][  7].a[  3] =         1.193712418400;     BAS[ATNO][  7].d[  3] =        -0.089446568839;
  BAS[ATNO][  7].a[  4] =         0.578897070500;     BAS[ATNO][  7].d[  4] =        -0.175763409677;
  BAS[ATNO][  7].a[  5] =         0.272251988000;     BAS[ATNO][  7].d[  5] =         0.105655603396;
  BAS[ATNO][  7].a[  6] =         0.100000000000;     BAS[ATNO][  7].d[  6] =        -0.127262138334;
  BAS[ATNO][  7].a[  7] =         0.041700000000;     BAS[ATNO][  7].d[  7] =         1.078477534161;

  // Basis function   9 L = p
  InitBFNGauss(BAS[ATNO][  8]);
  BAS[ATNO][  8].l  = 1;
  BAS[ATNO][  8].ng = 8;
  BAS[ATNO][  8].a[  0] =        17.000000000000;     BAS[ATNO][  8].d[  0] =         0.008808250682;
  BAS[ATNO][  8].a[  1] =        12.008186536000;     BAS[ATNO][  8].d[  1] =        -0.027947249978;
  BAS[ATNO][  8].a[  2] =         5.027876058300;     BAS[ATNO][  8].d[  2] =         0.077129998850;
  BAS[ATNO][  8].a[  3] =         1.193712418400;     BAS[ATNO][  8].d[  3] =        -0.140030164559;
  BAS[ATNO][  8].a[  4] =         0.578897070500;     BAS[ATNO][  8].d[  4] =        -0.131372655814;
  BAS[ATNO][  8].a[  5] =         0.272251988000;     BAS[ATNO][  8].d[  5] =        -0.526195838979;
  BAS[ATNO][  8].a[  6] =         0.100000000000;     BAS[ATNO][  8].d[  6] =         2.200146670935;
  BAS[ATNO][  8].a[  7] =         0.041700000000;     BAS[ATNO][  8].d[  7] =        -1.494476030861;

  // Basis function  10 L = p
  InitBFNGauss(BAS[ATNO][  9]);
  BAS[ATNO][  9].l  = 1;
  BAS[ATNO][  9].ng = 8;
  BAS[ATNO][  9].a[  0] =        17.000000000000;     BAS[ATNO][  9].d[  0] =         0.023395977042;
  BAS[ATNO][  9].a[  1] =        12.008186536000;     BAS[ATNO][  9].d[  1] =        -0.074231903982;
  BAS[ATNO][  9].a[  2] =         5.027876058300;     BAS[ATNO][  9].d[  2] =         0.204868338503;
  BAS[ATNO][  9].a[  3] =         1.193712418400;     BAS[ATNO][  9].d[  3] =        -0.371940199421;
  BAS[ATNO][  9].a[  4] =         0.578897070500;     BAS[ATNO][  9].d[  4] =        -1.530722677007;
  BAS[ATNO][  9].a[  5] =         0.272251988000;     BAS[ATNO][  9].d[  5] =         3.173204286716;
  BAS[ATNO][  9].a[  6] =         0.100000000000;     BAS[ATNO][  9].d[  6] =        -2.225696757667;
  BAS[ATNO][  9].a[  7] =         0.041700000000;     BAS[ATNO][  9].d[  7] =         0.824153200987;

  // Basis function  11 L = p
  InitBFNGauss(BAS[ATNO][ 10]);
  BAS[ATNO][ 10].l  = 1;
  BAS[ATNO][ 10].ng = 8;
  BAS[ATNO][ 10].a[  0] =        17.000000000000;     BAS[ATNO][ 10].d[  0] =         0.204427192586;
  BAS[ATNO][ 10].a[  1] =        12.008186536000;     BAS[ATNO][ 10].d[  1] =        -0.648616627728;
  BAS[ATNO][ 10].a[  2] =         5.027876058300;     BAS[ATNO][ 10].d[  2] =         1.790079517286;
  BAS[ATNO][ 10].a[  3] =         1.193712418400;     BAS[ATNO][ 10].d[  3] =        -3.249904487462;
  BAS[ATNO][ 10].a[  4] =         0.578897070500;     BAS[ATNO][ 10].d[  4] =         4.441197614562;
  BAS[ATNO][ 10].a[  5] =         0.272251988000;     BAS[ATNO][ 10].d[  5] =        -2.901003725347;
  BAS[ATNO][ 10].a[  6] =         0.100000000000;     BAS[ATNO][ 10].d[  6] =         1.238410332485;
  BAS[ATNO][ 10].a[  7] =         0.041700000000;     BAS[ATNO][ 10].d[  7] =        -0.430904629766;

  // Basis function  12 L = d
  InitBFNGauss(BAS[ATNO][ 11]);
  BAS[ATNO][ 11].l  = 2;
  BAS[ATNO][ 11].ng = 6;
  BAS[ATNO][ 11].a[  0] =         7.141976295200;     BAS[ATNO][ 11].d[  0] =        -0.024108806437;
  BAS[ATNO][ 11].a[  1] =         5.769686917100;     BAS[ATNO][ 11].d[  1] =         0.046681949342;
  BAS[ATNO][ 11].a[  2] =         1.219948394100;     BAS[ATNO][ 11].d[  2] =        -0.145696579860;
  BAS[ATNO][ 11].a[  3] =         0.523660342500;     BAS[ATNO][ 11].d[  3] =        -0.047125790203;
  BAS[ATNO][ 11].a[  4] =         0.213848087700;     BAS[ATNO][ 11].d[  4] =        -0.647372307483;
  BAS[ATNO][ 11].a[  5] =         0.080254256700;     BAS[ATNO][ 11].d[  5] =         1.266243991034;

  // Basis function  13 L = d
  InitBFNGauss(BAS[ATNO][ 12]);
  BAS[ATNO][ 12].l  = 2;
  BAS[ATNO][ 12].ng = 6;
  BAS[ATNO][ 12].a[  0] =         7.141976295200;     BAS[ATNO][ 12].d[  0] =        -0.018698460167;
  BAS[ATNO][ 12].a[  1] =         5.769686917100;     BAS[ATNO][ 12].d[  1] =         0.036205880725;
  BAS[ATNO][ 12].a[  2] =         1.219948394100;     BAS[ATNO][ 12].d[  2] =        -0.113000272414;
  BAS[ATNO][ 12].a[  3] =         0.523660342500;     BAS[ATNO][ 12].d[  3] =        -1.250306052229;
  BAS[ATNO][ 12].a[  4] =         0.213848087700;     BAS[ATNO][ 12].d[  4] =         1.866379088020;
  BAS[ATNO][ 12].a[  5] =         0.080254256700;     BAS[ATNO][ 12].d[  5] =        -0.753550819800;

  // Basis function  14 L = d
  InitBFNGauss(BAS[ATNO][ 13]);
  BAS[ATNO][ 13].l  = 2;
  BAS[ATNO][ 13].ng = 6;
  BAS[ATNO][ 13].a[  0] =         7.141976295200;     BAS[ATNO][ 13].d[  0] =        -0.318837020826;
  BAS[ATNO][ 13].a[  1] =         5.769686917100;     BAS[ATNO][ 13].d[  1] =         0.617365015288;
  BAS[ATNO][ 13].a[  2] =         1.219948394100;     BAS[ATNO][ 13].d[  2] =        -1.926825518667;
  BAS[ATNO][ 13].a[  3] =         0.523660342500;     BAS[ATNO][ 13].d[  3] =         2.315393204761;
  BAS[ATNO][ 13].a[  4] =         0.213848087700;     BAS[ATNO][ 13].d[  4] =        -1.255288798676;
  BAS[ATNO][ 13].a[  5] =         0.080254256700;     BAS[ATNO][ 13].d[  5] =         0.386298644375;

-------------------------------------------
RADIAL EXPECTATION VALUES <R**-3> TO <R**3>
-------------------------------------------
   0 :     0.000000     0.988251     0.952884     1.146219     1.438768     1.980924
   1 :     0.000000     0.149166     0.334883     3.569834    14.605356    67.571016
   2 :     0.283315     0.366376     0.556189     2.144459     5.495732    83.733022
   3 :     0.283321     0.366383     0.556196     2.144413     5.495436    83.724832
   4 :     0.000000     0.052848     0.183150     6.669977    48.884788   379.224241
   5 :     0.000000     0.173084     0.338982     4.128391    22.194532   145.783858
   6 :     0.000000     0.666471     0.703234     2.094334     6.856182    34.232479
   7 :     0.000000     5.191245     2.057883     0.582367     0.570444     1.656608
   8 :     0.000000    48.176733     5.620110     0.226375     0.066300     0.043206
   9 :     0.761591     0.756036     0.826891     1.341760     2.003048     3.333556
  10 :     0.761591     0.756036     0.826891     1.341760     2.003048     3.333555
  11 :     0.761591     0.756036     0.826891     1.341760     2.003048     3.333552
  12 :     0.283325     0.366387     0.556199     2.144396     5.495333    83.722236
  13 :     0.283329     0.366392     0.556204     2.144374     5.495207    83.719126
  14 :     0.283333     0.366394     0.556205     2.144375     5.495256    83.721319
  15 :     0.028821     0.060859     0.215235     5.356164    31.612363   201.773376
  16 :     0.028821     0.060859     0.215235     5.356167    31.612393   201.773631
  17 :     0.028821     0.060858     0.215235     5.356168    31.612406   201.773735
  18 :     0.059447     0.099764     0.264073     4.937255    29.731809   205.275429
  19 :     0.059447     0.099764     0.264073     4.937252    29.731780   205.275179
  20 :     0.059447     0.099764     0.264073     4.937251    29.731768   205.275066
  21 :     0.290346     0.314935     0.467704     3.033846    12.580517    67.786767
  22 :     0.290346     0.314935     0.467705     3.033846    12.580516    67.786764
  23 :     0.290346     0.314935     0.467705     3.033846    12.580517    67.786774
  24 :     9.810710     3.242620     1.441942     1.400840     4.005396    18.758179
  25 :     9.810710     3.242620     1.441942     1.400840     4.005396    18.758179
  26 :     9.810710     3.242620     1.441942     1.400840     4.005396    18.758179
  27 :     0.053515     0.090330     0.248638     4.840937    25.519153   707.766657
  28 :     0.053516     0.090331     0.248640     4.840926    25.519088   707.764976
  29 :     0.053516     0.090331     0.248639     4.840929    25.519106   707.765378
  30 :     0.053518     0.090334     0.248642     4.840910    25.518981   707.762039
  31 :     0.053520     0.090336     0.248644     4.840898    25.518908   707.760149
  32 :     0.228418     0.280815     0.453140     2.949139    10.974071   245.156379
  33 :     0.228420     0.280816     0.453142     2.949134    10.974045   245.155785
  34 :     0.228417     0.280814     0.453139     2.949142    10.974079   245.156381
  35 :     0.228417     0.280814     0.453139     2.949140    10.974065   245.155862
  36 :     0.228419     0.280816     0.453141     2.949133    10.974033   245.155185
  37 :     0.617976     0.613129     0.708455     1.842813     4.653355    80.414593
  38 :     0.617976     0.613129     0.708455     1.842813     4.653354    80.414588
  39 :     0.617976     0.613129     0.708455     1.842813     4.653355    80.414592
  40 :     0.617977     0.613130     0.708455     1.842813     4.653354    80.414586
  41 :     0.617977     0.613130     0.708455     1.842813     4.653354    80.414587
Making the total density                ... o.k.
o.k.
Initializing the integrals              ... done
Making exponents                        ... done
Making rho(0)                           ... done (         0.000010470)
Integral calculation                    ... Two index integrals                     ... done
Solving the equation system             ... done
atomic density will be written to file 73_Ta_atom73.adf

-------
TIMINGS
-------

Total SCF time: 0 days 0 hours 0 min 0 sec 

Total time                  ....       0.869 sec
Sum of individual times     ....       0.477 sec  ( 54.9%)

Fock matrix formation       ....       0.388 sec  ( 44.7%)
Diagonalization             ....       0.037 sec  (  4.3%)
Density matrix formation    ....       0.001 sec  (  0.1%)
Population analysis         ....       0.000 sec  (  0.0%)
Initial guess               ....       0.000 sec  (  0.1%)
Orbital Transformation      ....       0.000 sec  (  0.0%)
Orbital Orthonormalization  ....       0.000 sec  (  0.0%)
DIIS solution               ....       0.051 sec  (  5.9%)

-------------------------   --------------------
FINAL SINGLE POINT ENERGY       -56.271044062807
-------------------------   --------------------


                            ***************************************
                            *     ORCA property calculations      *
                            ***************************************

                                    ---------------------
                                    Active property flags
                                    ---------------------
   (+) Dipole Moment


------------------------------------------------------------------------------
                       ORCA ELECTRIC PROPERTIES CALCULATION
------------------------------------------------------------------------------

Dipole Moment Calculation                       ... on
Quadrupole Moment Calculation                   ... off
Polarizability Calculation                      ... off
GBWName                                         ... 73_Ta_atom73.gbw
Electron density file                           ... 73_Ta_atom73.scfp
The origin for moment calculation is the CENTER OF MASS  = ( 0.000000,  0.000000  0.000000)

-------------
DIPOLE MOMENT
-------------
                                X             Y             Z
Electronic contribution:     -0.00000      -0.00000      -0.00000
Nuclear contribution   :      0.00000       0.00000       0.00000
                        -----------------------------------------
Total Dipole Moment    :     -0.00000      -0.00000      -0.00000
                        -----------------------------------------
Magnitude (a.u.)       :      0.00000
Magnitude (Debye)      :      0.00000



--------------------
Rotational spectrum 
--------------------
 
Rotational constants in cm-1:     0.000000     0.000000     0.000000 
Rotational constants in MHz :     0.000000     0.000000     0.000000 

 Dipole components along the rotational axes: 
x,y,z [a.u.] :    -0.000000    -0.000000    -0.000000 
x,y,z [Debye]:    -0.000000    -0.000000    -0.000000 

 

Timings for individual modules:

Sum of individual times         ...        1.167 sec (=   0.019 min)
GTO integral calculation        ...        0.272 sec (=   0.005 min)  23.3 %
SCF iterations                  ...        0.895 sec (=   0.015 min)  76.7 %
                             ****ORCA TERMINATED NORMALLY****
TOTAL RUN TIME: 0 days 0 hours 0 minutes 1 seconds 388 msec
