
                                 *****************
                                 * O   R   C   A *
                                 *****************

           --- An Ab Initio, DFT and Semiempirical electronic structure package ---

                  #######################################################
                  #                        -***-                        #
                  #          Department of theory and spectroscopy      #
                  #               Directorship: Frank Neese             #
                  #        Max Planck Institute fuer Kohlenforschung    #
                  #                Kaiser Wilhelm Platz 1               #
                  #                 D-45470 Muelheim/Ruhr               #
                  #                      Germany                        #
                  #                                                     #
                  #                  All rights reserved                #
                  #                        -***-                        #
                  #######################################################


                         Program Version 4.2.0 -  RELEASE  -


 With contributions from (in alphabetic order):
   Daniel Aravena         : Magnetic Suceptibility
   Michael Atanasov       : Ab Initio Ligand Field Theory (pilot matlab implementation)
   Alexander A. Auer      : GIAO ZORA, VPT2
   Ute Becker             : Parallelization
   Giovanni Bistoni       : ED, misc. LED, open-shell LED, HFLED
   Martin Brehm           : Molecular dynamics
   Dmytro Bykov           : SCF Hessian
   Vijay G. Chilkuri      : MRCI spin determinant printing, contributions to CSF-ICE
   Dipayan Datta          : RHF DLPNO-CCSD density
   Achintya Kumar Dutta   : EOM-CC, STEOM-CC
   Dmitry Ganyushin       : Spin-Orbit,Spin-Spin,Magnetic field MRCI
   Miquel Garcia          : C-PCM Hessian, Gaussian charge scheme
   Yang Guo               : DLPNO-NEVPT2, CIM, IAO-localization
   Andreas Hansen         : Spin unrestricted coupled pair/coupled cluster methods
   Benjamin Helmich-Paris : CASSCF linear response (MC-RPA)
   Lee Huntington         : MR-EOM, pCC
   Robert Izsak           : Overlap fitted RIJCOSX, COSX-SCS-MP3, EOM
   Christian Kollmar      : KDIIS, OOCD, Brueckner-CCSD(T), CCSD density
   Simone Kossmann        : Meta GGA functionals, TD-DFT gradient, OOMP2, MP2 Hessian
   Martin Krupicka        : AUTO-CI
   Lucas Lang             : DCDCAS
   Dagmar Lenk            : GEPOL surface, SMD
   Dimitrios Liakos       : Extrapolation schemes; Compound Job, initial MDCI parallelization
   Dimitrios Manganas     : Further ROCIS development; embedding schemes
   Dimitrios Pantazis     : SARC Basis sets
   Taras Petrenko         : DFT Hessian,TD-DFT gradient, ASA, ECA, R-Raman, ABS, FL, XAS/XES, NRVS
   Peter Pinski           : DLPNO-MP2, DLPNO-MP2 Gradient
   Christoph Reimann      : Effective Core Potentials
   Marius Retegan         : Local ZFS, SOC
   Christoph Riplinger    : Optimizer, TS searches, QM/MM, DLPNO-CCSD(T), (RO)-DLPNO pert. Triples
   Tobias Risthaus        : Range-separated hybrids, TD-DFT gradient, RPA, STAB
   Michael Roemelt        : Original ROCIS implementation
   Masaaki Saitow         : Open-shell DLPNO-CCSD energy and density
   Barbara Sandhoefer     : DKH picture change effects
   Avijit Sen             : IP-ROCIS
   Kantharuban Sivalingam : CASSCF convergence, NEVPT2, FIC-MRCI
   Bernardo de Souza      : ESD, SOC TD-DFT
   Georgi Stoychev        : AutoAux, RI-MP2 NMR
   Willem Van den Heuvel  : Paramagnetic NMR
   Boris Wezisla          : Elementary symmetry handling
   Frank Wennmohs         : Technical directorship


 We gratefully acknowledge several colleagues who have allowed us to
 interface, adapt or use parts of their codes:
   Stefan Grimme, W. Hujo, H. Kruse,             : VdW corrections, initial TS optimization,
                  C. Bannwarth                     DFT functionals, gCP, sTDA/sTD-DF
   Ed Valeev, F. Pavosevic, A. Kumar             : LibInt (2-el integral package), F12 methods
   Garnet Chan, S. Sharma, J. Yang, R. Olivares  : DMRG
   Ulf Ekstrom                                   : XCFun DFT Library
   Mihaly Kallay                                 : mrcc  (arbitrary order and MRCC methods)
   Andreas Klamt, Michael Diedenhofen            : otool_cosmo (COSMO solvation model)
   Jiri Pittner, Ondrej Demel                    : Mk-CCSD
   Frank Weinhold                                : gennbo (NPA and NBO analysis)
   Christopher J. Cramer and Donald G. Truhlar   : smd solvation model
   Lars Goerigk                                  : TD-DFT with DH, B97 family of functionals
   V. Asgeirsson, H. Jonsson                     : NEB implementation
   FAccTs GmbH                                   : IRC, NEB, NEB-TS, Multilevel, MM, QM/MM, CI optimization
   S Lehtola, MJT Oliveira, MAL Marques          : LibXC Library


 Your calculation uses the libint2 library for the computation of 2-el integrals
 For citations please refer to: http://libint.valeyev.net

 Your ORCA version has been built with support for libXC version: 4.2.3
 For citations please refer to: https://tddft.org/programs/libxc/

 This ORCA versions uses:
   CBLAS   interface :  Fast vector & matrix operations
   LAPACKE interface :  Fast linear algebra routines
   SCALAPACK package :  Parallel linear algebra routines


----- Orbital basis set information -----
Your calculation utilizes the basis: def2-SVP
   F. Weigend and R. Ahlrichs, Phys. Chem. Chem. Phys. 7, 3297 (2005).

----- AuxJ basis set information -----
Your calculation utilizes the auxiliary basis: def2/J
   F. Weigend, Phys. Chem. Chem. Phys. 8, 1057 (2006).

================================================================================
                                        WARNINGS
                       Please study these warnings very carefully!
================================================================================


INFO   : the flag for use of LIBINT has been found!

================================================================================
                                       INPUT FILE
================================================================================
NAME = 75_Re_atom75.inp
|  1> # input to generate an atomic fitting density for Re
|  2> # this file is use internally by ORCA
|  3> #
|  4> # atomic ground state (S=6): 1s2 2s2 2p6 3s2 3p6 4s2 3d10 4p6 5s2 4d10 5p6 6s2 4f14 5d5 
|  5> #
|  6> ! RHF AllowRHF def2-SVP def2/J  NoMulliken NoLoewdin NoMayer NoPrintMOs 
|  7> 
|  8> %output print[p_atomdensfit] 2 end
|  9> 
| 10> %scf
| 11>   guess hcore
| 12>   maxiter 1000
| 13>   maxdisk 500000
| 14>   SCFMode Conventional
| 15>   lshift 0.500000
| 16>   hftyp rohf
| 17>   rohf_case sahf
| 18>   rohf_numop   2
| 19>   rohf_norb[1] 5
| 20>   rohf_nel[1]  5
| 21> end
| 22> 
| 23> %basis
| 24>   NewECP 75
| 25>     N_core 60
| 26>     lmax f
| 27>     s 3
| 28>       1      14.0993051000   1038.9515723000  2
| 29>       2       7.0496525000     29.5617383000  2
| 30>       3       2.5086506000    -16.4498523000  2
| 31>     p 3
| 32>       1      10.1077169000    339.5435096000  2
| 33>       2       5.0538583000     24.9136965000  2
| 34>       3       2.5086506000    -16.4498523000  2
| 35>     d 3
| 36>       1       6.8486179000    111.6996527000  2
| 37>       2       3.4243090000     12.6243293000  2
| 38>       3       2.5086506000    -16.4498523000  2
| 39>     f 1
| 40>       1       2.5086506000     16.4498523000  2
| 41>   end
| 42>   NewGTO 75
| 43>     s 4 
| 44>      1      24.0000000000      2.6150378908
| 45>      2      18.2042627490    -13.1482597401
| 46>      3      14.0481924870     18.4275193491
| 47>      4       9.5166786954     -7.3333962699
| 48>     s 1 
| 49>      1       4.1714667981      1.0000000000
| 50>     s 1 
| 51>      1       1.1944213976      1.0000000000
| 52>     s 1 
| 53>      1       0.5675544780      1.0000000000
| 54>     s 1 
| 55>      1       0.1753385487      1.0000000000
| 56>     s 1 
| 57>      1       0.0820142505      1.0000000000
| 58>     s 1 
| 59>      1       0.0346078927      1.0000000000
| 60>     p 4 
| 61>      1      18.0000000000     -0.0654422411
| 62>      2      12.3186062500      0.2426593672
| 63>      3       5.3719234505     -0.7127910952
| 64>      4       1.3506646748      1.2524914706
| 65>     p 1 
| 66>      1       0.6621281681      1.0000000000
| 67>     p 1 
| 68>      1       0.3107138519      1.0000000000
| 69>     p 1 
| 70>      1       0.1080000000      1.0000000000
| 71>     p 1 
| 72>      1       0.0450000000      1.0000000000
| 73>     d 3 
| 74>      1       7.7352877672      0.1637238665
| 75>      2       6.0949443610     -0.3458277141
| 76>      3       1.3871105497      1.0779055520
| 77>     d 1 
| 78>      1       0.6232402785      1.0000000000
| 79>     d 1 
| 80>      1       0.2651732855      1.0000000000
| 81>     d 1 
| 82>      1       0.1032109685      1.0000000000
| 83>   end
| 84>   NewAuxGTO 75
| 85>     S 1
| 86>      1 1310.72 1.0
| 87>     S 1
| 88>      1  655.36 1.0
| 89>     S 1
| 90>      1  327.68 1.0
| 91>     S 1
| 92>      1  163.84 1.0
| 93>     S 1
| 94>      1   81.82 1.0
| 95>     S 1
| 96>      1   40.96 1.0
| 97>     S 1
| 98>      1   20.48 1.0
| 99>     S 1
|100>      1   10.24 1.0
|101>     S 1
|102>      1    5.12 1.0
|103>     S 1
|104>      1    2.56 1.0
|105>     S 1
|106>      1    1.28 1.0
|107>     S 1
|108>      1    0.64 1.0
|109>     S 1
|110>      1    0.32 1.0
|111>     S 1
|112>      1    0.16 1.0
|113>     S 1
|114>      1    0.08 1.0
|115>     S 1
|116>      1    0.04 1.0
|117>     S 1
|118>      1    0.02 1.0
|119>     S 1
|120>      1    0.01 1.0
|121>   end
|122> end
|123> 
|124> * xyz 0 6
|125> 75  0.0 0.0 0.0
|126> *
|127> 
|128> 
|129>                          ****END OF INPUT****
================================================================================

                       ****************************
                       * Single Point Calculation *
                       ****************************

---------------------------------
CARTESIAN COORDINATES (ANGSTROEM)
---------------------------------
  Re     0.000000    0.000000    0.000000

----------------------------
CARTESIAN COORDINATES (A.U.)
----------------------------
  NO LB      ZA    FRAG     MASS         X           Y           Z
   0 Re   15.0000*   0   186.207    0.000000    0.000000    0.000000
* core charge reduced due to ECP

--------------------------------
INTERNAL COORDINATES (ANGSTROEM)
--------------------------------
 Re     0   0   0     0.000000000000     0.00000000     0.00000000

---------------------------
INTERNAL COORDINATES (A.U.)
---------------------------
 Re     0   0   0     0.000000000000     0.00000000     0.00000000

---------------------
BASIS SET INFORMATION
---------------------
There are 1 groups of distinct atoms

 Group   1 Type Re  : 10s8p6d contracted to 7s5p4d pattern {4111111/41111/3111}

Atom   0Re   basis set group =>   1
---------------------------------
AUXILIARY/J BASIS SET INFORMATION
---------------------------------
There are 1 groups of distinct atoms

 Group   1 Type Re  : 18s contracted to 18s pattern {111111111111111111}

Atom   0Re   basis set group =>   1
-------------------------
ECP PARAMETER INFORMATION
-------------------------

 Group 1, Type Re ECP (replacing 60 core electrons, lmax=3)

Atom   0Re   ECP group =>   1

------------------------------------------------------------------------------
                           ORCA GTO INTEGRAL CALCULATION
------------------------------------------------------------------------------

                         BASIS SET STATISTICS AND STARTUP INFO

 # of primitive gaussian shells          ...   24
 # of primitive gaussian functions       ...   64
 # of contracted shells                  ...   16
 # of contracted basis functions         ...   42
 Highest angular momentum                ...    2
 Maximum contraction depth               ...    4
 Integral package used                   ... LIBINT
 Integral threshhold            Thresh   ...  1.000e-10
 Primitive cut-off              TCut     ...  1.000e-11
 Storage cut-off                TCutStore... -1.000e+00
 Buffer length                           ... 1048576 integrals/buffer
 Generate file with integrals 4 distinct ...false


------------------------------ INTEGRAL EVALUATION ----------------------------


 * One electron integrals 

   ECP integrals                         ... done
 Pre-screening matrix                    ... done
 Shell pair data                         ... done (   0.000 sec)
 Statistics run                          ... done
 Maximum amount of storage needed        ...     4 MB
 Maximum amount of storage dedicated     ... 500000 MB
 Beginning two electron integral evaluation:
 Starting repulsion integrals
  <ss|ss>  ...          406 b.         0 skpd (  0.0%)     0.000 s. (  0.000 ms/b)
  <ss|sp>  ...          980 b.         0 skpd (  0.0%)     0.000 s. (  0.000 ms/b)
  <ss|sd>  ...          784 b.         0 skpd (  0.0%)     0.000 s. (  0.000 ms/b)
  <ss|pp>  ...          420 b.         0 skpd (  0.0%)     0.000 s. (  0.001 ms/b)
  <ss|pd>  ...          560 b.         0 skpd (  0.0%)     0.000 s. (  0.001 ms/b)
  <ss|dd>  ...          280 b.         0 skpd (  0.0%)     0.000 s. (  0.001 ms/b)
  <sp|sp>  ...          630 b.         0 skpd (  0.0%)     0.000 s. (  0.001 ms/b)
  <sp|sd>  ...          980 b.         0 skpd (  0.0%)     0.001 s. (  0.001 ms/b)
  <sp|pp>  ...          525 b.         0 skpd (  0.0%)     0.001 s. (  0.001 ms/b)
  <sp|pd>  ...          700 b.         0 skpd (  0.0%)     0.001 s. (  0.002 ms/b)
  <sp|dd>  ...          350 b.         0 skpd (  0.0%)     0.001 s. (  0.003 ms/b)
  <sd|sd>  ...          406 b.         0 skpd (  0.0%)     0.001 s. (  0.001 ms/b)
  <sd|pp>  ...          420 b.         0 skpd (  0.0%)     0.001 s. (  0.002 ms/b)
  <sd|pd>  ...          560 b.         0 skpd (  0.0%)     0.002 s. (  0.003 ms/b)
  <sd|dd>  ...          280 b.         0 skpd (  0.0%)     0.002 s. (  0.007 ms/b)
  <pp|pp>  ...          120 b.         0 skpd (  0.0%)     0.000 s. (  0.004 ms/b)
  <pp|pd>  ...          300 b.         0 skpd (  0.0%)     0.002 s. (  0.005 ms/b)
  <pp|dd>  ...          150 b.         0 skpd (  0.0%)     0.001 s. (  0.010 ms/b)
  <pd|pd>  ...          210 b.         0 skpd (  0.0%)     0.002 s. (  0.010 ms/b)
  <pd|dd>  ...          200 b.         0 skpd (  0.0%)     0.004 s. (  0.018 ms/b)
  <dd|dd>  ...           55 b.         0 skpd (  0.0%)     0.002 s. (  0.040 ms/b)


                                      INTEGRAL STATISTICS

Integral type statistics:
 Number of integrals retained            ...     408156 
 One   Center Integrals retained         ...     408156 (100.0%)
 Two   Center Integrals retained         ...          0 (  0.0%)
 Three Center Integrals retained         ...          0 (  0.0%)
 Four  Center Integrals retained         ...          0 (  0.0%)

Storage statistics:
 Number of char integrals                ...          0 (  0.0%)
 Number of short int integrals           ...          0 (  0.0%)
 Number of double/float integrals        ...     408156 (100.0%)
 Amount of memory used                   ...          5 MB
 Amount of memory estimated              ...          4 MB ( 95.1%)

Prescreening statistics:
 Total number of shell quadruples        ...       9316 
 Number of skipped shell quadruples      ...          0 (  0.0%)
 # of negligible batches done            ...          0 (  0.0%)

Timings:
 Total evaluation time               ...     0.187 sec (   0.003 min)
 One electron matrix time            ...     0.016 sec (   0.000 min) =  8.8%
 Schwartz matrix evaluation time     ...     0.073 sec (   0.001 min) = 38.9%
 Statistics run                      ...     0.003 sec (   0.000 min) =  1.7%
 Repulsion integral time             ...     0.022 sec (   0.000 min) = 11.9%

-------------------------------------------------------------------------------
                                 ORCA SCF
-------------------------------------------------------------------------------

------------
SCF SETTINGS
------------
Hamiltonian:
 Ab initio Hamiltonian  Method          .... Hartree-Fock(GTOs)


General Settings:
 Integral files         IntName         .... 75_Re_atom75
 Hartree-Fock type      HFTyp           .... ROHF
 Total Charge           Charge          ....    0
 Multiplicity           Mult            ....    6
 Number of Electrons    NEL             ....   15
 Basis Dimension        Dim             ....   42
 Nuclear Repulsion      ENuc            ....      0.0000000000 Eh

Convergence Acceleration:
 DIIS                   CNVDIIS         .... on
   Start iteration      DIISMaxIt       ....    12
   Startup error        DIISStart       ....  0.200000
   # of expansion vecs  DIISMaxEq       ....     5
   Bias factor          DIISBfac        ....   1.050
   Max. coefficient     DIISMaxC        ....  10.000
 Newton-Raphson         CNVNR           .... off
 SOSCF                  CNVSOSCF        .... off
 Level Shifting         CNVShift        .... on
   Level shift para.    LevelShift      ....    0.5000
   Turn off err/grad.   ShiftErr        ....    0.0010
 Zerner damping         CNVZerner       .... off
 Static damping         CNVDamp         .... on
   Fraction old density DampFac         ....    0.7000
   Max. Damping (<1)    DampMax         ....    0.9800
   Min. Damping (>=0)   DampMin         ....    0.0000
   Turn off err/grad.   DampErr         ....    0.1000
 Fernandez-Rico         CNVRico         .... off

SCF Procedure:
 Maximum # iterations   MaxIter         ....  1000
 SCF integral mode      SCFMode         .... Conventional
 Integral Threshold     Thresh          ....  1.000e-10 Eh
 Primitive CutOff       TCut            ....  1.000e-11 Eh
 Integral Buffer length BufferLength    .... 1048576
 Integral index format  IndFormat       ....     0
 Integral value format  ValFormat       ....     0
 Integral Storage       Thresh          ....  1.000e-10 Eh

Convergence Tolerance:
 Convergence Check Mode ConvCheckMode   .... Total+1el-Energy
 Convergence forced     ConvForced      .... 0
 Energy Change          TolE            ....  1.000e-06 Eh
 1-El. energy change                    ....  1.000e-03 Eh
 DIIS Error             TolErr          ....  1.000e-06


Diagonalization of the overlap matrix:
Smallest eigenvalue                        ... 5.960e-03
Time for diagonalization                   ...    0.001 sec
Threshold for overlap eigenvalues          ... 1.000e-08
Number of eigenvalues below threshold      ... 0
Time for construction of square roots      ...    0.002 sec
Total time needed                          ...    0.003 sec

--------------------
INITIAL GUESS: HCORE
--------------------
AVERAGE-CONFIGURATION (SAHF) CASE FOUND

-------------------
FINAL ROHF SETTINGS
-------------------
Number of operators             ... 2
  operator   0:   5 orbitals  10 electrons n(mue)= 2.000
  operator   1:   5 orbitals   5 electrons n(mue)= 1.000
Vector coupling coefficients a and b (Zerner convention):
   1.000    1.000           1.000    1.000 
   1.000    1.000           1.000    2.000 

                      -----------------
                      INTIAL GUESS DONE 
                      -----------------

 InCore treatment chosen:
   Memory dedicated               ...    1024 MB
   Memory needed                  ...      5 MB
   Number of tiny    integrals    ...       0
   Number of small   integrals    ...       0
   Number of regular integrals    ...  408156

--------------
SCF ITERATIONS
--------------
ITER       Energy         Delta-E        Max-DP      RMS-DP      [F,P]     Damp
  0    -70.2730835109   0.000000000000 2.67849736  0.07698027  1.2534604 0.7000
  1    -75.0144304106  -4.741346899660 1.87498000  0.05127967  0.2582369 0.7000
                            ****Activating DIIS****
  2    -74.9845583047   0.029872105841 1.31087152  0.03300262  0.1038068 0.7000
  3    -75.0776115580  -0.093053253231 0.91829157  0.02378463  0.1084629 0.7000
  4    -75.0148689509   0.062742607048 0.64231510  0.01615214  0.1894785 0.7000
  5    -75.0334508891  -0.018581938166 0.44936302  0.01112462  0.2393154 0.7000
  6    -75.0451819944  -0.011731105276 0.31424285  0.00771821  0.2852075 0.7000
  7    -75.0890097960  -0.043827801588 0.21794338  0.00626345  0.2929264 0.7000
  8    -75.2394481714  -0.150438375438 0.30874420  0.00989255  0.2780378 0.7000
  9    -74.9681005817   0.271347589736 0.44917731  0.01389108  0.3368414 0.7000
 10    -75.6205863771  -0.652485795460 0.63777627  0.02263065  0.1927666 0.7000
 11    -76.8082009096  -1.187614532435 1.69025628  0.05573600  0.0996137 0.0000
 12    -77.1472846719  -0.339083762293 0.01595969  0.00042220  0.2062884 0.7000
 13    -77.1782920679  -0.031007396000 0.01496588  0.00039412  0.1868513 0.7000
 14    -77.1933286215  -0.015036553681 0.02392239  0.00070946  0.1801310 0.7000
 15    -77.2146464967  -0.021317875161 0.02750009  0.00096927  0.1725405 0.7000
 16    -77.1385678779   0.076078618766 0.06339561  0.00256237  0.2242870 0.7000
 17    -77.3448848038  -0.206316925871 0.21783640  0.00798721  0.0565020 0.0000
 18    -77.4159941174  -0.071109313577 0.18864413  0.00441193  0.0477480 0.0000
 19    -77.4371487779  -0.021154660504 0.21763284  0.00564821  0.0255073 0.0000
 20    -77.4528369835  -0.015688205579 0.14043687  0.00420515  0.0152391 0.0000
 21    -77.4592762600  -0.006439276493 0.08111178  0.00197909  0.0135071 0.0000
 22    -77.4605563667  -0.001280106714 0.05848210  0.00134246  0.0131683 0.0000
 23    -77.4611341041  -0.000577737453 0.02861517  0.00065114  0.0123511 0.0000
 24    -77.4612628875  -0.000128783381 0.02410000  0.00053785  0.0123399 0.0000
 25    -77.4613267702  -0.000063882748 0.01899829  0.00042293  0.0123419 0.0000
 26    -77.4613601045  -0.000033334277 0.01357556  0.00030162  0.0123556 0.0000
 27    -77.4613760710  -0.000015966456 0.00761025  0.00017126  0.0123686 0.0000
 28    -77.4613846928  -0.000008621862 0.00017630  0.00001691  0.0123913 0.0000
 29    -77.4613897966  -0.000005103788 0.00248198  0.00005384  0.0124021 0.0000
 30    -77.4613923247  -0.000002528094 0.00126561  0.00002743  0.0124078 0.0000
 31    -77.4613935583  -0.000001233578 0.00007157  0.00000616  0.0124120 0.0000
 32    -77.4613946957  -0.000001137397 0.00039918  0.00001166  0.0124162 0.0000
 33    -77.4613958580  -0.000001162334 0.00017675  0.00000765  0.0124210 0.0000
                 **** Energy Check signals convergence ****

               *****************************************************
               *                     SUCCESS                       *
               *           SCF CONVERGED AFTER  34 CYCLES          *
               *****************************************************


----------------
TOTAL SCF ENERGY
----------------

Total Energy       :          -77.46139676 Eh           -2107.83177 eV

Components:
Nuclear Repulsion  :            0.00000000 Eh               0.00000 eV
Electronic Energy  :          -77.46139676 Eh           -2107.83177 eV
One Electron Energy:         -133.62165334 Eh           -3636.03004 eV
Two Electron Energy:           56.16025658 Eh            1528.19827 eV

Virial components:
Potential Energy   :         -104.50223465 Eh           -2843.65037 eV
Kinetic Energy     :           27.04083789 Eh             735.81861 eV
Virial Ratio       :            3.86460786


---------------
SCF CONVERGENCE
---------------

  Last Energy change         ...   -9.0520e-07  Tolerance :   1.0000e-06
  Last MAX-Density change    ...    5.2749e-05  Tolerance :   1.0000e-05
  Last RMS-Density change    ...    5.1506e-06  Tolerance :   1.0000e-06
  Last DIIS Error            ...    1.2425e-02  Tolerance :   1.0000e-06

             **** THE GBW FILE WAS UPDATED (75_Re_atom75.gbw) ****
             **** DENSITY FILE WAS UPDATED (75_Re_atom75.scfp) ****
             **** ENERGY FILE WAS UPDATED (75_Re_atom75.en.tmp) ****
             **** THE GBW FILE WAS UPDATED (75_Re_atom75.gbw) ****
             **** DENSITY FILE WAS UPDATED (75_Re_atom75.scfp) ****
----------------
ORBITAL ENERGIES
----------------

  NO   OCC          E(Eh)            E(eV) 
   0   2.0000      -3.582312       -97.4797 
   1   2.0000      -1.992176       -54.2099 
   2   2.0000      -1.983679       -53.9787 
   3   2.0000      -1.980639       -53.8959 
   4   2.0000      -0.258277        -7.0281 
   5   1.0000      -0.366492        -9.9728 
   6   1.0000      -0.359733        -9.7888 
   7   1.0000      -0.354586        -9.6488 
   8   1.0000      -0.339280        -9.2323 
   9   1.0000      -0.286914        -7.8073 
  10   0.0000       0.039246         1.0679 
  11   0.0000       0.046015         1.2521 
  12   0.0000       0.048315         1.3147 
  13   0.0000       0.113149         3.0789 
  14   0.0000       0.262742         7.1496 
  15   0.0000       0.275612         7.4998 
  16   0.0000       0.279871         7.6157 
  17   0.0000       0.339637         9.2420 
  18   0.0000       0.341282         9.2867 
  19   0.0000       0.343250         9.3403 
  20   0.0000       0.357191         9.7197 
  21   0.0000       0.349171         9.5014 
  22   0.0000       0.627263        17.0687 
  23   0.0000       1.197659        32.5900 
  24   0.0000       1.222302        33.2605 
  25   0.0000       1.230761        33.4907 
  26   0.0000       1.333254        36.2797 
  27   0.0000       1.335989        36.3541 
  28   0.0000       1.339743        36.4563 
  29   0.0000       1.370161        37.2840 
  30   0.0000       1.350833        36.7580 
  31   0.0000       3.051459        83.0344 
  32   0.0000       4.861443       132.2866 
  33   0.0000       4.864613       132.3729 
  34   0.0000       4.869479       132.5053 
  35   0.0000       4.883074       132.8752 
  36   0.0000       4.907068       133.5281 
  37   0.0000      38.799274      1055.7819 
  38   0.0000      38.818340      1056.3007 
  39   0.0000      38.825434      1056.4938 
  40   0.0000      73.594693      2002.6134 
  41   0.0000     530.787480     14443.4616 
CleanUpVectors: The p-vectors have cracked symmetry
CleanUpVectors: The p-vectors have cracked symmetry
CleanUpVectors: The p-vectors have cracked symmetry
CleanUpVectors: The d-vectors have cracked symmetry at i=4
CleanUpVectors: The d-vectors have cracked symmetry at i=6
CleanUpVectors: The d-vectors have cracked symmetry at i=7
CleanUpVectors: The d-vectors have cracked symmetry at i=8
CleanUpVectors: The d-vectors have cracked symmetry at i=9
CleanUpVectors: The p-vectors have cracked symmetry
CleanUpVectors: The p-vectors have cracked symmetry
CleanUpVectors: The p-vectors have cracked symmetry
CleanUpVectors: The p-vectors have cracked symmetry
CleanUpVectors: The p-vectors have cracked symmetry
CleanUpVectors: The p-vectors have cracked symmetry
CleanUpVectors: The d-vectors have cracked symmetry at i=17
CleanUpVectors: The d-vectors have cracked symmetry at i=18
CleanUpVectors: The d-vectors have cracked symmetry at i=19
CleanUpVectors: The d-vectors have cracked symmetry at i=20
CleanUpVectors: The d-vectors have cracked symmetry at i=21
CleanUpVectors: The p-vectors have cracked symmetry
CleanUpVectors: The p-vectors have cracked symmetry
CleanUpVectors: The p-vectors have cracked symmetry
CleanUpVectors: The d-vectors have cracked symmetry at i=26
CleanUpVectors: The d-vectors have cracked symmetry at i=27
CleanUpVectors: The d-vectors have cracked symmetry at i=28
CleanUpVectors: The d-vectors have cracked symmetry at i=29
CleanUpVectors: The d-vectors have cracked symmetry at i=30
CleanUpVectors: The d-vectors have cracked symmetry at i=32
CleanUpVectors: The d-vectors have cracked symmetry at i=33
CleanUpVectors: The d-vectors have cracked symmetry at i=34
CleanUpVectors: The d-vectors have cracked symmetry at i=35
CleanUpVectors: The d-vectors have cracked symmetry at i=36
CleanUpVectors: The p-vectors have cracked symmetry
CleanUpVectors: The p-vectors have cracked symmetry
CleanUpVectors: The p-vectors have cracked symmetry
--------------------------
ATOM BASIS FOR ELEMENT Re
--------------------------
 NewGTO Re
 S 10
    1         24.000000000000         0.262730920757
    2         18.204262749000        -1.320995921330
    3         14.048192487000         1.851399225568
    4          9.516678695400        -0.736780893709
    5          4.171466798100        -0.664668054103
    6          1.194421397600         0.815242325103
    7          0.567554478000         0.540574233025
    8          0.175338548700         0.040006501349
    9          0.082014250500        -0.014343679144
   10          0.034607892700         0.001147008506
 P 24
    1         18.000000000000         0.004448780684
    2         12.318606250000        -0.016496047315
    3          5.371923450500         0.048455725274
    4          1.350664674800        -0.085144698097
    5         18.000000000000        -0.008630265282
    6         12.318606250000         0.032000962634
    7          5.371923450500        -0.094000085249
    8          1.350664674800         0.165173647374
    9         18.000000000000         0.024967393483
   10         12.318606250000        -0.092578918468
   11          5.371923450500         0.271942638969
   12          1.350664674800        -0.477848051267
   13          0.662128168100        -0.081073316280
   14          0.662128168100         0.157275504570
   15          0.662128168100        -0.454998691169
   16          0.310713851900        -0.026896339738
   17          0.310713851900         0.052176666719
   18          0.310713851900        -0.150947314598
   19          0.108000000000        -0.001409774993
   20          0.108000000000         0.002734846477
   21          0.108000000000        -0.007911922272
   22          0.045000000000         0.000007151140
   23          0.045000000000        -0.000013872617
   24          0.045000000000         0.000040133539
 D 24
    1         24.000000000000         0.000020786872
    2         18.204262749000        -0.000137789959
    3         14.048192487000         0.000250246965
    4          9.516678695400        -0.000147008396
    5          4.171466798100        -0.000330986102
    6          1.194421397600         0.001987946508
    7          0.567554478000         0.002810837331
    8          0.175338548700        -0.014132184609
    9          0.082014250500        -0.029886426742
   10          0.034607892700         0.031444938764
   11          7.735287767200         0.020346049789
   12          6.094944361000        -0.042976189361
   13          1.387110549700         0.133951881897
   14          7.735287767200        -0.026715645728
   15          6.094944361000         0.056430445299
   16          1.387110549700        -0.175887263541
   17          7.735287767200        -0.014478821009
   18          6.094944361000         0.030583064519
   19          1.387110549700        -0.095323924885
   20          7.735287767200        -0.008343119048
   21          6.094944361000         0.017622853958
   22          1.387110549700        -0.054928426348
   23          7.735287767200        -0.000131434487
   24          6.094944361000         0.000277624081
 S 10
    1         24.000000000000         0.419646205523
    2         18.204262749000        -2.109956925893
    3         14.048192487000         2.957142074025
    4          9.516678695400        -1.176821157769
    5          4.171466798100        -1.348763312114
    6          1.194421397600         5.557094705012
    7          0.567554478000        -6.589938291169
    8          0.175338548700         4.653747117712
    9          0.082014250500        -3.038303175955
   10          0.034607892700         0.831518556045
 S 10
    1         24.000000000000         2.078972339201
    2         18.204262749000       -10.452953054510
    3         14.048192487000        14.649999199495
    4          9.516678695400        -5.830098313741
    5          4.171466798100        -1.928311192286
    6          1.194421397600         2.394805574843
    7          0.567554478000        -1.873471679584
    8          0.175338548700         1.028663634859
    9          0.082014250500        -0.666323559841
   10          0.034607892700         0.186855051984
 S 10
    1         24.000000000000         2.288657232765
    2         18.204262749000       -11.507236609580
    3         14.048192487000        16.127596310787
    4          9.516678695400        -6.418121310167
    5          4.171466798100         0.240175968053
    6          1.194421397600         0.321507838142
    7          0.567554478000        -0.282240828492
    8          0.175338548700         0.164286901311
    9          0.082014250500        -0.107941358001
   10          0.034607892700         0.030504629757
 D 24
    1          7.735287767200        -0.005035923447
    2          6.094944361000         0.010637190113
    3          1.387110549700        -0.033154908681
    4          7.735287767200         0.000116907092
    5          6.094944361000        -0.000246938417
    6          1.387110549700         0.000769678889
    7          7.735287767200        -0.017708544315
    8          6.094944361000         0.037405086572
    9          1.387110549700        -0.116587389748
   10          7.735287767200         0.018522327491
   11          6.094944361000        -0.039124009914
   12          1.387110549700         0.121945077805
   13          7.735287767200        -0.028299554933
   14          6.094944361000         0.059776076645
   15          1.387110549700        -0.186315214963
   16          0.623240278500        -0.054704889738
   17          0.623240278500         0.001269953695
   18          0.623240278500        -0.192366697867
   19          0.623240278500         0.201206768496
   20          0.623240278500        -0.307416117150
   21          0.265173285500        -0.049313941045
   22          0.265173285500         0.001144804823
   23          0.265173285500        -0.173409727048
   24          0.265173285500         0.181378643975
 P 24
    1         18.000000000000         0.003511535572
    2         12.318606250000        -0.013020749066
    3          5.371923450500         0.038247334502
    4          1.350664674800        -0.067206872476
    5         18.000000000000        -0.001555450252
    6         12.318606250000         0.005767598535
    7          5.371923450500        -0.016941826412
    8          1.350664674800         0.029769582168
    9         18.000000000000        -0.001163357318
   10         12.318606250000         0.004313720710
   11          5.371923450500        -0.012671184898
   12          1.350664674800         0.022265360937
   13          0.662128168100        -0.131948842630
   14          0.662128168100         0.058447324923
   15          0.662128168100         0.043714109854
   16          0.310713851900         0.109571829371
   17          0.310713851900        -0.048535327677
   18          0.310713851900        -0.036300697229
   19          0.108000000000        -0.237575777035
   20          0.108000000000         0.105235243883
   21          0.108000000000         0.078707879577
   22          0.045000000000         1.031398101566
   23          0.045000000000        -0.456862362457
   24          0.045000000000        -0.341697956699
 P 24
    1         18.000000000000         0.006606727519
    2         12.318606250000        -0.024497698919
    3          5.371923450500         0.071959891117
    4          1.350664674800        -0.126445392564
    5         18.000000000000        -0.002926479250
    6         12.318606250000         0.010851364362
    7          5.371923450500        -0.031874952851
    8          1.350664674800         0.056009547314
    9         18.000000000000        -0.002188781704
   10         12.318606250000         0.008115987078
   11          5.371923450500        -0.023840016500
   12          1.350664674800         0.041890839442
   13          0.662128168100        -0.107791973883
   14          0.662128168100         0.047746932797
   15          0.662128168100         0.035711038414
   16          0.310713851900        -0.429342391121
   17          0.310713851900         0.190179115915
   18          0.310713851900         0.142239371537
   19          0.108000000000         1.868172777552
   20          0.108000000000        -0.827515415572
   21          0.108000000000        -0.618917971525
   22          0.045000000000        -1.220390483318
   23          0.045000000000         0.540577375978
   24          0.045000000000         0.404310356879
 D 24
    1          7.735287767200        -0.006508660038
    2          6.094944361000         0.013747995761
    3          1.387110549700        -0.042850935179
    4          7.735287767200         0.008954298578
    5          6.094944361000        -0.018913825302
    6          1.387110549700         0.058952236825
    7          7.735287767200        -0.019844412840
    8          6.094944361000         0.041916600656
    9          1.387110549700        -0.130649264724
   10          7.735287767200        -0.010215852733
   11          6.094944361000         0.021578558299
   12          1.387110549700        -0.067257905732
   13          7.735287767200         0.006926548117
   14          6.094944361000        -0.014630684904
   15          1.387110549700         0.045602176588
   16          0.623240278500        -0.002518526304
   17          0.623240278500         0.003464866251
   18          0.623240278500        -0.007678796472
   19          0.623240278500        -0.003953024691
   20          0.623240278500         0.002680228116
   21          0.265173285500        -0.180310658704
   22          0.265173285500         0.248062652768
   23          0.265173285500        -0.549753579080
   24          0.265173285500        -0.283011729732
 P 24
    1         18.000000000000         0.017590584779
    2         12.318606250000        -0.065225763961
    3          5.371923450500         0.191595091777
    4          1.350664674800        -0.336664164123
    5         18.000000000000        -0.007791827527
    6         12.318606250000         0.028892041367
    7          5.371923450500        -0.084867895462
    8          1.350664674800         0.149126884314
    9         18.000000000000        -0.005827688520
   10         12.318606250000         0.021609027819
   11          5.371923450500        -0.063474667322
   12          1.350664674800         0.111535455417
   13          0.662128168100        -1.302265523325
   14          0.662128168100         0.576844287982
   15          0.662128168100         0.431435221494
   16          0.310713851900         2.626963499545
   17          0.310713851900        -1.163625130442
   18          0.310713851900        -0.870302222536
   19          0.108000000000        -1.783223436682
   20          0.108000000000         0.789886728337
   21          0.108000000000         0.590774603641
   22          0.045000000000         0.678906444886
   23          0.045000000000        -0.300724620127
   24          0.045000000000        -0.224918917975
 D 24
    1          7.735287767200        -0.003666741589
    2          6.094944361000         0.007745119200
    3          1.387110549700        -0.024140653411
    4          7.735287767200         0.005044525111
    5          6.094944361000        -0.010655359081
    6          1.387110549700         0.033211539283
    7          7.735287767200        -0.011179618146
    8          6.094944361000         0.023614283430
    9          1.387110549700        -0.073603028844
   10          7.735287767200        -0.005755238692
   11          6.094944361000         0.012156572425
   12          1.387110549700        -0.037890650101
   13          7.735287767200         0.003902164486
   14          6.094944361000        -0.008242394056
   15          1.387110549700         0.025690602438
   16          0.623240278500        -0.338065832754
   17          0.623240278500         0.465094564494
   18          0.623240278500        -1.030737189072
   19          0.623240278500        -0.530620856108
   20          0.623240278500         0.359771326788
   21          0.265173285500         0.504218818972
   22          0.265173285500        -0.693679778607
   23          0.265173285500         1.537325094084
   24          0.265173285500         0.791411007760
 D 24
    1          7.735287767200        -0.081255689940
    2          6.094944361000         0.171633312297
    3          1.387110549700        -0.534961464018
    4          7.735287767200         0.111787634432
    5          6.094944361000        -0.236124780746
    6          1.387110549700         0.735974017562
    7          7.735287767200        -0.247742461177
    8          6.094944361000         0.523297005292
    9          1.387110549700        -1.631057096790
   10          7.735287767200        -0.127537182351
   11          6.094944361000         0.269391953525
   12          1.387110549700        -0.839664001841
   13          7.735287767200         0.086472706040
   14          6.094944361000        -0.182653017553
   15          1.387110549700         0.569308628785
   16          0.623240278500         0.662965184936
   17          0.623240278500        -0.912075324074
   18          0.623240278500         2.021330773423
   19          0.623240278500         1.040575887623
   20          0.623240278500        -0.705530819983
   21          0.265173285500        -0.366583425634
   22          0.265173285500         0.504327684670
   23          0.265173285500        -1.117685175780
   24          0.265173285500        -0.575381456198
 P 24
    1         18.000000000000         0.153104633063
    2         12.318606250000        -0.567710896661
    3          5.371923450500         1.667602106019
    4          1.350664674800        -2.930251834245
    5         18.000000000000        -0.067818376086
    6         12.318606250000         0.251470058925
    7          5.371923450500        -0.738671747063
    8          1.350664674800         1.297968042811
    9         18.000000000000        -0.050722936358
   10         12.318606250000         0.188080289309
   11          5.371923450500        -0.552469731332
   12          1.350664674800         0.970780402446
   13          0.662128168100         3.835402447629
   14          0.662128168100        -1.698908520477
   15          0.662128168100        -1.270653084537
   16          0.310713851900        -2.364869297435
   17          0.310713851900         1.047529341207
   18          0.310713851900         0.783471489196
   19          0.108000000000         0.961337182527
   20          0.108000000000        -0.425828567601
   21          0.108000000000        -0.318487061772
   22          0.045000000000        -0.347605381095
   23          0.045000000000         0.153973344850
   24          0.045000000000         0.115160235652
 end
  // -----------------------------------------------
  // The basis set
  // -----------------------------------------------
  BAS[ATNO] = new BFNGauss[NSH];
  // Basis function   1 L = s
  InitBFNGauss(BAS[ATNO][  0]);
  BAS[ATNO][  0].l  = 0;
  BAS[ATNO][  0].ng = 10;
  BAS[ATNO][  0].a[  0] =        24.000000000000;     BAS[ATNO][  0].d[  0] =         0.262730920757;
  BAS[ATNO][  0].a[  1] =        18.204262749000;     BAS[ATNO][  0].d[  1] =        -1.320995921330;
  BAS[ATNO][  0].a[  2] =        14.048192487000;     BAS[ATNO][  0].d[  2] =         1.851399225568;
  BAS[ATNO][  0].a[  3] =         9.516678695400;     BAS[ATNO][  0].d[  3] =        -0.736780893709;
  BAS[ATNO][  0].a[  4] =         4.171466798100;     BAS[ATNO][  0].d[  4] =        -0.664668054103;
  BAS[ATNO][  0].a[  5] =         1.194421397600;     BAS[ATNO][  0].d[  5] =         0.815242325103;
  BAS[ATNO][  0].a[  6] =         0.567554478000;     BAS[ATNO][  0].d[  6] =         0.540574233025;
  BAS[ATNO][  0].a[  7] =         0.175338548700;     BAS[ATNO][  0].d[  7] =         0.040006501349;
  BAS[ATNO][  0].a[  8] =         0.082014250500;     BAS[ATNO][  0].d[  8] =        -0.014343679144;
  BAS[ATNO][  0].a[  9] =         0.034607892700;     BAS[ATNO][  0].d[  9] =         0.001147008506;

  // Basis function   2 L = p
  InitBFNGauss(BAS[ATNO][  1]);
  BAS[ATNO][  1].l  = 1;
  BAS[ATNO][  1].ng = 24;
  BAS[ATNO][  1].a[  0] =        18.000000000000;     BAS[ATNO][  1].d[  0] =        -0.004448780684;
  BAS[ATNO][  1].a[  1] =        12.318606250000;     BAS[ATNO][  1].d[  1] =         0.016496047315;
  BAS[ATNO][  1].a[  2] =         5.371923450500;     BAS[ATNO][  1].d[  2] =        -0.048455725274;
  BAS[ATNO][  1].a[  3] =         1.350664674800;     BAS[ATNO][  1].d[  3] =         0.085144698097;
  BAS[ATNO][  1].a[  4] =        18.000000000000;     BAS[ATNO][  1].d[  4] =         0.008630265282;
  BAS[ATNO][  1].a[  5] =        12.318606250000;     BAS[ATNO][  1].d[  5] =        -0.032000962634;
  BAS[ATNO][  1].a[  6] =         5.371923450500;     BAS[ATNO][  1].d[  6] =         0.094000085249;
  BAS[ATNO][  1].a[  7] =         1.350664674800;     BAS[ATNO][  1].d[  7] =        -0.165173647374;
  BAS[ATNO][  1].a[  8] =        18.000000000000;     BAS[ATNO][  1].d[  8] =        -0.024967393483;
  BAS[ATNO][  1].a[  9] =        12.318606250000;     BAS[ATNO][  1].d[  9] =         0.092578918468;
  BAS[ATNO][  1].a[ 10] =         5.371923450500;     BAS[ATNO][  1].d[ 10] =        -0.271942638969;
  BAS[ATNO][  1].a[ 11] =         1.350664674800;     BAS[ATNO][  1].d[ 11] =         0.477848051267;
  BAS[ATNO][  1].a[ 12] =         0.662128168100;     BAS[ATNO][  1].d[ 12] =         0.081073316280;
  BAS[ATNO][  1].a[ 13] =         0.662128168100;     BAS[ATNO][  1].d[ 13] =        -0.157275504570;
  BAS[ATNO][  1].a[ 14] =         0.662128168100;     BAS[ATNO][  1].d[ 14] =         0.454998691169;
  BAS[ATNO][  1].a[ 15] =         0.310713851900;     BAS[ATNO][  1].d[ 15] =         0.026896339738;
  BAS[ATNO][  1].a[ 16] =         0.310713851900;     BAS[ATNO][  1].d[ 16] =        -0.052176666719;
  BAS[ATNO][  1].a[ 17] =         0.310713851900;     BAS[ATNO][  1].d[ 17] =         0.150947314598;
  BAS[ATNO][  1].a[ 18] =         0.108000000000;     BAS[ATNO][  1].d[ 18] =         0.001409774993;
  BAS[ATNO][  1].a[ 19] =         0.108000000000;     BAS[ATNO][  1].d[ 19] =        -0.002734846477;
  BAS[ATNO][  1].a[ 20] =         0.108000000000;     BAS[ATNO][  1].d[ 20] =         0.007911922272;
  BAS[ATNO][  1].a[ 21] =         0.045000000000;     BAS[ATNO][  1].d[ 21] =        -0.000007151140;
  BAS[ATNO][  1].a[ 22] =         0.045000000000;     BAS[ATNO][  1].d[ 22] =         0.000013872617;
  BAS[ATNO][  1].a[ 23] =         0.045000000000;     BAS[ATNO][  1].d[ 23] =        -0.000040133539;

  // Basis function   3 L = d
  InitBFNGauss(BAS[ATNO][  2]);
  BAS[ATNO][  2].l  = 2;
  BAS[ATNO][  2].ng = 24;
  BAS[ATNO][  2].a[  0] =        24.000000000000;     BAS[ATNO][  2].d[  0] =        -0.000020786872;
  BAS[ATNO][  2].a[  1] =        18.204262749000;     BAS[ATNO][  2].d[  1] =         0.000137789959;
  BAS[ATNO][  2].a[  2] =        14.048192487000;     BAS[ATNO][  2].d[  2] =        -0.000250246965;
  BAS[ATNO][  2].a[  3] =         9.516678695400;     BAS[ATNO][  2].d[  3] =         0.000147008396;
  BAS[ATNO][  2].a[  4] =         4.171466798100;     BAS[ATNO][  2].d[  4] =         0.000330986102;
  BAS[ATNO][  2].a[  5] =         1.194421397600;     BAS[ATNO][  2].d[  5] =        -0.001987946508;
  BAS[ATNO][  2].a[  6] =         0.567554478000;     BAS[ATNO][  2].d[  6] =        -0.002810837331;
  BAS[ATNO][  2].a[  7] =         0.175338548700;     BAS[ATNO][  2].d[  7] =         0.014132184609;
  BAS[ATNO][  2].a[  8] =         0.082014250500;     BAS[ATNO][  2].d[  8] =         0.029886426742;
  BAS[ATNO][  2].a[  9] =         0.034607892700;     BAS[ATNO][  2].d[  9] =        -0.031444938764;
  BAS[ATNO][  2].a[ 10] =         7.735287767200;     BAS[ATNO][  2].d[ 10] =        -0.020346049789;
  BAS[ATNO][  2].a[ 11] =         6.094944361000;     BAS[ATNO][  2].d[ 11] =         0.042976189361;
  BAS[ATNO][  2].a[ 12] =         1.387110549700;     BAS[ATNO][  2].d[ 12] =        -0.133951881897;
  BAS[ATNO][  2].a[ 13] =         7.735287767200;     BAS[ATNO][  2].d[ 13] =         0.026715645728;
  BAS[ATNO][  2].a[ 14] =         6.094944361000;     BAS[ATNO][  2].d[ 14] =        -0.056430445299;
  BAS[ATNO][  2].a[ 15] =         1.387110549700;     BAS[ATNO][  2].d[ 15] =         0.175887263541;
  BAS[ATNO][  2].a[ 16] =         7.735287767200;     BAS[ATNO][  2].d[ 16] =         0.014478821009;
  BAS[ATNO][  2].a[ 17] =         6.094944361000;     BAS[ATNO][  2].d[ 17] =        -0.030583064519;
  BAS[ATNO][  2].a[ 18] =         1.387110549700;     BAS[ATNO][  2].d[ 18] =         0.095323924885;
  BAS[ATNO][  2].a[ 19] =         7.735287767200;     BAS[ATNO][  2].d[ 19] =         0.008343119048;
  BAS[ATNO][  2].a[ 20] =         6.094944361000;     BAS[ATNO][  2].d[ 20] =        -0.017622853958;
  BAS[ATNO][  2].a[ 21] =         1.387110549700;     BAS[ATNO][  2].d[ 21] =         0.054928426348;
  BAS[ATNO][  2].a[ 22] =         7.735287767200;     BAS[ATNO][  2].d[ 22] =         0.000131434487;
  BAS[ATNO][  2].a[ 23] =         6.094944361000;     BAS[ATNO][  2].d[ 23] =        -0.000277624081;

  // Basis function   4 L = s
  InitBFNGauss(BAS[ATNO][  3]);
  BAS[ATNO][  3].l  = 0;
  BAS[ATNO][  3].ng = 10;
  BAS[ATNO][  3].a[  0] =        24.000000000000;     BAS[ATNO][  3].d[  0] =        -0.419646205523;
  BAS[ATNO][  3].a[  1] =        18.204262749000;     BAS[ATNO][  3].d[  1] =         2.109956925893;
  BAS[ATNO][  3].a[  2] =        14.048192487000;     BAS[ATNO][  3].d[  2] =        -2.957142074025;
  BAS[ATNO][  3].a[  3] =         9.516678695400;     BAS[ATNO][  3].d[  3] =         1.176821157769;
  BAS[ATNO][  3].a[  4] =         4.171466798100;     BAS[ATNO][  3].d[  4] =         1.348763312114;
  BAS[ATNO][  3].a[  5] =         1.194421397600;     BAS[ATNO][  3].d[  5] =        -5.557094705012;
  BAS[ATNO][  3].a[  6] =         0.567554478000;     BAS[ATNO][  3].d[  6] =         6.589938291169;
  BAS[ATNO][  3].a[  7] =         0.175338548700;     BAS[ATNO][  3].d[  7] =        -4.653747117712;
  BAS[ATNO][  3].a[  8] =         0.082014250500;     BAS[ATNO][  3].d[  8] =         3.038303175955;
  BAS[ATNO][  3].a[  9] =         0.034607892700;     BAS[ATNO][  3].d[  9] =        -0.831518556045;

  // Basis function   5 L = s
  InitBFNGauss(BAS[ATNO][  4]);
  BAS[ATNO][  4].l  = 0;
  BAS[ATNO][  4].ng = 10;
  BAS[ATNO][  4].a[  0] =        24.000000000000;     BAS[ATNO][  4].d[  0] =         2.078972339201;
  BAS[ATNO][  4].a[  1] =        18.204262749000;     BAS[ATNO][  4].d[  1] =       -10.452953054510;
  BAS[ATNO][  4].a[  2] =        14.048192487000;     BAS[ATNO][  4].d[  2] =        14.649999199495;
  BAS[ATNO][  4].a[  3] =         9.516678695400;     BAS[ATNO][  4].d[  3] =        -5.830098313741;
  BAS[ATNO][  4].a[  4] =         4.171466798100;     BAS[ATNO][  4].d[  4] =        -1.928311192286;
  BAS[ATNO][  4].a[  5] =         1.194421397600;     BAS[ATNO][  4].d[  5] =         2.394805574843;
  BAS[ATNO][  4].a[  6] =         0.567554478000;     BAS[ATNO][  4].d[  6] =        -1.873471679584;
  BAS[ATNO][  4].a[  7] =         0.175338548700;     BAS[ATNO][  4].d[  7] =         1.028663634859;
  BAS[ATNO][  4].a[  8] =         0.082014250500;     BAS[ATNO][  4].d[  8] =        -0.666323559841;
  BAS[ATNO][  4].a[  9] =         0.034607892700;     BAS[ATNO][  4].d[  9] =         0.186855051984;

  // Basis function   6 L = s
  InitBFNGauss(BAS[ATNO][  5]);
  BAS[ATNO][  5].l  = 0;
  BAS[ATNO][  5].ng = 10;
  BAS[ATNO][  5].a[  0] =        24.000000000000;     BAS[ATNO][  5].d[  0] =         2.288657232765;
  BAS[ATNO][  5].a[  1] =        18.204262749000;     BAS[ATNO][  5].d[  1] =       -11.507236609580;
  BAS[ATNO][  5].a[  2] =        14.048192487000;     BAS[ATNO][  5].d[  2] =        16.127596310787;
  BAS[ATNO][  5].a[  3] =         9.516678695400;     BAS[ATNO][  5].d[  3] =        -6.418121310167;
  BAS[ATNO][  5].a[  4] =         4.171466798100;     BAS[ATNO][  5].d[  4] =         0.240175968053;
  BAS[ATNO][  5].a[  5] =         1.194421397600;     BAS[ATNO][  5].d[  5] =         0.321507838142;
  BAS[ATNO][  5].a[  6] =         0.567554478000;     BAS[ATNO][  5].d[  6] =        -0.282240828492;
  BAS[ATNO][  5].a[  7] =         0.175338548700;     BAS[ATNO][  5].d[  7] =         0.164286901311;
  BAS[ATNO][  5].a[  8] =         0.082014250500;     BAS[ATNO][  5].d[  8] =        -0.107941358001;
  BAS[ATNO][  5].a[  9] =         0.034607892700;     BAS[ATNO][  5].d[  9] =         0.030504629757;

  // Basis function   7 L = d
  InitBFNGauss(BAS[ATNO][  6]);
  BAS[ATNO][  6].l  = 2;
  BAS[ATNO][  6].ng = 24;
  BAS[ATNO][  6].a[  0] =         7.735287767200;     BAS[ATNO][  6].d[  0] =         0.005035923447;
  BAS[ATNO][  6].a[  1] =         6.094944361000;     BAS[ATNO][  6].d[  1] =        -0.010637190113;
  BAS[ATNO][  6].a[  2] =         1.387110549700;     BAS[ATNO][  6].d[  2] =         0.033154908681;
  BAS[ATNO][  6].a[  3] =         7.735287767200;     BAS[ATNO][  6].d[  3] =        -0.000116907092;
  BAS[ATNO][  6].a[  4] =         6.094944361000;     BAS[ATNO][  6].d[  4] =         0.000246938417;
  BAS[ATNO][  6].a[  5] =         1.387110549700;     BAS[ATNO][  6].d[  5] =        -0.000769678889;
  BAS[ATNO][  6].a[  6] =         7.735287767200;     BAS[ATNO][  6].d[  6] =         0.017708544315;
  BAS[ATNO][  6].a[  7] =         6.094944361000;     BAS[ATNO][  6].d[  7] =        -0.037405086572;
  BAS[ATNO][  6].a[  8] =         1.387110549700;     BAS[ATNO][  6].d[  8] =         0.116587389748;
  BAS[ATNO][  6].a[  9] =         7.735287767200;     BAS[ATNO][  6].d[  9] =        -0.018522327491;
  BAS[ATNO][  6].a[ 10] =         6.094944361000;     BAS[ATNO][  6].d[ 10] =         0.039124009914;
  BAS[ATNO][  6].a[ 11] =         1.387110549700;     BAS[ATNO][  6].d[ 11] =        -0.121945077805;
  BAS[ATNO][  6].a[ 12] =         7.735287767200;     BAS[ATNO][  6].d[ 12] =         0.028299554933;
  BAS[ATNO][  6].a[ 13] =         6.094944361000;     BAS[ATNO][  6].d[ 13] =        -0.059776076645;
  BAS[ATNO][  6].a[ 14] =         1.387110549700;     BAS[ATNO][  6].d[ 14] =         0.186315214963;
  BAS[ATNO][  6].a[ 15] =         0.623240278500;     BAS[ATNO][  6].d[ 15] =         0.054704889738;
  BAS[ATNO][  6].a[ 16] =         0.623240278500;     BAS[ATNO][  6].d[ 16] =        -0.001269953695;
  BAS[ATNO][  6].a[ 17] =         0.623240278500;     BAS[ATNO][  6].d[ 17] =         0.192366697867;
  BAS[ATNO][  6].a[ 18] =         0.623240278500;     BAS[ATNO][  6].d[ 18] =        -0.201206768496;
  BAS[ATNO][  6].a[ 19] =         0.623240278500;     BAS[ATNO][  6].d[ 19] =         0.307416117150;
  BAS[ATNO][  6].a[ 20] =         0.265173285500;     BAS[ATNO][  6].d[ 20] =         0.049313941045;
  BAS[ATNO][  6].a[ 21] =         0.265173285500;     BAS[ATNO][  6].d[ 21] =        -0.001144804823;
  BAS[ATNO][  6].a[ 22] =         0.265173285500;     BAS[ATNO][  6].d[ 22] =         0.173409727048;
  BAS[ATNO][  6].a[ 23] =         0.265173285500;     BAS[ATNO][  6].d[ 23] =        -0.181378643975;

  // Basis function   8 L = p
  InitBFNGauss(BAS[ATNO][  7]);
  BAS[ATNO][  7].l  = 1;
  BAS[ATNO][  7].ng = 24;
  BAS[ATNO][  7].a[  0] =        18.000000000000;     BAS[ATNO][  7].d[  0] =         0.003511535572;
  BAS[ATNO][  7].a[  1] =        12.318606250000;     BAS[ATNO][  7].d[  1] =        -0.013020749066;
  BAS[ATNO][  7].a[  2] =         5.371923450500;     BAS[ATNO][  7].d[  2] =         0.038247334502;
  BAS[ATNO][  7].a[  3] =         1.350664674800;     BAS[ATNO][  7].d[  3] =        -0.067206872476;
  BAS[ATNO][  7].a[  4] =        18.000000000000;     BAS[ATNO][  7].d[  4] =        -0.001555450252;
  BAS[ATNO][  7].a[  5] =        12.318606250000;     BAS[ATNO][  7].d[  5] =         0.005767598535;
  BAS[ATNO][  7].a[  6] =         5.371923450500;     BAS[ATNO][  7].d[  6] =        -0.016941826412;
  BAS[ATNO][  7].a[  7] =         1.350664674800;     BAS[ATNO][  7].d[  7] =         0.029769582168;
  BAS[ATNO][  7].a[  8] =        18.000000000000;     BAS[ATNO][  7].d[  8] =        -0.001163357318;
  BAS[ATNO][  7].a[  9] =        12.318606250000;     BAS[ATNO][  7].d[  9] =         0.004313720710;
  BAS[ATNO][  7].a[ 10] =         5.371923450500;     BAS[ATNO][  7].d[ 10] =        -0.012671184898;
  BAS[ATNO][  7].a[ 11] =         1.350664674800;     BAS[ATNO][  7].d[ 11] =         0.022265360937;
  BAS[ATNO][  7].a[ 12] =         0.662128168100;     BAS[ATNO][  7].d[ 12] =        -0.131948842630;
  BAS[ATNO][  7].a[ 13] =         0.662128168100;     BAS[ATNO][  7].d[ 13] =         0.058447324923;
  BAS[ATNO][  7].a[ 14] =         0.662128168100;     BAS[ATNO][  7].d[ 14] =         0.043714109854;
  BAS[ATNO][  7].a[ 15] =         0.310713851900;     BAS[ATNO][  7].d[ 15] =         0.109571829371;
  BAS[ATNO][  7].a[ 16] =         0.310713851900;     BAS[ATNO][  7].d[ 16] =        -0.048535327677;
  BAS[ATNO][  7].a[ 17] =         0.310713851900;     BAS[ATNO][  7].d[ 17] =        -0.036300697229;
  BAS[ATNO][  7].a[ 18] =         0.108000000000;     BAS[ATNO][  7].d[ 18] =        -0.237575777035;
  BAS[ATNO][  7].a[ 19] =         0.108000000000;     BAS[ATNO][  7].d[ 19] =         0.105235243883;
  BAS[ATNO][  7].a[ 20] =         0.108000000000;     BAS[ATNO][  7].d[ 20] =         0.078707879577;
  BAS[ATNO][  7].a[ 21] =         0.045000000000;     BAS[ATNO][  7].d[ 21] =         1.031398101566;
  BAS[ATNO][  7].a[ 22] =         0.045000000000;     BAS[ATNO][  7].d[ 22] =        -0.456862362457;
  BAS[ATNO][  7].a[ 23] =         0.045000000000;     BAS[ATNO][  7].d[ 23] =        -0.341697956699;

  // Basis function   9 L = p
  InitBFNGauss(BAS[ATNO][  8]);
  BAS[ATNO][  8].l  = 1;
  BAS[ATNO][  8].ng = 24;
  BAS[ATNO][  8].a[  0] =        18.000000000000;     BAS[ATNO][  8].d[  0] =         0.006606727519;
  BAS[ATNO][  8].a[  1] =        12.318606250000;     BAS[ATNO][  8].d[  1] =        -0.024497698919;
  BAS[ATNO][  8].a[  2] =         5.371923450500;     BAS[ATNO][  8].d[  2] =         0.071959891117;
  BAS[ATNO][  8].a[  3] =         1.350664674800;     BAS[ATNO][  8].d[  3] =        -0.126445392564;
  BAS[ATNO][  8].a[  4] =        18.000000000000;     BAS[ATNO][  8].d[  4] =        -0.002926479250;
  BAS[ATNO][  8].a[  5] =        12.318606250000;     BAS[ATNO][  8].d[  5] =         0.010851364362;
  BAS[ATNO][  8].a[  6] =         5.371923450500;     BAS[ATNO][  8].d[  6] =        -0.031874952851;
  BAS[ATNO][  8].a[  7] =         1.350664674800;     BAS[ATNO][  8].d[  7] =         0.056009547314;
  BAS[ATNO][  8].a[  8] =        18.000000000000;     BAS[ATNO][  8].d[  8] =        -0.002188781704;
  BAS[ATNO][  8].a[  9] =        12.318606250000;     BAS[ATNO][  8].d[  9] =         0.008115987078;
  BAS[ATNO][  8].a[ 10] =         5.371923450500;     BAS[ATNO][  8].d[ 10] =        -0.023840016500;
  BAS[ATNO][  8].a[ 11] =         1.350664674800;     BAS[ATNO][  8].d[ 11] =         0.041890839442;
  BAS[ATNO][  8].a[ 12] =         0.662128168100;     BAS[ATNO][  8].d[ 12] =        -0.107791973883;
  BAS[ATNO][  8].a[ 13] =         0.662128168100;     BAS[ATNO][  8].d[ 13] =         0.047746932797;
  BAS[ATNO][  8].a[ 14] =         0.662128168100;     BAS[ATNO][  8].d[ 14] =         0.035711038414;
  BAS[ATNO][  8].a[ 15] =         0.310713851900;     BAS[ATNO][  8].d[ 15] =        -0.429342391121;
  BAS[ATNO][  8].a[ 16] =         0.310713851900;     BAS[ATNO][  8].d[ 16] =         0.190179115915;
  BAS[ATNO][  8].a[ 17] =         0.310713851900;     BAS[ATNO][  8].d[ 17] =         0.142239371537;
  BAS[ATNO][  8].a[ 18] =         0.108000000000;     BAS[ATNO][  8].d[ 18] =         1.868172777552;
  BAS[ATNO][  8].a[ 19] =         0.108000000000;     BAS[ATNO][  8].d[ 19] =        -0.827515415572;
  BAS[ATNO][  8].a[ 20] =         0.108000000000;     BAS[ATNO][  8].d[ 20] =        -0.618917971525;
  BAS[ATNO][  8].a[ 21] =         0.045000000000;     BAS[ATNO][  8].d[ 21] =        -1.220390483318;
  BAS[ATNO][  8].a[ 22] =         0.045000000000;     BAS[ATNO][  8].d[ 22] =         0.540577375978;
  BAS[ATNO][  8].a[ 23] =         0.045000000000;     BAS[ATNO][  8].d[ 23] =         0.404310356879;

  // Basis function  10 L = d
  InitBFNGauss(BAS[ATNO][  9]);
  BAS[ATNO][  9].l  = 2;
  BAS[ATNO][  9].ng = 24;
  BAS[ATNO][  9].a[  0] =         7.735287767200;     BAS[ATNO][  9].d[  0] =         0.006508660038;
  BAS[ATNO][  9].a[  1] =         6.094944361000;     BAS[ATNO][  9].d[  1] =        -0.013747995761;
  BAS[ATNO][  9].a[  2] =         1.387110549700;     BAS[ATNO][  9].d[  2] =         0.042850935179;
  BAS[ATNO][  9].a[  3] =         7.735287767200;     BAS[ATNO][  9].d[  3] =        -0.008954298578;
  BAS[ATNO][  9].a[  4] =         6.094944361000;     BAS[ATNO][  9].d[  4] =         0.018913825302;
  BAS[ATNO][  9].a[  5] =         1.387110549700;     BAS[ATNO][  9].d[  5] =        -0.058952236825;
  BAS[ATNO][  9].a[  6] =         7.735287767200;     BAS[ATNO][  9].d[  6] =         0.019844412840;
  BAS[ATNO][  9].a[  7] =         6.094944361000;     BAS[ATNO][  9].d[  7] =        -0.041916600656;
  BAS[ATNO][  9].a[  8] =         1.387110549700;     BAS[ATNO][  9].d[  8] =         0.130649264724;
  BAS[ATNO][  9].a[  9] =         7.735287767200;     BAS[ATNO][  9].d[  9] =         0.010215852733;
  BAS[ATNO][  9].a[ 10] =         6.094944361000;     BAS[ATNO][  9].d[ 10] =        -0.021578558299;
  BAS[ATNO][  9].a[ 11] =         1.387110549700;     BAS[ATNO][  9].d[ 11] =         0.067257905732;
  BAS[ATNO][  9].a[ 12] =         7.735287767200;     BAS[ATNO][  9].d[ 12] =        -0.006926548117;
  BAS[ATNO][  9].a[ 13] =         6.094944361000;     BAS[ATNO][  9].d[ 13] =         0.014630684904;
  BAS[ATNO][  9].a[ 14] =         1.387110549700;     BAS[ATNO][  9].d[ 14] =        -0.045602176588;
  BAS[ATNO][  9].a[ 15] =         0.623240278500;     BAS[ATNO][  9].d[ 15] =         0.002518526304;
  BAS[ATNO][  9].a[ 16] =         0.623240278500;     BAS[ATNO][  9].d[ 16] =        -0.003464866251;
  BAS[ATNO][  9].a[ 17] =         0.623240278500;     BAS[ATNO][  9].d[ 17] =         0.007678796472;
  BAS[ATNO][  9].a[ 18] =         0.623240278500;     BAS[ATNO][  9].d[ 18] =         0.003953024691;
  BAS[ATNO][  9].a[ 19] =         0.623240278500;     BAS[ATNO][  9].d[ 19] =        -0.002680228116;
  BAS[ATNO][  9].a[ 20] =         0.265173285500;     BAS[ATNO][  9].d[ 20] =         0.180310658704;
  BAS[ATNO][  9].a[ 21] =         0.265173285500;     BAS[ATNO][  9].d[ 21] =        -0.248062652768;
  BAS[ATNO][  9].a[ 22] =         0.265173285500;     BAS[ATNO][  9].d[ 22] =         0.549753579080;
  BAS[ATNO][  9].a[ 23] =         0.265173285500;     BAS[ATNO][  9].d[ 23] =         0.283011729732;

  // Basis function  11 L = p
  InitBFNGauss(BAS[ATNO][ 10]);
  BAS[ATNO][ 10].l  = 1;
  BAS[ATNO][ 10].ng = 24;
  BAS[ATNO][ 10].a[  0] =        18.000000000000;     BAS[ATNO][ 10].d[  0] =         0.017590584779;
  BAS[ATNO][ 10].a[  1] =        12.318606250000;     BAS[ATNO][ 10].d[  1] =        -0.065225763961;
  BAS[ATNO][ 10].a[  2] =         5.371923450500;     BAS[ATNO][ 10].d[  2] =         0.191595091777;
  BAS[ATNO][ 10].a[  3] =         1.350664674800;     BAS[ATNO][ 10].d[  3] =        -0.336664164123;
  BAS[ATNO][ 10].a[  4] =        18.000000000000;     BAS[ATNO][ 10].d[  4] =        -0.007791827527;
  BAS[ATNO][ 10].a[  5] =        12.318606250000;     BAS[ATNO][ 10].d[  5] =         0.028892041367;
  BAS[ATNO][ 10].a[  6] =         5.371923450500;     BAS[ATNO][ 10].d[  6] =        -0.084867895462;
  BAS[ATNO][ 10].a[  7] =         1.350664674800;     BAS[ATNO][ 10].d[  7] =         0.149126884314;
  BAS[ATNO][ 10].a[  8] =        18.000000000000;     BAS[ATNO][ 10].d[  8] =        -0.005827688520;
  BAS[ATNO][ 10].a[  9] =        12.318606250000;     BAS[ATNO][ 10].d[  9] =         0.021609027819;
  BAS[ATNO][ 10].a[ 10] =         5.371923450500;     BAS[ATNO][ 10].d[ 10] =        -0.063474667322;
  BAS[ATNO][ 10].a[ 11] =         1.350664674800;     BAS[ATNO][ 10].d[ 11] =         0.111535455417;
  BAS[ATNO][ 10].a[ 12] =         0.662128168100;     BAS[ATNO][ 10].d[ 12] =        -1.302265523325;
  BAS[ATNO][ 10].a[ 13] =         0.662128168100;     BAS[ATNO][ 10].d[ 13] =         0.576844287982;
  BAS[ATNO][ 10].a[ 14] =         0.662128168100;     BAS[ATNO][ 10].d[ 14] =         0.431435221494;
  BAS[ATNO][ 10].a[ 15] =         0.310713851900;     BAS[ATNO][ 10].d[ 15] =         2.626963499545;
  BAS[ATNO][ 10].a[ 16] =         0.310713851900;     BAS[ATNO][ 10].d[ 16] =        -1.163625130442;
  BAS[ATNO][ 10].a[ 17] =         0.310713851900;     BAS[ATNO][ 10].d[ 17] =        -0.870302222536;
  BAS[ATNO][ 10].a[ 18] =         0.108000000000;     BAS[ATNO][ 10].d[ 18] =        -1.783223436682;
  BAS[ATNO][ 10].a[ 19] =         0.108000000000;     BAS[ATNO][ 10].d[ 19] =         0.789886728337;
  BAS[ATNO][ 10].a[ 20] =         0.108000000000;     BAS[ATNO][ 10].d[ 20] =         0.590774603641;
  BAS[ATNO][ 10].a[ 21] =         0.045000000000;     BAS[ATNO][ 10].d[ 21] =         0.678906444886;
  BAS[ATNO][ 10].a[ 22] =         0.045000000000;     BAS[ATNO][ 10].d[ 22] =        -0.300724620127;
  BAS[ATNO][ 10].a[ 23] =         0.045000000000;     BAS[ATNO][ 10].d[ 23] =        -0.224918917975;

  // Basis function  12 L = d
  InitBFNGauss(BAS[ATNO][ 11]);
  BAS[ATNO][ 11].l  = 2;
  BAS[ATNO][ 11].ng = 24;
  BAS[ATNO][ 11].a[  0] =         7.735287767200;     BAS[ATNO][ 11].d[  0] =        -0.003666741589;
  BAS[ATNO][ 11].a[  1] =         6.094944361000;     BAS[ATNO][ 11].d[  1] =         0.007745119200;
  BAS[ATNO][ 11].a[  2] =         1.387110549700;     BAS[ATNO][ 11].d[  2] =        -0.024140653411;
  BAS[ATNO][ 11].a[  3] =         7.735287767200;     BAS[ATNO][ 11].d[  3] =         0.005044525111;
  BAS[ATNO][ 11].a[  4] =         6.094944361000;     BAS[ATNO][ 11].d[  4] =        -0.010655359081;
  BAS[ATNO][ 11].a[  5] =         1.387110549700;     BAS[ATNO][ 11].d[  5] =         0.033211539283;
  BAS[ATNO][ 11].a[  6] =         7.735287767200;     BAS[ATNO][ 11].d[  6] =        -0.011179618146;
  BAS[ATNO][ 11].a[  7] =         6.094944361000;     BAS[ATNO][ 11].d[  7] =         0.023614283430;
  BAS[ATNO][ 11].a[  8] =         1.387110549700;     BAS[ATNO][ 11].d[  8] =        -0.073603028844;
  BAS[ATNO][ 11].a[  9] =         7.735287767200;     BAS[ATNO][ 11].d[  9] =        -0.005755238692;
  BAS[ATNO][ 11].a[ 10] =         6.094944361000;     BAS[ATNO][ 11].d[ 10] =         0.012156572425;
  BAS[ATNO][ 11].a[ 11] =         1.387110549700;     BAS[ATNO][ 11].d[ 11] =        -0.037890650101;
  BAS[ATNO][ 11].a[ 12] =         7.735287767200;     BAS[ATNO][ 11].d[ 12] =         0.003902164486;
  BAS[ATNO][ 11].a[ 13] =         6.094944361000;     BAS[ATNO][ 11].d[ 13] =        -0.008242394056;
  BAS[ATNO][ 11].a[ 14] =         1.387110549700;     BAS[ATNO][ 11].d[ 14] =         0.025690602438;
  BAS[ATNO][ 11].a[ 15] =         0.623240278500;     BAS[ATNO][ 11].d[ 15] =        -0.338065832754;
  BAS[ATNO][ 11].a[ 16] =         0.623240278500;     BAS[ATNO][ 11].d[ 16] =         0.465094564494;
  BAS[ATNO][ 11].a[ 17] =         0.623240278500;     BAS[ATNO][ 11].d[ 17] =        -1.030737189072;
  BAS[ATNO][ 11].a[ 18] =         0.623240278500;     BAS[ATNO][ 11].d[ 18] =        -0.530620856108;
  BAS[ATNO][ 11].a[ 19] =         0.623240278500;     BAS[ATNO][ 11].d[ 19] =         0.359771326788;
  BAS[ATNO][ 11].a[ 20] =         0.265173285500;     BAS[ATNO][ 11].d[ 20] =         0.504218818972;
  BAS[ATNO][ 11].a[ 21] =         0.265173285500;     BAS[ATNO][ 11].d[ 21] =        -0.693679778607;
  BAS[ATNO][ 11].a[ 22] =         0.265173285500;     BAS[ATNO][ 11].d[ 22] =         1.537325094084;
  BAS[ATNO][ 11].a[ 23] =         0.265173285500;     BAS[ATNO][ 11].d[ 23] =         0.791411007760;

  // Basis function  13 L = d
  InitBFNGauss(BAS[ATNO][ 12]);
  BAS[ATNO][ 12].l  = 2;
  BAS[ATNO][ 12].ng = 24;
  BAS[ATNO][ 12].a[  0] =         7.735287767200;     BAS[ATNO][ 12].d[  0] =        -0.081255689940;
  BAS[ATNO][ 12].a[  1] =         6.094944361000;     BAS[ATNO][ 12].d[  1] =         0.171633312297;
  BAS[ATNO][ 12].a[  2] =         1.387110549700;     BAS[ATNO][ 12].d[  2] =        -0.534961464018;
  BAS[ATNO][ 12].a[  3] =         7.735287767200;     BAS[ATNO][ 12].d[  3] =         0.111787634432;
  BAS[ATNO][ 12].a[  4] =         6.094944361000;     BAS[ATNO][ 12].d[  4] =        -0.236124780746;
  BAS[ATNO][ 12].a[  5] =         1.387110549700;     BAS[ATNO][ 12].d[  5] =         0.735974017562;
  BAS[ATNO][ 12].a[  6] =         7.735287767200;     BAS[ATNO][ 12].d[  6] =        -0.247742461177;
  BAS[ATNO][ 12].a[  7] =         6.094944361000;     BAS[ATNO][ 12].d[  7] =         0.523297005292;
  BAS[ATNO][ 12].a[  8] =         1.387110549700;     BAS[ATNO][ 12].d[  8] =        -1.631057096790;
  BAS[ATNO][ 12].a[  9] =         7.735287767200;     BAS[ATNO][ 12].d[  9] =        -0.127537182351;
  BAS[ATNO][ 12].a[ 10] =         6.094944361000;     BAS[ATNO][ 12].d[ 10] =         0.269391953525;
  BAS[ATNO][ 12].a[ 11] =         1.387110549700;     BAS[ATNO][ 12].d[ 11] =        -0.839664001841;
  BAS[ATNO][ 12].a[ 12] =         7.735287767200;     BAS[ATNO][ 12].d[ 12] =         0.086472706040;
  BAS[ATNO][ 12].a[ 13] =         6.094944361000;     BAS[ATNO][ 12].d[ 13] =        -0.182653017553;
  BAS[ATNO][ 12].a[ 14] =         1.387110549700;     BAS[ATNO][ 12].d[ 14] =         0.569308628785;
  BAS[ATNO][ 12].a[ 15] =         0.623240278500;     BAS[ATNO][ 12].d[ 15] =         0.662965184936;
  BAS[ATNO][ 12].a[ 16] =         0.623240278500;     BAS[ATNO][ 12].d[ 16] =        -0.912075324074;
  BAS[ATNO][ 12].a[ 17] =         0.623240278500;     BAS[ATNO][ 12].d[ 17] =         2.021330773423;
  BAS[ATNO][ 12].a[ 18] =         0.623240278500;     BAS[ATNO][ 12].d[ 18] =         1.040575887623;
  BAS[ATNO][ 12].a[ 19] =         0.623240278500;     BAS[ATNO][ 12].d[ 19] =        -0.705530819983;
  BAS[ATNO][ 12].a[ 20] =         0.265173285500;     BAS[ATNO][ 12].d[ 20] =        -0.366583425634;
  BAS[ATNO][ 12].a[ 21] =         0.265173285500;     BAS[ATNO][ 12].d[ 21] =         0.504327684670;
  BAS[ATNO][ 12].a[ 22] =         0.265173285500;     BAS[ATNO][ 12].d[ 22] =        -1.117685175780;
  BAS[ATNO][ 12].a[ 23] =         0.265173285500;     BAS[ATNO][ 12].d[ 23] =        -0.575381456198;

  // Basis function  14 L = p
  InitBFNGauss(BAS[ATNO][ 13]);
  BAS[ATNO][ 13].l  = 1;
  BAS[ATNO][ 13].ng = 24;
  BAS[ATNO][ 13].a[  0] =        18.000000000000;     BAS[ATNO][ 13].d[  0] =         0.153104633063;
  BAS[ATNO][ 13].a[  1] =        12.318606250000;     BAS[ATNO][ 13].d[  1] =        -0.567710896661;
  BAS[ATNO][ 13].a[  2] =         5.371923450500;     BAS[ATNO][ 13].d[  2] =         1.667602106019;
  BAS[ATNO][ 13].a[  3] =         1.350664674800;     BAS[ATNO][ 13].d[  3] =        -2.930251834245;
  BAS[ATNO][ 13].a[  4] =        18.000000000000;     BAS[ATNO][ 13].d[  4] =        -0.067818376086;
  BAS[ATNO][ 13].a[  5] =        12.318606250000;     BAS[ATNO][ 13].d[  5] =         0.251470058925;
  BAS[ATNO][ 13].a[  6] =         5.371923450500;     BAS[ATNO][ 13].d[  6] =        -0.738671747063;
  BAS[ATNO][ 13].a[  7] =         1.350664674800;     BAS[ATNO][ 13].d[  7] =         1.297968042811;
  BAS[ATNO][ 13].a[  8] =        18.000000000000;     BAS[ATNO][ 13].d[  8] =        -0.050722936358;
  BAS[ATNO][ 13].a[  9] =        12.318606250000;     BAS[ATNO][ 13].d[  9] =         0.188080289309;
  BAS[ATNO][ 13].a[ 10] =         5.371923450500;     BAS[ATNO][ 13].d[ 10] =        -0.552469731332;
  BAS[ATNO][ 13].a[ 11] =         1.350664674800;     BAS[ATNO][ 13].d[ 11] =         0.970780402446;
  BAS[ATNO][ 13].a[ 12] =         0.662128168100;     BAS[ATNO][ 13].d[ 12] =         3.835402447629;
  BAS[ATNO][ 13].a[ 13] =         0.662128168100;     BAS[ATNO][ 13].d[ 13] =        -1.698908520477;
  BAS[ATNO][ 13].a[ 14] =         0.662128168100;     BAS[ATNO][ 13].d[ 14] =        -1.270653084537;
  BAS[ATNO][ 13].a[ 15] =         0.310713851900;     BAS[ATNO][ 13].d[ 15] =        -2.364869297435;
  BAS[ATNO][ 13].a[ 16] =         0.310713851900;     BAS[ATNO][ 13].d[ 16] =         1.047529341207;
  BAS[ATNO][ 13].a[ 17] =         0.310713851900;     BAS[ATNO][ 13].d[ 17] =         0.783471489196;
  BAS[ATNO][ 13].a[ 18] =         0.108000000000;     BAS[ATNO][ 13].d[ 18] =         0.961337182527;
  BAS[ATNO][ 13].a[ 19] =         0.108000000000;     BAS[ATNO][ 13].d[ 19] =        -0.425828567601;
  BAS[ATNO][ 13].a[ 20] =         0.108000000000;     BAS[ATNO][ 13].d[ 20] =        -0.318487061772;
  BAS[ATNO][ 13].a[ 21] =         0.045000000000;     BAS[ATNO][ 13].d[ 21] =        -0.347605381095;
  BAS[ATNO][ 13].a[ 22] =         0.045000000000;     BAS[ATNO][ 13].d[ 22] =         0.153973344850;
  BAS[ATNO][ 13].a[ 23] =         0.045000000000;     BAS[ATNO][ 13].d[ 23] =         0.115160235652;

-------------------------------------------
RADIAL EXPECTATION VALUES <R**-3> TO <R**3>
-------------------------------------------
   0 :     0.000000     1.097766     1.005876     1.081958     1.277206     1.647630
   1 :     0.910978     0.854250     0.880376     1.255741     1.748105     2.703504
   2 :     0.908696     0.852551     0.879321     1.258007     1.755959     2.726355
   3 :     0.907926     0.851978     0.878965     1.258770     1.758598     2.734020
   4 :     0.345565     0.417583     0.592421     2.032252     4.991773    73.463371
   5 :     0.000000     0.172309     0.358593     3.218061    12.046970    50.960072
   6 :     0.360953     0.433722     0.606292     1.967717     4.654217    61.179165
   7 :     0.000000     0.050696     0.183132     6.481366    45.646733   338.807911
   8 :     0.000000     0.188154     0.355272     3.886257    19.530957   119.888006
   9 :     0.000000     0.730246     0.738544     1.974924     6.067293    28.552472
  10 :     0.000000     5.566635     2.115004     0.571014     0.549059     1.528340
  11 :     0.000000    51.025481     5.777032     0.221974     0.067025     0.056679
  12 :     0.364721     0.436707     0.609385     1.946035     4.507947    61.919330
  13 :     0.363595     0.435620     0.608463     1.950284     4.530717    62.441573
  14 :     0.360871     0.432925     0.606107     1.961860     4.594566    63.942682
  15 :     0.025980     0.057953     0.213011     5.334408    31.100957   194.933482
  16 :     0.025605     0.057200     0.211580     5.364203    31.410728   197.530291
  17 :     0.025407     0.056861     0.210981     5.376228    31.535201   198.571609
  18 :     0.069794     0.113687     0.285535     4.530788    25.282131   164.240825
  19 :     0.070463     0.114484     0.286685     4.507732    25.035982   162.142176
  20 :     0.070669     0.114756     0.287116     4.498495    24.936674   161.292681
  21 :     0.071537     0.111928     0.278774     4.303361    20.156367   496.060983
  22 :     0.072527     0.112843     0.279607     4.298877    20.128855   495.694231
  23 :     0.072927     0.113261     0.279978     4.297435    20.123545   495.654408
  24 :     0.089001     0.129625     0.294890     4.213879    19.624896   482.957387
  25 :     0.074154     0.114538     0.281115     4.292718    20.104064   495.410366
  26 :     0.342597     0.353269     0.497559     2.834501    11.015462    56.132313
  27 :     0.344656     0.354930     0.498880     2.825638    10.945027    55.618389
  28 :     0.345447     0.355575     0.499399     2.822141    10.917616    55.421539
  29 :     0.288120     0.328084     0.491142     2.695146     9.085805   182.574965
  30 :     0.288812     0.328617     0.491587     2.693015     9.073167   182.241529
  31 :     0.289359     0.329131     0.492026     2.690621     9.057892   181.812087
  32 :     0.293285     0.332423     0.494162     2.690373     9.090674   183.412173
  33 :     0.290577     0.330289     0.493038     2.684680     9.018699   180.684524
  34 :     0.720010     0.671650     0.740419     1.752210     4.146103    65.864700
  35 :     0.720132     0.671709     0.740469     1.751989     4.144881    65.835797
  36 :     0.720310     0.671864     0.740582     1.751576     4.142696    65.782819
  37 :     0.720590     0.672125     0.740789     1.750659     4.137521    65.653315
  38 :     0.718200     0.670191     0.739525     1.753670     4.149173    65.856436
  39 :    11.768751     3.698970     1.554169     1.278833     3.368970    14.800336
  40 :    11.768680     3.698963     1.554183     1.278692     3.367929    14.793249
  41 :    11.768651     3.698960     1.554188     1.278638     3.367536    14.790610
Making the total density                ... o.k.
o.k.
Initializing the integrals              ... done
Making exponents                        ... done
Making rho(0)                           ... done (         0.000006478)
Integral calculation                    ... Two index integrals                     ... done
Solving the equation system             ... done
atomic density will be written to file 75_Re_atom75.adf

-------
TIMINGS
-------

Total SCF time: 0 days 0 hours 0 min 1 sec 

Total time                  ....       1.170 sec
Sum of individual times     ....       0.734 sec  ( 62.7%)

Fock matrix formation       ....       0.604 sec  ( 51.7%)
Diagonalization             ....       0.055 sec  (  4.7%)
Density matrix formation    ....       0.001 sec  (  0.1%)
Population analysis         ....       0.000 sec  (  0.0%)
Initial guess               ....       0.001 sec  (  0.0%)
Orbital Transformation      ....       0.000 sec  (  0.0%)
Orbital Orthonormalization  ....       0.000 sec  (  0.0%)
DIIS solution               ....       0.073 sec  (  6.3%)

-------------------------   --------------------
FINAL SINGLE POINT ENERGY       -77.461396763240
-------------------------   --------------------


                            ***************************************
                            *     ORCA property calculations      *
                            ***************************************

                                    ---------------------
                                    Active property flags
                                    ---------------------
   (+) Dipole Moment


------------------------------------------------------------------------------
                       ORCA ELECTRIC PROPERTIES CALCULATION
------------------------------------------------------------------------------

Dipole Moment Calculation                       ... on
Quadrupole Moment Calculation                   ... off
Polarizability Calculation                      ... off
GBWName                                         ... 75_Re_atom75.gbw
Electron density file                           ... 75_Re_atom75.scfp
The origin for moment calculation is the CENTER OF MASS  = ( 0.000000,  0.000000  0.000000)

-------------
DIPOLE MOMENT
-------------
                                X             Y             Z
Electronic contribution:     -0.00000       0.00000       0.00000
Nuclear contribution   :      0.00000       0.00000       0.00000
                        -----------------------------------------
Total Dipole Moment    :     -0.00000       0.00000       0.00000
                        -----------------------------------------
Magnitude (a.u.)       :      0.00000
Magnitude (Debye)      :      0.00000



--------------------
Rotational spectrum 
--------------------
 
Rotational constants in cm-1:     0.000000     0.000000     0.000000 
Rotational constants in MHz :     0.000000     0.000000     0.000000 

 Dipole components along the rotational axes: 
x,y,z [a.u.] :    -0.000000     0.000000     0.000000 
x,y,z [Debye]:    -0.000000     0.000000     0.000000 

 

Timings for individual modules:

Sum of individual times         ...        1.473 sec (=   0.025 min)
GTO integral calculation        ...        0.268 sec (=   0.004 min)  18.2 %
SCF iterations                  ...        1.205 sec (=   0.020 min)  81.8 %
                             ****ORCA TERMINATED NORMALLY****
TOTAL RUN TIME: 0 days 0 hours 0 minutes 1 seconds 689 msec
