
                                 *****************
                                 * O   R   C   A *
                                 *****************

           --- An Ab Initio, DFT and Semiempirical electronic structure package ---

                  #######################################################
                  #                        -***-                        #
                  #          Department of theory and spectroscopy      #
                  #               Directorship: Frank Neese             #
                  #        Max Planck Institute fuer Kohlenforschung    #
                  #                Kaiser Wilhelm Platz 1               #
                  #                 D-45470 Muelheim/Ruhr               #
                  #                      Germany                        #
                  #                                                     #
                  #                  All rights reserved                #
                  #                        -***-                        #
                  #######################################################


                         Program Version 4.2.0 -  RELEASE  -


 With contributions from (in alphabetic order):
   Daniel Aravena         : Magnetic Suceptibility
   Michael Atanasov       : Ab Initio Ligand Field Theory (pilot matlab implementation)
   Alexander A. Auer      : GIAO ZORA, VPT2
   Ute Becker             : Parallelization
   Giovanni Bistoni       : ED, misc. LED, open-shell LED, HFLED
   Martin Brehm           : Molecular dynamics
   Dmytro Bykov           : SCF Hessian
   Vijay G. Chilkuri      : MRCI spin determinant printing, contributions to CSF-ICE
   Dipayan Datta          : RHF DLPNO-CCSD density
   Achintya Kumar Dutta   : EOM-CC, STEOM-CC
   Dmitry Ganyushin       : Spin-Orbit,Spin-Spin,Magnetic field MRCI
   Miquel Garcia          : C-PCM Hessian, Gaussian charge scheme
   Yang Guo               : DLPNO-NEVPT2, CIM, IAO-localization
   Andreas Hansen         : Spin unrestricted coupled pair/coupled cluster methods
   Benjamin Helmich-Paris : CASSCF linear response (MC-RPA)
   Lee Huntington         : MR-EOM, pCC
   Robert Izsak           : Overlap fitted RIJCOSX, COSX-SCS-MP3, EOM
   Christian Kollmar      : KDIIS, OOCD, Brueckner-CCSD(T), CCSD density
   Simone Kossmann        : Meta GGA functionals, TD-DFT gradient, OOMP2, MP2 Hessian
   Martin Krupicka        : AUTO-CI
   Lucas Lang             : DCDCAS
   Dagmar Lenk            : GEPOL surface, SMD
   Dimitrios Liakos       : Extrapolation schemes; Compound Job, initial MDCI parallelization
   Dimitrios Manganas     : Further ROCIS development; embedding schemes
   Dimitrios Pantazis     : SARC Basis sets
   Taras Petrenko         : DFT Hessian,TD-DFT gradient, ASA, ECA, R-Raman, ABS, FL, XAS/XES, NRVS
   Peter Pinski           : DLPNO-MP2, DLPNO-MP2 Gradient
   Christoph Reimann      : Effective Core Potentials
   Marius Retegan         : Local ZFS, SOC
   Christoph Riplinger    : Optimizer, TS searches, QM/MM, DLPNO-CCSD(T), (RO)-DLPNO pert. Triples
   Tobias Risthaus        : Range-separated hybrids, TD-DFT gradient, RPA, STAB
   Michael Roemelt        : Original ROCIS implementation
   Masaaki Saitow         : Open-shell DLPNO-CCSD energy and density
   Barbara Sandhoefer     : DKH picture change effects
   Avijit Sen             : IP-ROCIS
   Kantharuban Sivalingam : CASSCF convergence, NEVPT2, FIC-MRCI
   Bernardo de Souza      : ESD, SOC TD-DFT
   Georgi Stoychev        : AutoAux, RI-MP2 NMR
   Willem Van den Heuvel  : Paramagnetic NMR
   Boris Wezisla          : Elementary symmetry handling
   Frank Wennmohs         : Technical directorship


 We gratefully acknowledge several colleagues who have allowed us to
 interface, adapt or use parts of their codes:
   Stefan Grimme, W. Hujo, H. Kruse,             : VdW corrections, initial TS optimization,
                  C. Bannwarth                     DFT functionals, gCP, sTDA/sTD-DF
   Ed Valeev, F. Pavosevic, A. Kumar             : LibInt (2-el integral package), F12 methods
   Garnet Chan, S. Sharma, J. Yang, R. Olivares  : DMRG
   Ulf Ekstrom                                   : XCFun DFT Library
   Mihaly Kallay                                 : mrcc  (arbitrary order and MRCC methods)
   Andreas Klamt, Michael Diedenhofen            : otool_cosmo (COSMO solvation model)
   Jiri Pittner, Ondrej Demel                    : Mk-CCSD
   Frank Weinhold                                : gennbo (NPA and NBO analysis)
   Christopher J. Cramer and Donald G. Truhlar   : smd solvation model
   Lars Goerigk                                  : TD-DFT with DH, B97 family of functionals
   V. Asgeirsson, H. Jonsson                     : NEB implementation
   FAccTs GmbH                                   : IRC, NEB, NEB-TS, Multilevel, MM, QM/MM, CI optimization
   S Lehtola, MJT Oliveira, MAL Marques          : LibXC Library


 Your calculation uses the libint2 library for the computation of 2-el integrals
 For citations please refer to: http://libint.valeyev.net

 Your ORCA version has been built with support for libXC version: 4.2.3
 For citations please refer to: https://tddft.org/programs/libxc/

 This ORCA versions uses:
   CBLAS   interface :  Fast vector & matrix operations
   LAPACKE interface :  Fast linear algebra routines
   SCALAPACK package :  Parallel linear algebra routines


Setting NCore(Re) from 46 to 60
----- Orbital basis set information -----
Your calculation utilizes the basis: def2-QZVP
   F. Weigend and R. Ahlrichs, Phys. Chem. Chem. Phys. 7, 3297 (2005).

cite the ECPs for Re [Def2-ECP] as follows:
Ce-Yb(ecp-28): M. Dolg, H. Stoll, H.Preuss, J. Chem. Phys., 1989, 90, 1730-1734.
Y-Cd(ecp-28), Hf-Hg(ecp-46): D. Andrae,U. Haeussermann, M. Dolg, H. Stoll, H. Preuss, Theor. Chim. Acta, 1990, 77, 123-141.
In-Sb(ecp-28), Tl-Bi(ecp-46): B. Metz, H. Stoll, M. Dolg, J. Chem. Phys., 2000, 113, 2563-2569.
Te-Xe(ecp-28), Po-Rn(ecp-46): K. A. Peterson, D. Figgen, E. Goll, H. Stoll, M. Dolg, J. Chem. Phys., 2003, 119, 11113-11123.
Rb(ecp-28), Cs(ecp-46): T. Leininger, A. Nicklass, W. Kuechle, H. Stoll, M. Dolg, A. Bergner, Chem. Phys. Lett., 1996, 255, 274-280.
Sr(ecp-28), Ba(ecp-46): M. Kaupp, P. V. Schleyer, H. Stoll and H. Preuss, J. Chem. Phys., 1991, 94, 1360-1366.
La(ecp-46): M. Dolg, H. Stoll, A. Savin, H. Preuss, Theor. Chim. Acta, 1989, 75, 173-194.
Lu(ecp-28): X. Cao, M. Dolg, J. Chem. Phys., 2001, 115, 7348-7355.

ECP parameters for Re [Def2-ECP] have been obtained from:
TURBOMOLE (7.0.2)

================================================================================
                                        WARNINGS
                       Please study these warnings very carefully!
================================================================================


WARNING: your system is open-shell and RHF/RKS was chosen
  ===> : WILL SWITCH to UHF/UKS


WARNING: MDCI localization with Augmented Hessian Foster-Boys
  ===> : Switching off randomization!

WARNING: Post HF methods need fully converged wavefunctions
  ===> : Setting SCFConvForced true
         You can overwrite this default with %scf ConvForced false 


INFO   : the flag for use of LIBINT has been found!

================================================================================
                                       INPUT FILE
================================================================================
NAME = 75_Re.in
|  1> #
|  2> # 75_Re CCSD(T)/Def2-QZVP
|  3> #
|  4> ! CCSD(T) Def2-QZVP tightscf slowconv
|  5> 
|  6> *xyz 0 6
|  7>  Re 0.0 0.0 0.0
|  8> *
|  9> 
| 10> %maxcore 5000 
| 11> 
| 12> %pal
| 13> nprocs 24
| 14> end
| 15> 
| 16> %method
| 17> NewNCore Re 60 end
| 18> end
| 19> 
| 20> 
| 21>                          ****END OF INPUT****
================================================================================

                       ****************************
                       * Single Point Calculation *
                       ****************************

---------------------------------
CARTESIAN COORDINATES (ANGSTROEM)
---------------------------------
  Re     0.000000    0.000000    0.000000

----------------------------
CARTESIAN COORDINATES (A.U.)
----------------------------
  NO LB      ZA    FRAG     MASS         X           Y           Z
   0 Re   15.0000*   0   186.207    0.000000    0.000000    0.000000
* core charge reduced due to ECP

--------------------------------
INTERNAL COORDINATES (ANGSTROEM)
--------------------------------
 Re     0   0   0     0.000000000000     0.00000000     0.00000000

---------------------------
INTERNAL COORDINATES (A.U.)
---------------------------
 Re     0   0   0     0.000000000000     0.00000000     0.00000000

---------------------
BASIS SET INFORMATION
---------------------
There are 1 groups of distinct atoms

 Group   1 Type Re  : 10s8p6d3f1g contracted to 7s5p4d3f1g pattern {4111111/41111/3111/111/1}

Atom   0Re   basis set group =>   1
-------------------------
ECP PARAMETER INFORMATION
-------------------------

 Group 1, Type Re ECP Def2-ECP (replacing 60 core electrons, lmax=3)

Atom   0Re   ECP group =>   1



           ************************************************************
           *        Program running with 24 parallel MPI-processes    *
           *              working on a common directory               *
           ************************************************************
------------------------------------------------------------------------------
                           ORCA GTO INTEGRAL CALCULATION
------------------------------------------------------------------------------

                         BASIS SET STATISTICS AND STARTUP INFO

 # of primitive gaussian shells          ...   28
 # of primitive gaussian functions       ...   94
 # of contracted shells                  ...   20
 # of contracted basis functions         ...   72
 Highest angular momentum                ...    4
 Maximum contraction depth               ...    4
 Integral package used                   ... LIBINT
 Integral threshhold            Thresh   ...  2.500e-11
 Primitive cut-off              TCut     ...  2.500e-12


------------------------------ INTEGRAL EVALUATION ----------------------------


 * One electron integrals 

   ECP integrals                         ... done
 Pre-screening matrix                    ... done
 Shell pair data                         ... done (   0.000 sec)



           ************************************************************
           *        Program running with 24 parallel MPI-processes    *
           *              working on a common directory               *
           ************************************************************
-------------------------------------------------------------------------------
                                 ORCA SCF
-------------------------------------------------------------------------------

------------
SCF SETTINGS
------------
Hamiltonian:
 Ab initio Hamiltonian  Method          .... Hartree-Fock(GTOs)


General Settings:
 Integral files         IntName         .... 75_Re
 Hartree-Fock type      HFTyp           .... UHF
 Total Charge           Charge          ....    0
 Multiplicity           Mult            ....    6
 Number of Electrons    NEL             ....   15
 Basis Dimension        Dim             ....   72
 Nuclear Repulsion      ENuc            ....      0.0000000000 Eh

Convergence Acceleration:
 DIIS                   CNVDIIS         .... on
   Start iteration      DIISMaxIt       ....     0
   Startup error        DIISStart       ....  0.200000
   # of expansion vecs  DIISMaxEq       ....     5
   Bias factor          DIISBfac        ....   1.050
   Max. coefficient     DIISMaxC        ....  10.000
 Newton-Raphson         CNVNR           .... off
 SOSCF                  CNVSOSCF        .... off
 Level Shifting         CNVShift        .... on
   Level shift para.    LevelShift      ....    0.2500
   Turn off err/grad.   ShiftErr        ....    0.0000
 Zerner damping         CNVZerner       .... off
 Static damping         CNVDamp         .... on
   Fraction old density DampFac         ....    0.8500
   Max. Damping (<1)    DampMax         ....    0.9800
   Min. Damping (>=0)   DampMin         ....    0.0000
   Turn off err/grad.   DampErr         ....    0.0300
 Fernandez-Rico         CNVRico         .... off

SCF Procedure:
 Maximum # iterations   MaxIter         ....   125
 SCF integral mode      SCFMode         .... Direct
   Integral package                     .... LIBINT
 Reset frequency        DirectResetFreq ....    20
 Integral Threshold     Thresh          ....  2.500e-11 Eh
 Primitive CutOff       TCut            ....  2.500e-12 Eh

Convergence Tolerance:
 Convergence Check Mode ConvCheckMode   .... Total+1el-Energy
 Convergence forced     ConvForced      .... 1
 Energy Change          TolE            ....  1.000e-08 Eh
 1-El. energy change                    ....  1.000e-05 Eh
 DIIS Error             TolErr          ....  5.000e-07


Diagonalization of the overlap matrix:
Smallest eigenvalue                        ... 5.960e-03
Time for diagonalization                   ...    0.003 sec
Threshold for overlap eigenvalues          ... 1.000e-08
Number of eigenvalues below threshold      ... 0
Time for construction of square roots      ...    0.012 sec
Total time needed                          ...    0.015 sec

-------------------
DFT GRID GENERATION
-------------------

General Integration Accuracy     IntAcc      ...  4.340
Radial Grid Type                 RadialGrid  ... Gauss-Chebyshev
Angular Grid (max. acc.)         AngularGrid ... Lebedev-110
Angular grid pruning method      GridPruning ... 3 (G Style)
Weight generation scheme         WeightScheme... Becke
Basis function cutoff            BFCut       ...    1.0000e-11
Integration weight cutoff        WCut        ...    1.0000e-14
Grids for H and He will be reduced by one unit

# of grid points (after initial pruning)     ...   3530 (   0.0 sec)
# of grid points (after weights+screening)   ...   3530 (   0.0 sec)
Grid point division into batches done        ...    0.0 sec
Reduced shell lists constructed in    0.0 sec

Total number of grid points                  ...     3530
Total number of batches                      ...       56
Average number of points per batch           ...       63
Average number of grid points per atom       ...     3530
Average number of shells per batch           ...     6.00 (30.00%)
Average number of basis functions per batch  ...    19.50 (27.08%)
Average number of large shells per batch     ...     3.75 (62.50%)
Average number of large basis fcns per batch ...     9.75 (50.00%)
Maximum spatial batch extension              ...  25.56, 38.92, 38.92 au
Average spatial batch extension              ...   1.31,  1.85,  2.08 au

Time for grid setup =    0.117 sec

------------------------------
INITIAL GUESS: MODEL POTENTIAL
------------------------------
Loading Hartree-Fock densities                     ... done
  calling /sw/apps/orca/orca_4_2_0_linux_x86-64_openmpi314/orca 75_Re_atom75.inp > 75_Re_atom75.out in order to generate an atomic fitting density for atom 0 (Re with ECP) on-the-fly... 
    atom 0 (Re), assumed electronic state with S=6: 1s2 2s2 2p6 3s2 3p6 4s2 3d10 4p6 5s2 4d10 5p6 6s2 4f14 5d5           ... done
Calculating cut-offs                               ... done
Setting up the integral package                    ... done
Initializing the effective Hamiltonian             ... done
Starting the Coulomb interaction                   ... done (   0.0 sec)
Reading the grid                                   ... done
Mapping shells                                     ... done
Starting the XC term evaluation                    ... done (   0.0 sec)
Transforming the Hamiltonian                       ... done (   0.0 sec)
Diagonalizing the Hamiltonian                      ... done (   0.0 sec)
Back transforming the eigenvectors                 ... done (   0.0 sec)
Now organizing SCF variables                       ... done
                      ------------------
                      INITIAL GUESS DONE (   1.9 sec)
                      ------------------
--------------
SCF ITERATIONS
--------------
ITER       Energy         Delta-E        Max-DP      RMS-DP      [F,P]     Damp
               ***  Starting incremental Fock matrix formation  ***
  0    -77.4374548192   0.000000000000 0.08214088  0.00148520  0.4063937 0.8500
  1    -77.4495432030  -0.012088383763 0.07324109  0.00133433  0.3476660 0.8500
                               ***Turning on DIIS***
  2    -77.4603118757  -0.010768672773 0.06270940  0.00114886  0.2967337 0.8500
  3    -77.5074222858  -0.047110410089 0.05421828  0.00100292  0.2533318 0.8500
  4    -77.5351347394  -0.027712453534 0.04720051  0.00088789  0.2161657 0.8500
  5    -77.5327207713   0.002413968019 0.04091301  0.00078579  0.1842554 0.8500
  6    -77.5269446443   0.005776126995 0.03526524  0.00069280  0.1569261 0.8500
  7    -77.5174071257   0.009537518668 0.03030995  0.00061058  0.1335780 0.8500
  8    -77.5168549542   0.000552171483 0.02594216  0.00053745  0.1136575 0.8500
  9    -77.5206009721  -0.003746017886 0.02213154  0.00047263  0.0966879 0.8500
 10    -77.5248881347  -0.004287162584 0.01885141  0.00041552  0.0822484 0.8500
 11    -77.5283566336  -0.003468498901 0.01604862  0.00036536  0.0699668 0.8500
 12    -77.5308032334  -0.002446599878 0.01375483  0.00032126  0.0595205 0.8500
 13    -77.5325647060  -0.001761472535 0.01180844  0.00028243  0.0506342 0.8500
 14    -77.5338777773  -0.001313071320 0.01013351  0.00024819  0.0430745 0.8500
 15    -77.5348590732  -0.000981295936 0.00869313  0.00021800  0.0366434 0.8500
 16    -77.5355743964  -0.000715323158 0.00768873  0.00019138  0.0311724 0.8500
 17    -77.5360758211  -0.000501424745 0.04686508  0.00111952  0.0265184 0.0000
 18    -77.5354193126   0.000656508526 0.00447308  0.00007315  0.0004593 0.0000
 19    -77.5356414890  -0.000222176409 0.00458440  0.00007104  0.0003365 0.0000
               *** Restarting incremental Fock matrix formation ***
                                   *** Resetting DIIS ***
 20    -77.5353080903   0.000333398725 0.00294367  0.00004111  0.0001965 0.0000
 21    -77.5357891539  -0.000481063580 0.00278919  0.00003976  0.0001280 0.0000
 22    -77.5357976531  -0.000008499199 0.00198360  0.00002827  0.0000716 0.0000
 23    -77.5355014750   0.000296178118 0.00106433  0.00001483  0.0000359 0.0000
 24    -77.5354800357   0.000021439247 0.00070036  0.00000974  0.0000193 0.0000
 25    -77.5354170685   0.000062967256 0.00040295  0.00000558  0.0000100 0.0000
 26    -77.5353772544   0.000039814025 0.00021822  0.00000302  0.0000050 0.0000
 27    -77.5353438839   0.000033370485 0.00010204  0.00000141  0.0000023 0.0000
 28    -77.5353269980   0.000016885974 0.00004467  0.00000061  0.0000011 0.0000
                            ***DIIS convergence achieved***

               *****************************************************
               *                     SUCCESS                       *
               *           SCF CONVERGED AFTER  29 CYCLES          *
               *****************************************************


----------------
TOTAL SCF ENERGY
----------------

Total Energy       :          -77.53531711 Eh           -2109.84324 eV

Components:
Nuclear Repulsion  :            0.00000000 Eh               0.00000 eV
Electronic Energy  :          -77.53531711 Eh           -2109.84324 eV
One Electron Energy:         -132.50714014 Eh           -3605.70259 eV
Two Electron Energy:           54.97182302 Eh            1495.85935 eV

Virial components:
Potential Energy   :         -104.20130709 Eh           -2835.46172 eV
Kinetic Energy     :           26.66598998 Eh             725.61848 eV
Virial Ratio       :            3.90764818


---------------
SCF CONVERGENCE
---------------

  Last Energy change         ...    9.8851e-06  Tolerance :   1.0000e-08
  Last MAX-Density change    ...    1.6023e-05  Tolerance :   1.0000e-07
  Last RMS-Density change    ...    2.1803e-07  Tolerance :   5.0000e-09
  Last DIIS Error            ...    4.4700e-07  Tolerance :   5.0000e-07

             **** THE GBW FILE WAS UPDATED (75_Re.gbw) ****
             **** DENSITY FILE WAS UPDATED (75_Re.scfp) ****
             **** ENERGY FILE WAS UPDATED (75_Re.en.tmp) ****
----------------------
UHF SPIN CONTAMINATION
----------------------

Expectation value of <S**2>     :     8.802877
Ideal value S*(S+1) for S=2.5   :     8.750000
Deviation                       :     0.052877

             **** THE GBW FILE WAS UPDATED (75_Re.gbw) ****
             **** DENSITY FILE WAS UPDATED (75_Re.scfp) ****
----------------
ORBITAL ENERGIES
----------------
                 SPIN UP ORBITALS
  NO   OCC          E(Eh)            E(eV) 
   0   1.0000      -3.790769      -103.1521 
   1   1.0000      -2.231302       -60.7168 
   2   1.0000      -2.231302       -60.7168 
   3   1.0000      -2.231302       -60.7168 
   4   1.0000      -0.442736       -12.0475 
   5   1.0000      -0.442736       -12.0475 
   6   1.0000      -0.442736       -12.0475 
   7   1.0000      -0.442736       -12.0475 
   8   1.0000      -0.442736       -12.0475 
   9   1.0000      -0.325647        -8.8613 
  10   0.0000       0.038416         1.0453 
  11   0.0000       0.038416         1.0453 
  12   0.0000       0.038416         1.0453 
  13   0.0000       0.104279         2.8376 
  14   0.0000       0.257588         7.0093 
  15   0.0000       0.257588         7.0093 
  16   0.0000       0.257588         7.0093 
  17   0.0000       0.328710         8.9446 
  18   0.0000       0.328710         8.9446 
  19   0.0000       0.328710         8.9446 
  20   0.0000       0.328710         8.9446 
  21   0.0000       0.328710         8.9446 
  22   0.0000       0.591172        16.0866 
  23   0.0000       0.626827        17.0568 
  24   0.0000       0.626827        17.0568 
  25   0.0000       0.626827        17.0568 
  26   0.0000       0.626827        17.0568 
  27   0.0000       0.626827        17.0568 
  28   0.0000       0.626827        17.0568 
  29   0.0000       0.626827        17.0568 
  30   0.0000       1.162229        31.6259 
  31   0.0000       1.162229        31.6259 
  32   0.0000       1.162229        31.6259 
  33   0.0000       1.290374        35.1129 
  34   0.0000       1.290374        35.1129 
  35   0.0000       1.290374        35.1129 
  36   0.0000       1.290374        35.1129 
  37   0.0000       1.290374        35.1129 
  38   0.0000       1.620136        44.0861 
  39   0.0000       1.620136        44.0861 
  40   0.0000       1.620136        44.0861 
  41   0.0000       1.620136        44.0861 
  42   0.0000       1.620136        44.0861 
  43   0.0000       1.620136        44.0861 
  44   0.0000       1.620136        44.0861 
  45   0.0000       2.589221        70.4563 
  46   0.0000       2.589221        70.4563 
  47   0.0000       2.589221        70.4563 
  48   0.0000       2.589221        70.4563 
  49   0.0000       2.589221        70.4563 
  50   0.0000       2.589221        70.4563 
  51   0.0000       2.589221        70.4563 
  52   0.0000       2.589221        70.4563 
  53   0.0000       2.589221        70.4563 
  54   0.0000       2.969276        80.7981 
  55   0.0000       4.397566       119.6639 
  56   0.0000       4.397566       119.6639 
  57   0.0000       4.397566       119.6639 
  58   0.0000       4.397566       119.6639 
  59   0.0000       4.397566       119.6639 
  60   0.0000       4.397566       119.6639 
  61   0.0000       4.397566       119.6639 
  62   0.0000       4.790646       130.3601 
  63   0.0000       4.790646       130.3601 
  64   0.0000       4.790646       130.3601 
  65   0.0000       4.790646       130.3601 
  66   0.0000       4.790646       130.3601 
  67   0.0000      38.726915      1053.8129 
  68   0.0000      38.726915      1053.8129 
  69   0.0000      38.726915      1053.8129 
  70   0.0000      73.497622      1999.9720 
  71   0.0000     530.690820     14440.8314 

                 SPIN DOWN ORBITALS
  NO   OCC          E(Eh)            E(eV) 
   0   1.0000      -3.572852       -97.2223 
   1   1.0000      -1.914592       -52.0987 
   2   1.0000      -1.914592       -52.0987 
   3   1.0000      -1.914592       -52.0987 
   4   1.0000      -0.222860        -6.0643 
   5   0.0000       0.052998         1.4422 
   6   0.0000       0.052998         1.4422 
   7   0.0000       0.052998         1.4422 
   8   0.0000       0.127112         3.4589 
   9   0.0000       0.133628         3.6362 
  10   0.0000       0.133628         3.6362 
  11   0.0000       0.133628         3.6362 
  12   0.0000       0.133628         3.6362 
  13   0.0000       0.133628         3.6362 
  14   0.0000       0.305072         8.3014 
  15   0.0000       0.305072         8.3014 
  16   0.0000       0.305072         8.3014 
  17   0.0000       0.398698        10.8491 
  18   0.0000       0.398698        10.8491 
  19   0.0000       0.398698        10.8491 
  20   0.0000       0.398698        10.8491 
  21   0.0000       0.398698        10.8491 
  22   0.0000       0.655784        17.8448 
  23   0.0000       0.686438        18.6789 
  24   0.0000       0.686438        18.6789 
  25   0.0000       0.686438        18.6789 
  26   0.0000       0.686438        18.6789 
  27   0.0000       0.686438        18.6789 
  28   0.0000       0.686438        18.6789 
  29   0.0000       0.686438        18.6789 
  30   0.0000       1.244503        33.8646 
  31   0.0000       1.244503        33.8646 
  32   0.0000       1.244503        33.8646 
  33   0.0000       1.382293        37.6141 
  34   0.0000       1.382293        37.6141 
  35   0.0000       1.382293        37.6141 
  36   0.0000       1.382293        37.6141 
  37   0.0000       1.382293        37.6141 
  38   0.0000       1.782359        48.5005 
  39   0.0000       1.782359        48.5005 
  40   0.0000       1.782359        48.5005 
  41   0.0000       1.782359        48.5005 
  42   0.0000       1.782359        48.5005 
  43   0.0000       1.782359        48.5005 
  44   0.0000       1.782359        48.5005 
  45   0.0000       2.700988        73.4976 
  46   0.0000       2.700988        73.4976 
  47   0.0000       2.700988        73.4976 
  48   0.0000       2.700988        73.4976 
  49   0.0000       2.700988        73.4976 
  50   0.0000       2.700988        73.4976 
  51   0.0000       2.700988        73.4976 
  52   0.0000       2.700988        73.4976 
  53   0.0000       2.700988        73.4976 
  54   0.0000       3.048810        82.9623 
  55   0.0000       4.512606       122.7943 
  56   0.0000       4.512606       122.7943 
  57   0.0000       4.512606       122.7943 
  58   0.0000       4.512606       122.7943 
  59   0.0000       4.512606       122.7943 
  60   0.0000       4.512606       122.7943 
  61   0.0000       4.512606       122.7943 
  62   0.0000       4.868094       132.4676 
  63   0.0000       4.868094       132.4676 
  64   0.0000       4.868094       132.4676 
  65   0.0000       4.868094       132.4676 
  66   0.0000       4.868094       132.4676 
  67   0.0000      38.755752      1054.5976 
  68   0.0000      38.755752      1054.5976 
  69   0.0000      38.755752      1054.5976 
  70   0.0000      73.506513      2000.2139 
  71   0.0000     530.691184     14440.8413 

                    ********************************
                    * MULLIKEN POPULATION ANALYSIS *
                    ********************************

--------------------------------------------
MULLIKEN ATOMIC CHARGES AND SPIN POPULATIONS
--------------------------------------------
   0 Re:   -0.000000    5.000000
Sum of atomic charges         :   -0.0000000
Sum of atomic spin populations:    5.0000000

-----------------------------------------------------
MULLIKEN REDUCED ORBITAL CHARGES AND SPIN POPULATIONS
-----------------------------------------------------
CHARGE
  0 Res       :     4.000000  s :     4.000000
      pz      :     2.000000  p :     6.000000
      px      :     2.000000
      py      :     2.000000
      dz2     :     1.000000  d :     5.000000
      dxz     :     1.000000
      dyz     :     1.000000
      dx2y2   :     1.000000
      dxy     :     1.000000
      f0      :     0.000000  f :     0.000000
      f+1     :     0.000000
      f-1     :     0.000000
      f+2     :     0.000000
      f-2     :     0.000000
      f+3     :     0.000000
      f-3     :     0.000000
      g0      :     0.000000  g :     0.000000
      g+1     :     0.000000
      g-1     :     0.000000
      g+2     :     0.000000
      g-2     :     0.000000
      g+3     :     0.000000
      g-3     :     0.000000
      g+4     :     0.000000
      g-4     :     0.000000

SPIN
  0 Res       :     0.000000  s :     0.000000
      pz      :     0.000000  p :     0.000000
      px      :     0.000000
      py      :    -0.000000
      dz2     :     1.000000  d :     5.000000
      dxz     :     1.000000
      dyz     :     1.000000
      dx2y2   :     1.000000
      dxy     :     1.000000
      f0      :    -0.000000  f :    -0.000000
      f+1     :    -0.000000
      f-1     :    -0.000000
      f+2     :    -0.000000
      f-2     :    -0.000000
      f+3     :    -0.000000
      f-3     :    -0.000000
      g0      :     0.000000  g :     0.000000
      g+1     :     0.000000
      g-1     :     0.000000
      g+2     :     0.000000
      g-2     :     0.000000
      g+3     :     0.000000
      g-3     :     0.000000
      g+4     :     0.000000
      g-4     :     0.000000


                     *******************************
                     * LOEWDIN POPULATION ANALYSIS *
                     *******************************

-------------------------------------------
LOEWDIN ATOMIC CHARGES AND SPIN POPULATIONS
-------------------------------------------
   0 Re:   -0.000000    5.000000

----------------------------------------------------
LOEWDIN REDUCED ORBITAL CHARGES AND SPIN POPULATIONS
----------------------------------------------------
CHARGE
  0 Res       :     4.000000  s :     4.000000
      pz      :     2.000000  p :     6.000000
      px      :     2.000000
      py      :     2.000000
      dz2     :     1.000000  d :     5.000000
      dxz     :     1.000000
      dyz     :     1.000000
      dx2y2   :     1.000000
      dxy     :     1.000000
      f0      :     0.000000  f :     0.000000
      f+1     :     0.000000
      f-1     :     0.000000
      f+2     :     0.000000
      f-2     :     0.000000
      f+3     :     0.000000
      f-3     :     0.000000
      g0      :     0.000000  g :     0.000000
      g+1     :     0.000000
      g-1     :     0.000000
      g+2     :     0.000000
      g-2     :     0.000000
      g+3     :     0.000000
      g-3     :     0.000000
      g+4     :     0.000000
      g-4     :     0.000000

SPIN
  0 Res       :     0.000000  s :     0.000000
      pz      :     0.000000  p :     0.000000
      px      :     0.000000
      py      :    -0.000000
      dz2     :     1.000000  d :     5.000000
      dxz     :     1.000000
      dyz     :     1.000000
      dx2y2   :     1.000000
      dxy     :     1.000000
      f0      :    -0.000000  f :    -0.000000
      f+1     :    -0.000000
      f-1     :    -0.000000
      f+2     :    -0.000000
      f-2     :    -0.000000
      f+3     :    -0.000000
      f-3     :    -0.000000
      g0      :     0.000000  g :     0.000000
      g+1     :     0.000000
      g-1     :     0.000000
      g+2     :     0.000000
      g-2     :     0.000000
      g+3     :     0.000000
      g-3     :     0.000000
      g+4     :     0.000000
      g-4     :     0.000000


                      *****************************
                      * MAYER POPULATION ANALYSIS *
                      *****************************

  NA   - Mulliken gross atomic population
  ZA   - Total nuclear charge
  QA   - Mulliken gross atomic charge
  VA   - Mayer's total valence
  BVA  - Mayer's bonded valence
  FA   - Mayer's free valence

  ATOM       NA         ZA         QA         VA         BVA        FA
  0 Re    15.0000    15.0000    -0.0000     5.1058     0.0000     5.1058

  Mayer bond orders larger than 0.100000


-------
TIMINGS
-------

Total SCF time: 0 days 0 hours 0 min 7 sec 

Total time                  ....       7.810 sec
Sum of individual times     ....       7.201 sec  ( 92.2%)

Fock matrix formation       ....       4.447 sec  ( 56.9%)
Diagonalization             ....       0.175 sec  (  2.2%)
Density matrix formation    ....       0.018 sec  (  0.2%)
Population analysis         ....       0.069 sec  (  0.9%)
Initial guess               ....       1.835 sec  ( 23.5%)
Orbital Transformation      ....       0.000 sec  (  0.0%)
Orbital Orthonormalization  ....       0.000 sec  (  0.0%)
DIIS solution               ....       0.540 sec  (  6.9%)


           ************************************************************
           *        Program running with 24 parallel MPI-processes    *
           *              working on a common directory               *
           ************************************************************


------------------------------------------------------------------------------- 
                              ORCA-MATRIX DRIVEN CI                            
------------------------------------------------------------------------------- 

--------------------------------
AUTOMATIC CHOICE OF INCORE LEVEL
--------------------------------

Memory available                           ...   2500.00 MB
Memory needed for S+T                      ...      4.84 MB
Memory needed for J+K                      ...      9.73 MB
Memory needed for DIIS                     ...     67.75 MB
Memory needed for 3-ext                    ...     18.18 MB
Memory needed for 4-ext                    ...     57.28 MB
Memory needed for triples                  ...      9.09 MB
 -> Final InCoreLevel    ... 5
 -> check shows that triples correction can be computed


Wavefunction type
-----------------
Correlation treatment                      ...      CCSD     
Single excitations                         ... ON
Orbital optimization                       ... OFF
Calculation of Z vector                    ... OFF
Calculation of Brueckner orbitals          ... OFF
Perturbative triple excitations            ... ON
Calculation of F12 correction              ... OFF
Frozen core treatment                      ... chemical core (0 el)
Reference Wavefunction                     ... UHF
  Alpha-MOs occ    :     0 ...    9 ( 10 MO's/ 10 electrons)
  Beta-MOs occ     :     0 ...    4 (  5 MO's/  5 electrons)
  Alpha-MOs virt   :    10 ...   71 ( 62 MO's              )
  Beta-MOs virt    :     5 ...   71 ( 67 MO's              )
Number of AO's                             ...     72
Number of electrons                        ...     15
Number of correlated electrons             ...     15

Algorithmic settings
--------------------
Integral transformation                    ... AO direct full transformation
K(C) Formation                             ... FULL-MO TRAFO
Maximum number of iterations               ...        50
Convergence tolerance (max. residuum)      ... 1.000e-05
Level shift for amplitude update           ... 2.000e-01
Maximum number of DIIS vectors             ...         7
DIIS turned on at iteration                ...         0
Damping before turning on DIIS             ...     0.500
Damping after turning on DIIS              ...     0.000
Pair specific amplitude update             ... OFF
Natural orbital iterations                 ... OFF
Perturbative natural orbital generation    ... OFF
Printlevel                                 ... 2

Memory handling:
----------------
Maximum memory for working arrays          ...   2500 MB
Data storage in matrix containers          ... UNCOMPRESSED
Data type for integral storage             ... DOUBLE
In-Core Storage of quantities:
   Amplitudes+Sigma Vector      ... YES
   J+K operators                ... YES
   DIIS vectors                 ... YES
   3-external integrals         ... YES
   4-external integrals         ... YES


Initializing the integral package          ... done
Warning: reference  - re-canonicalizations have been set to INT 1 VIRT 1

--------------------------
UNRESTRICTED FOCK OPERATOR
--------------------------

<ss|ss>:          406 b            0 skpd (  0.0%)    0.000 s ( 0.000 ms/b)
<ss|sp>:          980 b            0 skpd (  0.0%)    0.000 s ( 0.000 ms/b)
<ss|sd>:          784 b            0 skpd (  0.0%)    0.000 s ( 0.000 ms/b)
<ss|sf>:          588 b            0 skpd (  0.0%)    0.000 s ( 0.000 ms/b)
<ss|sg>:          196 b            0 skpd (  0.0%)    0.000 s ( 0.001 ms/b)
<ss|pp>:          420 b            0 skpd (  0.0%)    0.000 s ( 0.000 ms/b)
<ss|pd>:          560 b            0 skpd (  0.0%)    0.000 s ( 0.000 ms/b)
<ss|pf>:          420 b            0 skpd (  0.0%)    0.000 s ( 0.000 ms/b)
<ss|pg>:          140 b            0 skpd (  0.0%)    0.000 s ( 0.001 ms/b)
<ss|dd>:          280 b            0 skpd (  0.0%)    0.000 s ( 0.001 ms/b)
<ss|df>:          336 b            0 skpd (  0.0%)    0.000 s ( 0.001 ms/b)
<ss|dg>:          112 b            0 skpd (  0.0%)    0.000 s ( 0.002 ms/b)
<ss|ff>:          168 b            0 skpd (  0.0%)    0.000 s ( 0.001 ms/b)
<ss|fg>:           84 b            0 skpd (  0.0%)    0.000 s ( 0.003 ms/b)
<ss|gg>:           28 b            0 skpd (  0.0%)    0.000 s ( 0.012 ms/b)
<sp|sp>:          630 b            0 skpd (  0.0%)    0.000 s ( 0.000 ms/b)
<sp|sd>:          980 b            0 skpd (  0.0%)    0.000 s ( 0.000 ms/b)
<sp|sf>:          735 b            0 skpd (  0.0%)    0.000 s ( 0.000 ms/b)
<sp|sg>:          245 b            0 skpd (  0.0%)    0.000 s ( 0.002 ms/b)
<sp|pp>:          525 b            0 skpd (  0.0%)    0.000 s ( 0.001 ms/b)
<sp|pd>:          700 b            0 skpd (  0.0%)    0.001 s ( 0.001 ms/b)
<sp|pf>:          525 b            0 skpd (  0.0%)    0.000 s ( 0.001 ms/b)
<sp|pg>:          175 b            0 skpd (  0.0%)    0.001 s ( 0.003 ms/b)
<sp|dd>:          350 b            0 skpd (  0.0%)    0.001 s ( 0.001 ms/b)
<sp|df>: done
<sp|dg>: done
<sp|ff>: done
<sp|fg>: done
<sp|gg>: done
<sd|sd>:          406 b            0 skpd (  0.0%)    0.000 s ( 0.000 ms/b)
<sd|sf>:          588 b            0 skpd (  0.0%)    0.000 s ( 0.000 ms/b)
<sd|sg>:          196 b            0 skpd (  0.0%)    0.001 s ( 0.003 ms/b)
<sd|pp>:          420 b            0 skpd (  0.0%)    0.000 s ( 0.001 ms/b)
<sd|pd>:          560 b            0 skpd (  0.0%)    0.001 s ( 0.001 ms/b)
<sd|pf>: done
<sd|pg>: done
<sd|dd>:          280 b            0 skpd (  0.0%)    0.001 s ( 0.003 ms/b)
<sd|df>:          336 b            0 skpd (  0.0%)    0.002 s ( 0.005 ms/b)
<sd|dg>:          112 b            0 skpd (  0.0%)    0.001 s ( 0.009 ms/b)
<sd|ff>: done
<sd|fg>: done
<sd|gg>: done
<sf|sf>:          231 b            0 skpd (  0.0%)    0.000 s ( 0.001 ms/b)
<sf|sg>:          147 b            0 skpd (  0.0%)    0.001 s ( 0.004 ms/b)
<sf|pp>:          315 b            0 skpd (  0.0%)    0.000 s ( 0.001 ms/b)
<sf|pd>: done
<sf|pf>: done
<sf|pg>: done
<sf|dd>:          210 b            0 skpd (  0.0%)    0.001 s ( 0.004 ms/b)
<sf|df>: done
<sf|dg>: done
<sf|ff>: done
<sf|fg>: done
<sf|gg>: done
<sg|sg>:           28 b            0 skpd (  0.0%)    0.000 s ( 0.005 ms/b)
<sg|pp>:          105 b            0 skpd (  0.0%)    0.000 s ( 0.003 ms/b)
<sg|pd>: done
<sg|pf>: done
<sg|pg>: done
<sg|dd>:           70 b            0 skpd (  0.0%)    0.001 s ( 0.008 ms/b)
<sg|df>: done
<sg|dg>: done
<sg|ff>: done
<sg|fg>: done
<sg|gg>: done
<pp|pp>:          120 b            0 skpd (  0.0%)    0.000 s ( 0.003 ms/b)
<pp|pd>:          300 b            0 skpd (  0.0%)    0.000 s ( 0.001 ms/b)
<pp|pf>:          225 b            0 skpd (  0.0%)    0.000 s ( 0.001 ms/b)
<pp|pg>:           75 b            0 skpd (  0.0%)    0.000 s ( 0.007 ms/b)
<pp|dd>:          150 b            0 skpd (  0.0%)    0.000 s ( 0.003 ms/b)
<pp|df>:          180 b            0 skpd (  0.0%)    0.001 s ( 0.004 ms/b)
<pp|dg>:           60 b            0 skpd (  0.0%)    0.001 s ( 0.010 ms/b)
<pp|ff>:           90 b            0 skpd (  0.0%)    0.001 s ( 0.006 ms/b)
<pp|fg>:           45 b            0 skpd (  0.0%)    0.001 s ( 0.012 ms/b)
<pp|gg>:           15 b            0 skpd (  0.0%)    0.001 s ( 0.049 ms/b)
<pd|pd>:          210 b            0 skpd (  0.0%)    0.001 s ( 0.004 ms/b)
<pd|pf>:          300 b            0 skpd (  0.0%)    0.001 s ( 0.002 ms/b)
<pd|pg>:          100 b            0 skpd (  0.0%)    0.001 s ( 0.010 ms/b)
<pd|dd>:          200 b            0 skpd (  0.0%)    0.001 s ( 0.006 ms/b)
<pd|df>:          240 b            0 skpd (  0.0%)    0.002 s ( 0.008 ms/b)
<pd|dg>:           80 b            0 skpd (  0.0%)    0.002 s ( 0.019 ms/b)
<pd|ff>: done
<pd|fg>: done
<pd|gg>: done
<pf|pf>:          120 b            0 skpd (  0.0%)    0.001 s ( 0.005 ms/b)
<pf|pg>:           75 b            0 skpd (  0.0%)    0.001 s ( 0.014 ms/b)
<pf|dd>:          150 b            0 skpd (  0.0%)    0.001 s ( 0.008 ms/b)
<pf|df>: done
<pf|dg>: done
<pf|ff>: done
<pf|fg>: done
<pf|gg>: done
<pg|pg>:           15 b            0 skpd (  0.0%)    0.000 s ( 0.024 ms/b)
<pg|dd>:           50 b            0 skpd (  0.0%)    0.001 s ( 0.015 ms/b)
<pg|df>: done
<pg|dg>: done
<pg|ff>: done
<pg|fg>: done
<pg|gg>: done
<dd|dd>:           55 b            0 skpd (  0.0%)    0.001 s ( 0.020 ms/b)
<dd|df>:          120 b            0 skpd (  0.0%)    0.001 s ( 0.010 ms/b)
<dd|dg>:           40 b            0 skpd (  0.0%)    0.002 s ( 0.038 ms/b)
<dd|ff>:           60 b            0 skpd (  0.0%)    0.001 s ( 0.016 ms/b)
<dd|fg>:           30 b            0 skpd (  0.0%)    0.001 s ( 0.046 ms/b)
<dd|gg>:           10 b            0 skpd (  0.0%)    0.002 s ( 0.189 ms/b)
<df|df>:           78 b            0 skpd (  0.0%)    0.002 s ( 0.021 ms/b)
<df|dg>:           48 b            0 skpd (  0.0%)    0.002 s ( 0.050 ms/b)
<df|ff>: done
<df|fg>: done
<df|gg>: done
<dg|dg>:           10 b            0 skpd (  0.0%)    0.001 s ( 0.082 ms/b)
<dg|ff>: done
<dg|fg>: done
<dg|gg>: done
<ff|ff>: done
<ff|fg>: done
<ff|gg>: done
<fg|fg>: done
<fg|gg>: done
<gg|gg>: done
Recanonicalizing the internal orbitals
Recanonicalizing the virtual orbitals
Time needed for Fock operator              ...            0.085 sec
Reference energy                           ...    -77.535310375
Warning: for UHF the TrafoType has to be JK
Warning: for UHF the K(C)-option cannot be MO but must be AOX

-------------------------------
PARTIAL EXCHANGE TRANSFORMATION
-------------------------------

Transformation type                        ... two-operators
Generation of integrals (i,mue|j,nue)      ... ON
Generation of integrals (mue,kappa|nue,tau)... ON
Generation of integrals (i,mue|a,nue)      ... ON
Dimension of the basis                     ...   72
Number of internal alpha-MOs               ...   10 (   0-   9)
Number of internal beta-MOs                ...    5 (   0-   4)
Number of external alpha-MOs               ...   62 (  10-  71)
Number of external beta-MOs                ...   67 (   5-  71)
Pair cutoff                                ... 0.000e+00 Eh
Number of AO pairs in the trafo            ... 2628
Total Number of distinct AO pairs          ... 2628
Memory devoted for trafo                   ... 2500.0 MB 
Max. Number of MO pairs treated together   ... 63209      
Number Format for Storage                  ... Double (8 Byte)
Integral package used                      ... LIBINT

Starting integral evaluation:
    ... done with AO integral generation
Closing buffer AOK[aa] ( 0.00 GB; CompressionRatio= 0.00)
Closing buffer AOK[bb] ( 0.00 GB; CompressionRatio= 0.00)
Closing buffer AOK[ab] ( 0.00 GB; CompressionRatio= 0.00)
Closing buffer AOK[ba] ( 0.00 GB; CompressionRatio= 0.00)
Collecting buffer AOK 
Closing buffer IAAO1[aa] ( 0.00 GB; CompressionRatio= 0.00)
Closing buffer IAAO1[bb] ( 0.00 GB; CompressionRatio= 0.00)
Closing buffer IAAO1[ab] ( 0.00 GB; CompressionRatio= 0.00)
Closing buffer IAAO1[ba] ( 0.00 GB; CompressionRatio= 0.00)
Closing buffer IAAO2[aa] ( 0.00 GB; CompressionRatio= 0.00)
Closing buffer IAAO2[bb] ( 0.00 GB; CompressionRatio= 0.00)
Closing buffer IAAO2[ab] ( 0.00 GB; CompressionRatio= 0.00)
Closing buffer IAAO2[ba] ( 0.00 GB; CompressionRatio= 0.00)
Collecting buffer IAAO 
Closing buffer PRQS    ( 0.00 GB; CompressionRatio= 0.00)
Collecting buffer PRQS 
Number of alpha/alpha MO pairs in trafo    ...   55
Number of beta /beta  MO pairs in trafo    ...   15
Number of alpha/ beta MO pairs in trafo    ...   50
------------------------
SORTING OF (i,mue|j,nue)
------------------------

SORTING OF ALPHA/ALPHA PAIRS
IBATCH = 1 of  1
Closing buffer KAO[aa] ( 0.00 GB; CompressionRatio= 1.00)
Collecting buffer KAO 
SORTING OF BETA /BETA  PAIRS
IBATCH = 1 of  1
Closing buffer KAO[bb] ( 0.00 GB; CompressionRatio= 1.00)
Collecting buffer KAO 
SORTING OF ALPHA/BETA  PAIRS
IBATCH = 1 of  1
Closing buffer KAO[ab] ( 0.00 GB; CompressionRatio= 0.999710731848)
Collecting buffer KAO[ab] 
------------------------
SORTING OF (i,mue|a,nue)
------------------------

Number of alpha/alpha (i,a) pairs in trafo  ...  620
Number of beta /beta  (i,a) pairs in trafo  ...  335
Number of alpha/ beta (i,a) pairs in trafo  ...  670
Number of beta /alpha (i,a) pairs in trafo  ...  310
Setting up the alpha/alpha list             ... done
Setting up the beta /beta  list             ... done
Setting up the alpha/beta  list             ... done
Setting up the beta /alpha list             ... done
    ... Now sorting (i,mue|a,nue)integrals
    ... Integrals (i,b|a,c) will be made on the fly
SORTING OF ALPHA/ALPHA PAIRS
IBATCH = 1 of  1
Closing buffer IPAQ[aa]  0.00 GB; CompressionRatio= 1.00)
SORTING OF BETA /BETA  PAIRS
IBATCH = 1 of  1
Closing buffer IPAQ[bb]( 0.00 GB; CompressionRatio= 1.00)
SORTING OF ALPHA/BETA  PAIRS (NMatSort_ab=28)
IBATCH = 1 of  1
Closing buffer IPAQ[ab]( 0.00 GB; CompressionRatio= 1.00)
SORTING OF BETA/ALPHA  PAIRS
IBATCH = 1 of  1
Closing buffer IPAQ[ba]( 0.00 GB; CompressionRatio= 1.00)
N(AO-Batches) Done                         ...         0 
N(AO-Batches) Skipped                      ...         0 
N(IJ)-pairs Skipped                        ...         0 
TOTAL TIME for half transformation         ...     4.584 sec
AO-integral generation                     ...     0.000 sec
Half transformation                        ...     0.000 sec
K-integral sorting                         ...     1.047 sec
<ss|**>: 
------------------------------
PARTIAL COULOMB TRANSFORMATION
------------------------------

Transformation type                        ... two-operators
Dimension of the basis                     ...   72
Number of internal alpha-MOs               ...   10 (0-9)
Number of internal beta-MOs                ...    5 (0-4)
Pair cutoff                                ... 0.000e+00 Eh
Number of AO pairs included in the trafo   ... 2628
Total Number of distinct AO pairs          ... 2628
Memory devoted for trafo                   ... 2500.0 MB 
Max. Number of MO pairs treated together   ... 124687      
Max. Number of MOs treated per batch       ... 1731      
Number Format for Storage                  ... Double (8 Byte)
AO-integral source                         ... DIRECT
Integral package used                      ... LIBINT

Starting integral evaluation:
<sp|**>:         5880 b        0 skpd     0.003 s (  0.000 ms/b)
<sd|**>:         7350 b        0 skpd     0.020 s (  0.003 ms/b)
        5880 b        0 skpd     0.028 s (  0.005 ms/b)
<sf|**>:         4410 b        0 skpd     0.025 s (  0.006 ms/b)
<sg|**>: <pp|**>:         1470 b        0 skpd     0.019 s (  0.013 ms/b)
        3150 b        0 skpd     0.020 s (  0.006 ms/b)
<pd|**>:         4200 b        0 skpd     0.048 s (  0.011 ms/b)
<pf|**>:         3150 b        0 skpd     0.057 s (  0.018 ms/b)
<pg|**>:         1050 b        0 skpd     0.041 s (  0.039 ms/b)
<dd|**>:         2100 b        0 skpd     0.037 s (  0.018 ms/b)
<df|**>:         2520 b        0 skpd     0.077 s (  0.030 ms/b)
<dg|**>:          840 b        0 skpd     0.057 s (  0.068 ms/b)
<ff|**>:         1260 b        0 skpd     0.061 s (  0.048 ms/b)
<fg|**>:          630 b        0 skpd     0.062 s (  0.099 ms/b)
<gg|**>:          210 b        0 skpd     0.044 s (  0.208 ms/b)
Closing buffer AOJ[aa] ( 0.00 GB; CompressionRatio= 0.97)
Closing buffer AOJ[bb] ( 0.00 GB; CompressionRatio= 0.00)
Collecting buffer AOJ 
    ... done with AO integral generation
Number of Alpha-MO pairs included          ...   55
Number of Beta-MO pairs included           ...   15
    ... Now sorting integrals
SORTING ALPHA/ALPHA PAIRS
IBATCH = 1 of  1
Closing buffer JAO[aa] ( 0.00 GB; CompressionRatio= 1.00)
SORTING BETA/BETA PAIRS
IBATCH = 1 of  1
Closing buffer JAO[bb] ( 0.00 GB; CompressionRatio= 1.00)
Collecting buffer JAO 
TOTAL TIME for half transformation         ...     0.854 sec
AO-integral generation                     ...     0.361 sec
Half transformation                        ...     0.243 sec
J-integral sorting                         ...     0.099 sec

-------------------------- SECOND HALF TRANSFORMATION -------------------------
Formation of (ij|kl),(ij|ka), (ij|ab)      ... ok (     0.242 sec)
Formation of (ik|jl),(ik|ja), (ia|jb)      ... ok (     0.343 sec)


-----------------------
SPIN UNRESTRICTED GUESS
-----------------------

Entering MDCI_UHF_Guess, Tailored=0
Spin-components of the MP2 energy:
EMP2(aa)=     -0.112660248
EMP2(bb)=     -0.030371218
EMP2(ab)=     -0.255342315

Initial guess performed in     0.013 sec
E(0)                                       ...    -77.535310375
E(MP2)                                     ...     -0.398373781
Initial E(tot)                             ...    -77.933684155
<T|T>                                      ...      0.114355640
Number of pairs included                   ... 105

------------------------------------------------
                  UHF COUPLED CLUSTER ITERATIONS
------------------------------------------------

Number of amplitudes to be optimized       ...       317107

Iter       E(tot)           E(Corr)          Delta-E          Residual     Time      <S|S>**1/2
  0    -77.933684155     -0.398373781     -0.000000000      0.023940517    0.39      0.000000849
                           *** Turning on DIIS ***
  1    -77.919445447     -0.384135072      0.014238709      0.011640146    0.32      0.033720979
  2    -77.926588445     -0.391278070     -0.007142998      0.008074124    0.33      0.046160046
  3    -77.928722574     -0.393412199     -0.002134128      0.003777500    0.34      0.058937544
  4    -77.929877102     -0.394566727     -0.001154528      0.000638343    0.33      0.067464283
  5    -77.929930416     -0.394620041     -0.000053314      0.000183558    0.35      0.068330129
  6    -77.929945925     -0.394635550     -0.000015509      0.000089142    0.35      0.068463468
  7    -77.929943915     -0.394633540      0.000002009      0.000034587    0.35      0.068372692
  8    -77.929943797     -0.394633422      0.000000118      0.000009271    0.35      0.068320173
               --- The Coupled-Cluster iterations have converged ---

----------------------
COUPLED CLUSTER ENERGY
----------------------

E(0)                                       ...    -77.535310375
E(CORR)                                    ...     -0.394633422
E(TOT)                                     ...    -77.929943797
Singles norm <S|S>**1/2                    ...      0.068320173 ( 0.030606227, 0.037713946)  
T1 diagnostic                              ...      0.017640193                              

------------------
LARGEST AMPLITUDES
------------------
   4b->  8b  -1b-> -1b       0.105598
   9a-> 11a   4b->  5b       0.054242
   9a-> 12a   4b->  7b       0.045612
   9a-> 10a   4b->  6b       0.043782
   9a-> 10a   4b->  7b       0.040618
   4b-> 22b  -1b-> -1b       0.039460
   9a-> 12a   4b-> 14b       0.037884
   9a-> 11a   4b-> 16b       0.037062
   9a-> 14a   4b->  7b       0.035680
   9a-> 10a   4b-> 15b       0.035650
   9a-> 12a   4b->  6b       0.033320
   9a-> 16a   4b-> 16b       0.029153
   9a-> 11a   4b->  6b       0.028072
   9a-> 14a   4b-> 14b       0.028037
   9a-> 15a   4b-> 15b       0.027949
   9a-> 16a   4b->  6b       0.026690

----------------------
UHF TRIPLES CORRECTION (Algorithm 1)
----------------------

Multiplier for the singles contribution    ...      1.000000000

SPIN-CASE Alpha-Alpha-Alpha:
10% done
20% done
30% done
40% done
50% done
60% done
70% done
80% done
90% done


SPIN-CASE Beta-Beta-Beta:
10% done
20% done
30% done
40% done
50% done
60% done
70% done
80% done
90% done


SPIN-CASE Alpha-Alpha-Beta:
10% done
20% done
30% done
40% done
50% done
60% done
70% done
80% done
90% done


SPIN-CASE Beta-Beta-Alpha:
10% done
20% done
30% done
40% done
50% done
60% done
70% done
80% done
90% done


Triples Correction (T)                     ...     -0.014572850
    alpha-alpha-alpha ... -0.001751345 ( 12.0%)
    alpha-alpha-beta  ... -0.009165653 ( 62.9%)
    alpha-beta -beta  ... -0.003530200 ( 24.2%)
    beta -beta -beta  ... -0.000125653 (  0.9%)
Scaling of triples based on CCSD energies (Peterson et al. Molecular Physics 113, 1551 (2015))
E(T*) = f*E(T) where f = E(F12-CCSD)/E(CCSD) 
f = CCSD (with F12)/ CCSD (without F12)    ...      1.000000000
Scaled triples correction (T)              ...     -0.014572850

Final correlation energy                   ...     -0.409206272
E(CCSD)                                    ...    -77.929943797
E(CCSD(T))                                 ...    -77.944516647



        !!!!!!!!!!!!!!!!!!!!!!!!!!!!!!!!!!!!!!!!!!!!!!!!!!!!!!!!!!!!!!!!!!!!!!!!!! 
        !  Warning: Densities are linearized densities                           !
        !!!!!!!!!!!!!!!!!!!!!!!!!!!!!!!!!!!!!!!!!!!!!!!!!!!!!!!!!!!!!!!!!!!!!!!!!! 

NORM  =      1.138656437 sqrt=     1.067078459
W(HF) =      0.878228030
------------------------------------------------------------------------------
                           ORCA POPULATION ANALYSIS
------------------------------------------------------------------------------
Input electron density              ... 75_Re.mdcip
Input spin density                  ... 75_Re.mdcir
BaseName (.gbw .S,...)              ... 75_Re

                    ********************************
                    * MULLIKEN POPULATION ANALYSIS *
                    ********************************

------------------------------------------
MULLIKEN ATOMIC CHARGES AND SPIN DENSITIES
------------------------------------------
   0 Re:   -0.000000    5.000000
Sum of atomic charges       :   -0.0000000
Sum of atomic spin densities:    5.0000000

---------------------------------------------------
MULLIKEN REDUCED ORBITAL CHARGES AND SPIN DENSITIES
---------------------------------------------------
CHARGE
  0 Res       :     3.908798  s :     3.908798
      pz      :     2.018411  p :     6.055232
      px      :     2.018411
      py      :     2.018411
      dz2     :     0.993861  d :     4.969306
      dxz     :     0.993861
      dyz     :     0.993861
      dx2y2   :     0.993861
      dxy     :     0.993861
      f0      :     0.008744  f :     0.061205
      f+1     :     0.008744
      f-1     :     0.008744
      f+2     :     0.008744
      f-2     :     0.008744
      f+3     :     0.008744
      f-3     :     0.008744
      g0      :     0.000607  g :     0.005460
      g+1     :     0.000607
      g-1     :     0.000607
      g+2     :     0.000607
      g-2     :     0.000607
      g+3     :     0.000607
      g-3     :     0.000607
      g+4     :     0.000607
      g-4     :     0.000607

SPIN
  0 Res       :     0.023515  s :     0.023515
      pz      :     0.009788  p :     0.029364
      px      :     0.009788
      py      :     0.009788
      dz2     :     0.979225  d :     4.896126
      dxz     :     0.979225
      dyz     :     0.979225
      dx2y2   :     0.979225
      dxy     :     0.979225
      f0      :     0.006708  f :     0.046955
      f+1     :     0.006708
      f-1     :     0.006708
      f+2     :     0.006708
      f-2     :     0.006708
      f+3     :     0.006708
      f-3     :     0.006708
      g0      :     0.000449  g :     0.004039
      g+1     :     0.000449
      g-1     :     0.000449
      g+2     :     0.000449
      g-2     :     0.000449
      g+3     :     0.000449
      g-3     :     0.000449
      g+4     :     0.000449
      g-4     :     0.000449


                     *******************************
                     * LOEWDIN POPULATION ANALYSIS *
                     *******************************

-----------------------------------------
LOEWDIN ATOMIC CHARGES AND SPIN DENSITIES
-----------------------------------------
   0 Re:   -0.000000    5.000000

--------------------------------------------------
LOEWDIN REDUCED ORBITAL CHARGES AND SPIN DENSITIES
--------------------------------------------------
CHARGE
  0 Res       :     3.908798  s :     3.908798
      pz      :     2.018411  p :     6.055232
      px      :     2.018411
      py      :     2.018411
      dz2     :     0.993861  d :     4.969306
      dxz     :     0.993861
      dyz     :     0.993861
      dx2y2   :     0.993861
      dxy     :     0.993861
      f0      :     0.008744  f :     0.061205
      f+1     :     0.008744
      f-1     :     0.008744
      f+2     :     0.008744
      f-2     :     0.008744
      f+3     :     0.008744
      f-3     :     0.008744
      g0      :     0.000607  g :     0.005460
      g+1     :     0.000607
      g-1     :     0.000607
      g+2     :     0.000607
      g-2     :     0.000607
      g+3     :     0.000607
      g-3     :     0.000607
      g+4     :     0.000607
      g-4     :     0.000607

SPIN
  0 Res       :     0.023515  s :     0.023515
      pz      :     0.009788  p :     0.029364
      px      :     0.009788
      py      :     0.009788
      dz2     :     0.979225  d :     4.896126
      dxz     :     0.979225
      dyz     :     0.979225
      dx2y2   :     0.979225
      dxy     :     0.979225
      f0      :     0.006708  f :     0.046955
      f+1     :     0.006708
      f-1     :     0.006708
      f+2     :     0.006708
      f-2     :     0.006708
      f+3     :     0.006708
      f-3     :     0.006708
      g0      :     0.000449  g :     0.004039
      g+1     :     0.000449
      g-1     :     0.000449
      g+2     :     0.000449
      g-2     :     0.000449
      g+3     :     0.000449
      g-3     :     0.000449
      g+4     :     0.000449
      g-4     :     0.000449


                      *****************************
                      * MAYER POPULATION ANALYSIS *
                      *****************************

  NA   - Mulliken gross atomic population
  ZA   - Total nuclear charge
  QA   - Mulliken gross atomic charge
  VA   - Mayer's total valence
  BVA  - Mayer's bonded valence
  FA   - Mayer's free valence

  ATOM       NA         ZA         QA         VA         BVA        FA
  0 Re    15.0000    15.0000    -0.0000     5.7614     0.0000     5.7614





------------------------------------------------------------------------------- 
                                     TIMINGS                                   
------------------------------------------------------------------------------- 


Total execution time                   ...       10.407 sec

Fock Matrix Formation                  ...        0.085 sec (  0.8%)
Initial Guess                          ...        0.013 sec (  0.1%)
DIIS Solver                            ...        0.241 sec (  2.3%)
State Vector Update                    ...        0.011 sec (  0.1%)
Sigma-vector construction              ...        2.847 sec ( 27.4%)
  <D|H|D>(0-ext Fock)                  ...        0.004 sec (  0.2% of sigma)
  <D|H|D>(0-ext)                       ...        0.015 sec (  0.5% of sigma)
  <D|H|D>(2-ext Fock)                  ...        0.001 sec (  0.0% of sigma)
  <D|H|D>(2-ext)                       ...        0.055 sec (  1.9% of sigma)
  <D|H|D>(4-ext)                       ...        1.610 sec ( 56.5% of sigma)
  <S|H|0>                              ...        0.086 sec (  3.0% of sigma)
  <S|H|D>(1-ext)                       ...        0.001 sec (  0.0% of sigma)
  <D|H|S>(1-ext)                       ...        0.021 sec (  0.7% of sigma)
  Fock-dressing                        ...        0.248 sec (  8.7% of sigma)
  (ik|jl)-dressing                     ...        0.019 sec (  0.7% of sigma)
  (ij|ab),(ia|jb)-dressing             ...        0.609 sec ( 21.4% of sigma)
  Pair energies                        ...        0.001 sec (  0.0% of sigma)
Total Time for computing (T)           ...        0.387 sec (  3.7% of ALL)
  I/O of integral and amplitudes       ...        0.092 sec ( 23.8% of (T))
  External N**7 contributions          ...        0.096 sec ( 24.9% of (T))
  Internal N**7 contributions          ...        0.049 sec ( 12.6% of (T))
  N**6 triples energy contributions    ...        0.134 sec ( 34.6% of (T))


-------------------------   --------------------
FINAL SINGLE POINT ENERGY       -77.944516647170
-------------------------   --------------------


                            ***************************************
                            *     ORCA property calculations      *
                            ***************************************

                                    ---------------------
                                    Active property flags
                                    ---------------------
   (+) Dipole Moment


------------------------------------------------------------------------------
                       ORCA ELECTRIC PROPERTIES CALCULATION
------------------------------------------------------------------------------

Dipole Moment Calculation                       ... on
Quadrupole Moment Calculation                   ... off
Polarizability Calculation                      ... off
GBWName                                         ... 75_Re.gbw
Electron density file                           ... 75_Re.scfp
The origin for moment calculation is the CENTER OF MASS  = ( 0.000000,  0.000000  0.000000)

-------------
DIPOLE MOMENT
-------------
                                X             Y             Z
Electronic contribution:      0.00000       0.00000       0.00000
Nuclear contribution   :      0.00000       0.00000       0.00000
                        -----------------------------------------
Total Dipole Moment    :      0.00000       0.00000       0.00000
                        -----------------------------------------
Magnitude (a.u.)       :      0.00000
Magnitude (Debye)      :      0.00000



--------------------
Rotational spectrum 
--------------------
 
Rotational constants in cm-1:     0.000000     0.000000     0.000000 
Rotational constants in MHz :     0.000000     0.000000     0.000000 

 Dipole components along the rotational axes: 
x,y,z [a.u.] :     0.000000     0.000000     0.000000 
x,y,z [Debye]:     0.000000     0.000000     0.000000 

 

                           *** MDCI DENSITY ***

------------------------------------------------------------------------------
                       ORCA ELECTRIC PROPERTIES CALCULATION
------------------------------------------------------------------------------

Dipole Moment Calculation                       ... on
Quadrupole Moment Calculation                   ... off
Polarizability Calculation                      ... off
GBWName                                         ... 75_Re.gbw
Electron density file                           ... 75_Re.mdcip
The origin for moment calculation is the CENTER OF MASS  = ( 0.000000,  0.000000  0.000000)

-------------
DIPOLE MOMENT
-------------
                                X             Y             Z
Electronic contribution:     -0.00000      -0.00000      -0.00000
Nuclear contribution   :      0.00000       0.00000       0.00000
                        -----------------------------------------
Total Dipole Moment    :     -0.00000      -0.00000      -0.00000
                        -----------------------------------------
Magnitude (a.u.)       :      0.00000
Magnitude (Debye)      :      0.00000



--------------------
Rotational spectrum 
--------------------
 
Rotational constants in cm-1:     0.000000     0.000000     0.000000 
Rotational constants in MHz :     0.000000     0.000000     0.000000 

 Dipole components along the rotational axes: 
x,y,z [a.u.] :    -0.000000    -0.000000    -0.000000 
x,y,z [Debye]:    -0.000000    -0.000000    -0.000000 

 

Timings for individual modules:

Sum of individual times         ...       20.121 sec (=   0.335 min)
GTO integral calculation        ...        0.923 sec (=   0.015 min)   4.6 %
SCF iterations                  ...        8.210 sec (=   0.137 min)  40.8 %
MDCI module                     ...       10.988 sec (=   0.183 min)  54.6 %
                             ****ORCA TERMINATED NORMALLY****
TOTAL RUN TIME: 0 days 0 hours 0 minutes 20 seconds 900 msec
