
                                 *****************
                                 * O   R   C   A *
                                 *****************

           --- An Ab Initio, DFT and Semiempirical electronic structure package ---

                  #######################################################
                  #                        -***-                        #
                  #          Department of theory and spectroscopy      #
                  #               Directorship: Frank Neese             #
                  #        Max Planck Institute fuer Kohlenforschung    #
                  #                Kaiser Wilhelm Platz 1               #
                  #                 D-45470 Muelheim/Ruhr               #
                  #                      Germany                        #
                  #                                                     #
                  #                  All rights reserved                #
                  #                        -***-                        #
                  #######################################################


                         Program Version 4.2.0 -  RELEASE  -


 With contributions from (in alphabetic order):
   Daniel Aravena         : Magnetic Suceptibility
   Michael Atanasov       : Ab Initio Ligand Field Theory (pilot matlab implementation)
   Alexander A. Auer      : GIAO ZORA, VPT2
   Ute Becker             : Parallelization
   Giovanni Bistoni       : ED, misc. LED, open-shell LED, HFLED
   Martin Brehm           : Molecular dynamics
   Dmytro Bykov           : SCF Hessian
   Vijay G. Chilkuri      : MRCI spin determinant printing, contributions to CSF-ICE
   Dipayan Datta          : RHF DLPNO-CCSD density
   Achintya Kumar Dutta   : EOM-CC, STEOM-CC
   Dmitry Ganyushin       : Spin-Orbit,Spin-Spin,Magnetic field MRCI
   Miquel Garcia          : C-PCM Hessian, Gaussian charge scheme
   Yang Guo               : DLPNO-NEVPT2, CIM, IAO-localization
   Andreas Hansen         : Spin unrestricted coupled pair/coupled cluster methods
   Benjamin Helmich-Paris : CASSCF linear response (MC-RPA)
   Lee Huntington         : MR-EOM, pCC
   Robert Izsak           : Overlap fitted RIJCOSX, COSX-SCS-MP3, EOM
   Christian Kollmar      : KDIIS, OOCD, Brueckner-CCSD(T), CCSD density
   Simone Kossmann        : Meta GGA functionals, TD-DFT gradient, OOMP2, MP2 Hessian
   Martin Krupicka        : AUTO-CI
   Lucas Lang             : DCDCAS
   Dagmar Lenk            : GEPOL surface, SMD
   Dimitrios Liakos       : Extrapolation schemes; Compound Job, initial MDCI parallelization
   Dimitrios Manganas     : Further ROCIS development; embedding schemes
   Dimitrios Pantazis     : SARC Basis sets
   Taras Petrenko         : DFT Hessian,TD-DFT gradient, ASA, ECA, R-Raman, ABS, FL, XAS/XES, NRVS
   Peter Pinski           : DLPNO-MP2, DLPNO-MP2 Gradient
   Christoph Reimann      : Effective Core Potentials
   Marius Retegan         : Local ZFS, SOC
   Christoph Riplinger    : Optimizer, TS searches, QM/MM, DLPNO-CCSD(T), (RO)-DLPNO pert. Triples
   Tobias Risthaus        : Range-separated hybrids, TD-DFT gradient, RPA, STAB
   Michael Roemelt        : Original ROCIS implementation
   Masaaki Saitow         : Open-shell DLPNO-CCSD energy and density
   Barbara Sandhoefer     : DKH picture change effects
   Avijit Sen             : IP-ROCIS
   Kantharuban Sivalingam : CASSCF convergence, NEVPT2, FIC-MRCI
   Bernardo de Souza      : ESD, SOC TD-DFT
   Georgi Stoychev        : AutoAux, RI-MP2 NMR
   Willem Van den Heuvel  : Paramagnetic NMR
   Boris Wezisla          : Elementary symmetry handling
   Frank Wennmohs         : Technical directorship


 We gratefully acknowledge several colleagues who have allowed us to
 interface, adapt or use parts of their codes:
   Stefan Grimme, W. Hujo, H. Kruse,             : VdW corrections, initial TS optimization,
                  C. Bannwarth                     DFT functionals, gCP, sTDA/sTD-DF
   Ed Valeev, F. Pavosevic, A. Kumar             : LibInt (2-el integral package), F12 methods
   Garnet Chan, S. Sharma, J. Yang, R. Olivares  : DMRG
   Ulf Ekstrom                                   : XCFun DFT Library
   Mihaly Kallay                                 : mrcc  (arbitrary order and MRCC methods)
   Andreas Klamt, Michael Diedenhofen            : otool_cosmo (COSMO solvation model)
   Jiri Pittner, Ondrej Demel                    : Mk-CCSD
   Frank Weinhold                                : gennbo (NPA and NBO analysis)
   Christopher J. Cramer and Donald G. Truhlar   : smd solvation model
   Lars Goerigk                                  : TD-DFT with DH, B97 family of functionals
   V. Asgeirsson, H. Jonsson                     : NEB implementation
   FAccTs GmbH                                   : IRC, NEB, NEB-TS, Multilevel, MM, QM/MM, CI optimization
   S Lehtola, MJT Oliveira, MAL Marques          : LibXC Library


 Your calculation uses the libint2 library for the computation of 2-el integrals
 For citations please refer to: http://libint.valeyev.net

 Your ORCA version has been built with support for libXC version: 4.2.3
 For citations please refer to: https://tddft.org/programs/libxc/

 This ORCA versions uses:
   CBLAS   interface :  Fast vector & matrix operations
   LAPACKE interface :  Fast linear algebra routines
   SCALAPACK package :  Parallel linear algebra routines


Setting NCore(Ir) from 46 to 60
----- Orbital basis set information -----
Your calculation utilizes the basis: def2-QZVP
   F. Weigend and R. Ahlrichs, Phys. Chem. Chem. Phys. 7, 3297 (2005).

cite the ECPs for Ir [Def2-ECP] as follows:
Ce-Yb(ecp-28): M. Dolg, H. Stoll, H.Preuss, J. Chem. Phys., 1989, 90, 1730-1734.
Y-Cd(ecp-28), Hf-Hg(ecp-46): D. Andrae,U. Haeussermann, M. Dolg, H. Stoll, H. Preuss, Theor. Chim. Acta, 1990, 77, 123-141.
In-Sb(ecp-28), Tl-Bi(ecp-46): B. Metz, H. Stoll, M. Dolg, J. Chem. Phys., 2000, 113, 2563-2569.
Te-Xe(ecp-28), Po-Rn(ecp-46): K. A. Peterson, D. Figgen, E. Goll, H. Stoll, M. Dolg, J. Chem. Phys., 2003, 119, 11113-11123.
Rb(ecp-28), Cs(ecp-46): T. Leininger, A. Nicklass, W. Kuechle, H. Stoll, M. Dolg, A. Bergner, Chem. Phys. Lett., 1996, 255, 274-280.
Sr(ecp-28), Ba(ecp-46): M. Kaupp, P. V. Schleyer, H. Stoll and H. Preuss, J. Chem. Phys., 1991, 94, 1360-1366.
La(ecp-46): M. Dolg, H. Stoll, A. Savin, H. Preuss, Theor. Chim. Acta, 1989, 75, 173-194.
Lu(ecp-28): X. Cao, M. Dolg, J. Chem. Phys., 2001, 115, 7348-7355.

ECP parameters for Ir [Def2-ECP] have been obtained from:
TURBOMOLE (7.0.2)

================================================================================
                                        WARNINGS
                       Please study these warnings very carefully!
================================================================================


WARNING: your system is open-shell and RHF/RKS was chosen
  ===> : WILL SWITCH to UHF/UKS


WARNING: MDCI localization with Augmented Hessian Foster-Boys
  ===> : Switching off randomization!

WARNING: Post HF methods need fully converged wavefunctions
  ===> : Setting SCFConvForced true
         You can overwrite this default with %scf ConvForced false 


INFO   : the flag for use of LIBINT has been found!

================================================================================
                                       INPUT FILE
================================================================================
NAME = 77_Ir.in
|  1> #
|  2> # 77_Ir CCSD(T)/Def2-QZVP
|  3> #
|  4> ! CCSD(T) Def2-QZVP tightscf slowconv
|  5> 
|  6> *xyz 0 4
|  7>  Ir 0.0 0.0 0.0
|  8> *
|  9> 
| 10> %maxcore 5000 
| 11> 
| 12> %pal
| 13> nprocs 24
| 14> end
| 15> 
| 16> %method
| 17> NewNCore Ir 60 end
| 18> end
| 19> 
| 20> 
| 21>                          ****END OF INPUT****
================================================================================

                       ****************************
                       * Single Point Calculation *
                       ****************************

---------------------------------
CARTESIAN COORDINATES (ANGSTROEM)
---------------------------------
  Ir     0.000000    0.000000    0.000000

----------------------------
CARTESIAN COORDINATES (A.U.)
----------------------------
  NO LB      ZA    FRAG     MASS         X           Y           Z
   0 Ir   17.0000*   0   192.220    0.000000    0.000000    0.000000
* core charge reduced due to ECP

--------------------------------
INTERNAL COORDINATES (ANGSTROEM)
--------------------------------
 Ir     0   0   0     0.000000000000     0.00000000     0.00000000

---------------------------
INTERNAL COORDINATES (A.U.)
---------------------------
 Ir     0   0   0     0.000000000000     0.00000000     0.00000000

---------------------
BASIS SET INFORMATION
---------------------
There are 1 groups of distinct atoms

 Group   1 Type Ir  : 10s8p6d3f1g contracted to 7s5p4d3f1g pattern {4111111/41111/3111/111/1}

Atom   0Ir   basis set group =>   1
-------------------------
ECP PARAMETER INFORMATION
-------------------------

 Group 1, Type Ir ECP Def2-ECP (replacing 60 core electrons, lmax=3)

Atom   0Ir   ECP group =>   1



           ************************************************************
           *        Program running with 24 parallel MPI-processes    *
           *              working on a common directory               *
           ************************************************************
------------------------------------------------------------------------------
                           ORCA GTO INTEGRAL CALCULATION
------------------------------------------------------------------------------

                         BASIS SET STATISTICS AND STARTUP INFO

 # of primitive gaussian shells          ...   28
 # of primitive gaussian functions       ...   94
 # of contracted shells                  ...   20
 # of contracted basis functions         ...   72
 Highest angular momentum                ...    4
 Maximum contraction depth               ...    4
 Integral package used                   ... LIBINT
 Integral threshhold            Thresh   ...  2.500e-11
 Primitive cut-off              TCut     ...  2.500e-12


------------------------------ INTEGRAL EVALUATION ----------------------------


 * One electron integrals 

   ECP integrals                         ... done
 Pre-screening matrix                    ... done
 Shell pair data                         ... done (   0.000 sec)



           ************************************************************
           *        Program running with 24 parallel MPI-processes    *
           *              working on a common directory               *
           ************************************************************
-------------------------------------------------------------------------------
                                 ORCA SCF
-------------------------------------------------------------------------------

------------
SCF SETTINGS
------------
Hamiltonian:
 Ab initio Hamiltonian  Method          .... Hartree-Fock(GTOs)


General Settings:
 Integral files         IntName         .... 77_Ir
 Hartree-Fock type      HFTyp           .... UHF
 Total Charge           Charge          ....    0
 Multiplicity           Mult            ....    4
 Number of Electrons    NEL             ....   17
 Basis Dimension        Dim             ....   72
 Nuclear Repulsion      ENuc            ....      0.0000000000 Eh

Convergence Acceleration:
 DIIS                   CNVDIIS         .... on
   Start iteration      DIISMaxIt       ....     0
   Startup error        DIISStart       ....  0.200000
   # of expansion vecs  DIISMaxEq       ....     5
   Bias factor          DIISBfac        ....   1.050
   Max. coefficient     DIISMaxC        ....  10.000
 Newton-Raphson         CNVNR           .... off
 SOSCF                  CNVSOSCF        .... off
 Level Shifting         CNVShift        .... on
   Level shift para.    LevelShift      ....    0.2500
   Turn off err/grad.   ShiftErr        ....    0.0000
 Zerner damping         CNVZerner       .... off
 Static damping         CNVDamp         .... on
   Fraction old density DampFac         ....    0.8500
   Max. Damping (<1)    DampMax         ....    0.9800
   Min. Damping (>=0)   DampMin         ....    0.0000
   Turn off err/grad.   DampErr         ....    0.0300
 Fernandez-Rico         CNVRico         .... off

SCF Procedure:
 Maximum # iterations   MaxIter         ....   125
 SCF integral mode      SCFMode         .... Direct
   Integral package                     .... LIBINT
 Reset frequency        DirectResetFreq ....    20
 Integral Threshold     Thresh          ....  2.500e-11 Eh
 Primitive CutOff       TCut            ....  2.500e-12 Eh

Convergence Tolerance:
 Convergence Check Mode ConvCheckMode   .... Total+1el-Energy
 Convergence forced     ConvForced      .... 1
 Energy Change          TolE            ....  1.000e-08 Eh
 1-El. energy change                    ....  1.000e-05 Eh
 DIIS Error             TolErr          ....  5.000e-07


Diagonalization of the overlap matrix:
Smallest eigenvalue                        ... 6.313e-03
Time for diagonalization                   ...    0.002 sec
Threshold for overlap eigenvalues          ... 1.000e-08
Number of eigenvalues below threshold      ... 0
Time for construction of square roots      ...    0.011 sec
Total time needed                          ...    0.014 sec

-------------------
DFT GRID GENERATION
-------------------

General Integration Accuracy     IntAcc      ...  4.340
Radial Grid Type                 RadialGrid  ... Gauss-Chebyshev
Angular Grid (max. acc.)         AngularGrid ... Lebedev-110
Angular grid pruning method      GridPruning ... 3 (G Style)
Weight generation scheme         WeightScheme... Becke
Basis function cutoff            BFCut       ...    1.0000e-11
Integration weight cutoff        WCut        ...    1.0000e-14
Grids for H and He will be reduced by one unit

# of grid points (after initial pruning)     ...   3530 (   0.0 sec)
# of grid points (after weights+screening)   ...   3530 (   0.0 sec)
Grid point division into batches done        ...    0.0 sec
Reduced shell lists constructed in    0.0 sec

Total number of grid points                  ...     3530
Total number of batches                      ...       56
Average number of points per batch           ...       63
Average number of grid points per atom       ...     3530
Average number of shells per batch           ...     5.25 (26.25%)
Average number of basis functions per batch  ...    15.75 (21.88%)
Average number of large shells per batch     ...     3.75 (71.43%)
Average number of large basis fcns per batch ...     9.75 (61.90%)
Maximum spatial batch extension              ...  25.56, 38.92, 38.92 au
Average spatial batch extension              ...   1.31,  1.85,  2.08 au

Time for grid setup =    0.058 sec

------------------------------
INITIAL GUESS: MODEL POTENTIAL
------------------------------
Loading Hartree-Fock densities                     ... done
  calling /sw/apps/orca/orca_4_2_0_linux_x86-64_openmpi314/orca 77_Ir_atom77.inp > 77_Ir_atom77.out in order to generate an atomic fitting density for atom 0 (Ir with ECP) on-the-fly... 
    atom 0 (Ir), assumed electronic state with S=4: 1s2 2s2 2p6 3s2 3p6 4s2 3d10 4p6 5s2 4d10 5p6 6s2 4f14 5d7           ... done
Calculating cut-offs                               ... done
Setting up the integral package                    ... done
Initializing the effective Hamiltonian             ... done
Starting the Coulomb interaction                   ... done (   0.0 sec)
Reading the grid                                   ... done
Mapping shells                                     ... done
Starting the XC term evaluation                    ... done (   0.0 sec)
Transforming the Hamiltonian                       ... done (   0.0 sec)
Diagonalizing the Hamiltonian                      ... done (   0.0 sec)
Back transforming the eigenvectors                 ... done (   0.0 sec)
Now organizing SCF variables                       ... done
                      ------------------
                      INITIAL GUESS DONE (   1.8 sec)
                      ------------------
--------------
SCF ITERATIONS
--------------
ITER       Energy         Delta-E        Max-DP      RMS-DP      [F,P]     Damp
               ***  Starting incremental Fock matrix formation  ***
  0   -103.2976573362   0.000000000000 0.09566274  0.00149949  0.6019403 0.8500
  1   -103.3230002207  -0.025342884598 0.08401164  0.00131517  0.5105204 0.8500
                               ***Turning on DIIS***
  2   -103.3428526024  -0.019852381665 0.07054309  0.00110045  0.4316580 0.8500
  3   -103.6693787489  -0.326526146463 0.05759684  0.00089429  0.3652861 0.8500
  4   -103.8091180175  -0.139739268669 0.04816116  0.00074690  0.3104188 0.8500
  5   -103.7794136100   0.029704407584 0.04140456  0.00064189  0.2644696 0.8500
  6   -103.7207942957   0.058619314233 0.03582439  0.00055527  0.2253733 0.8500
  7   -103.6345454519   0.086248843875 0.03123076  0.00048413  0.1919606 0.8500
  8   -103.5886897801   0.045855671773 0.02691615  0.00041765  0.1632718 0.8500
  9   -103.5657815896   0.022908190452 0.02300258  0.00035747  0.1387830 0.8500
 10   -103.5494463301   0.016335259480 0.01961023  0.00030532  0.1179690 0.8500
 11   -103.5343667286   0.015079601506 0.01672509  0.00026095  0.1002963 0.8500
 12   -103.5198204591   0.014546269581 0.01428035  0.00022331  0.0852830 0.8500
 13   -103.5070211071   0.012799351990 0.01219597  0.00019119  0.0725182 0.8500
 14   -103.4963575101   0.010663596937 0.01041203  0.00016365  0.0616621 0.8500
 15   -103.4875411240   0.008816386132 0.00888528  0.00014003  0.0524301 0.8500
 16   -103.4801572236   0.007383900418 0.00758057  0.00011980  0.0445804 0.8500
 17   -103.4738974280   0.006259795561 0.00646697  0.00010250  0.0379064 0.8500
 18   -103.4685762533   0.005321174734 0.00551687  0.00008770  0.0322320 0.8500
 19   -103.4640644195   0.004511833832 0.03137517  0.00050028  0.0274072 0.0000
               *** Restarting incremental Fock matrix formation ***
                                   *** Resetting DIIS ***
 20   -103.4394087655   0.024655653945 0.00065702  0.00001248  0.0003091 0.0000
 21   -103.4395078324  -0.000099066896 0.00051751  0.00000931  0.0001140 0.0000
 22   -103.4393057875   0.000202044913 0.00049700  0.00000786  0.0000731 0.0000
 23   -103.4394197413  -0.000113953792 0.00040517  0.00000576  0.0000416 0.0000
 24   -103.4394508471  -0.000031105767 0.00028162  0.00000376  0.0000211 0.0000
 25   -103.4394362082   0.000014638846 0.00016502  0.00000211  0.0000096 0.0000
 26   -103.4394351726   0.000001035583 0.00010015  0.00000126  0.0000061 0.0000
 27   -103.4394288861   0.000006286557 0.00005494  0.00000069  0.0000055 0.0000
 28   -103.4394227746   0.000006111501 0.00002542  0.00000034  0.0000047 0.0000
 29   -103.4394154346   0.000007339927 0.00000558  0.00000016  0.0000038 0.0000
 30   -103.4394115751   0.000003859565 0.00000519  0.00000014  0.0000030 0.0000
 31   -103.4394080838   0.000003491238 0.00000590  0.00000013  0.0000022 0.0000
 32   -103.4394080648   0.000000019051 0.00000410  0.00000010  0.0000014 0.0000
                 **** Energy Check signals convergence ****

               *****************************************************
               *                     SUCCESS                       *
               *           SCF CONVERGED AFTER  33 CYCLES          *
               *****************************************************


----------------
TOTAL SCF ENERGY
----------------

Total Energy       :         -103.43940806 Eh           -2814.72939 eV

Components:
Nuclear Repulsion  :            0.00000000 Eh               0.00000 eV
Electronic Energy  :         -103.43940806 Eh           -2814.72939 eV
One Electron Energy:         -181.13815820 Eh           -4929.01987 eV
Two Electron Energy:           77.69875014 Eh            2114.29048 eV

Virial components:
Potential Energy   :         -139.22366043 Eh           -3788.46840 eV
Kinetic Energy     :           35.78425237 Eh             973.73901 eV
Virial Ratio       :            3.89064047


---------------
SCF CONVERGENCE
---------------

  Last Energy change         ...    3.9828e-09  Tolerance :   1.0000e-08
  Last MAX-Density change    ...    1.7322e-06  Tolerance :   1.0000e-07
  Last RMS-Density change    ...    5.7093e-08  Tolerance :   5.0000e-09
  Last DIIS Error            ...    9.0729e-07  Tolerance :   5.0000e-07

             **** THE GBW FILE WAS UPDATED (77_Ir.gbw) ****
             **** DENSITY FILE WAS UPDATED (77_Ir.scfp) ****
             **** ENERGY FILE WAS UPDATED (77_Ir.en.tmp) ****
----------------------
UHF SPIN CONTAMINATION
----------------------

Expectation value of <S**2>     :     3.753511
Ideal value S*(S+1) for S=1.5   :     3.750000
Deviation                       :     0.003511

             **** THE GBW FILE WAS UPDATED (77_Ir.gbw) ****
             **** DENSITY FILE WAS UPDATED (77_Ir.scfp) ****
----------------
ORBITAL ENERGIES
----------------
                 SPIN UP ORBITALS
  NO   OCC          E(Eh)            E(eV) 
   0   1.0000      -4.206594      -114.4672 
   1   1.0000      -2.416883       -65.7667 
   2   1.0000      -2.416882       -65.7667 
   3   1.0000      -2.416881       -65.7667 
   4   1.0000      -0.430085       -11.7032 
   5   1.0000      -0.430085       -11.7032 
   6   1.0000      -0.391961       -10.6658 
   7   1.0000      -0.391960       -10.6658 
   8   1.0000      -0.391960       -10.6658 
   9   1.0000      -0.291362        -7.9284 
  10   0.0000       0.041951         1.1416 
  11   0.0000       0.041952         1.1416 
  12   0.0000       0.041952         1.1416 
  13   0.0000       0.122417         3.3311 
  14   0.0000       0.214705         5.8424 
  15   0.0000       0.214706         5.8424 
  16   0.0000       0.214706         5.8425 
  17   0.0000       0.384150        10.4533 
  18   0.0000       0.384150        10.4533 
  19   0.0000       0.391963        10.6659 
  20   0.0000       0.391964        10.6659 
  21   0.0000       0.391964        10.6659 
  22   0.0000       0.675761        18.3884 
  23   0.0000       0.806624        21.9494 
  24   0.0000       0.806624        21.9494 
  25   0.0000       0.806624        21.9494 
  26   0.0000       0.812760        22.1163 
  27   0.0000       0.812761        22.1164 
  28   0.0000       0.812762        22.1164 
  29   0.0000       0.820474        22.3262 
  30   0.0000       1.100092        29.9350 
  31   0.0000       1.100093        29.9350 
  32   0.0000       1.100093        29.9351 
  33   0.0000       1.515056        41.2268 
  34   0.0000       1.515056        41.2268 
  35   0.0000       1.535849        41.7926 
  36   0.0000       1.535850        41.7926 
  37   0.0000       1.535850        41.7926 
  38   0.0000       2.045982        55.6740 
  39   0.0000       2.045983        55.6740 
  40   0.0000       2.045983        55.6740 
  41   0.0000       2.061553        56.0977 
  42   0.0000       2.061554        56.0977 
  43   0.0000       2.061555        56.0978 
  44   0.0000       2.081581        56.6427 
  45   0.0000       3.301764        89.8456 
  46   0.0000       3.616523        98.4106 
  47   0.0000       3.624456        98.6265 
  48   0.0000       3.624456        98.6265 
  49   0.0000       3.624457        98.6265 
  50   0.0000       3.630927        98.8026 
  51   0.0000       3.630927        98.8026 
  52   0.0000       3.650424        99.3331 
  53   0.0000       3.650424        99.3331 
  54   0.0000       3.650425        99.3331 
  55   0.0000       5.357235       145.7778 
  56   0.0000       5.357235       145.7778 
  57   0.0000       5.357235       145.7778 
  58   0.0000       5.373403       146.2177 
  59   0.0000       5.373404       146.2178 
  60   0.0000       5.373404       146.2178 
  61   0.0000       5.393991       146.7779 
  62   0.0000       5.579070       151.8142 
  63   0.0000       5.579070       151.8142 
  64   0.0000       5.608183       152.6064 
  65   0.0000       5.608183       152.6064 
  66   0.0000       5.608184       152.6064 
  67   0.0000      31.583189       859.4223 
  68   0.0000      31.583189       859.4223 
  69   0.0000      31.583190       859.4223 
  70   0.0000      64.232169      1747.8462 
  71   0.0000     376.418637     10242.8718 

                 SPIN DOWN ORBITALS
  NO   OCC          E(Eh)            E(eV) 
   0   1.0000      -4.104350      -111.6850 
   1   1.0000      -2.278128       -61.9910 
   2   1.0000      -2.278128       -61.9910 
   3   1.0000      -2.278128       -61.9910 
   4   1.0000      -0.339091        -9.2271 
   5   1.0000      -0.339090        -9.2271 
   6   1.0000      -0.339090        -9.2271 
   7   0.0000       0.003553         0.0967 
   8   0.0000       0.069121         1.8809 
   9   0.0000       0.069121         1.8809 
  10   0.0000       0.069121         1.8809 
  11   0.0000       0.156968         4.2713 
  12   0.0000       0.156968         4.2713 
  13   0.0000       0.165307         4.4982 
  14   0.0000       0.268398         7.3035 
  15   0.0000       0.268398         7.3035 
  16   0.0000       0.268399         7.3035 
  17   0.0000       0.410380        11.1670 
  18   0.0000       0.410380        11.1670 
  19   0.0000       0.410381        11.1670 
  20   0.0000       0.457845        12.4586 
  21   0.0000       0.457845        12.4586 
  22   0.0000       0.729467        19.8498 
  23   0.0000       0.843250        22.9460 
  24   0.0000       0.858570        23.3629 
  25   0.0000       0.858571        23.3629 
  26   0.0000       0.858571        23.3629 
  27   0.0000       0.869768        23.6676 
  28   0.0000       0.869768        23.6676 
  29   0.0000       0.869768        23.6676 
  30   0.0000       1.159400        31.5489 
  31   0.0000       1.159401        31.5489 
  32   0.0000       1.159401        31.5489 
  33   0.0000       1.562433        42.5160 
  34   0.0000       1.562434        42.5160 
  35   0.0000       1.562434        42.5160 
  36   0.0000       1.602488        43.6059 
  37   0.0000       1.602488        43.6059 
  38   0.0000       2.093509        56.9673 
  39   0.0000       2.127211        57.8844 
  40   0.0000       2.127212        57.8844 
  41   0.0000       2.127212        57.8844 
  42   0.0000       2.153997        58.6132 
  43   0.0000       2.153997        58.6132 
  44   0.0000       2.153997        58.6133 
  45   0.0000       3.348024        91.1044 
  46   0.0000       3.684040       100.2478 
  47   0.0000       3.684040       100.2478 
  48   0.0000       3.684040       100.2478 
  49   0.0000       3.694439       100.5308 
  50   0.0000       3.694439       100.5308 
  51   0.0000       3.697225       100.6066 
  52   0.0000       3.697226       100.6066 
  53   0.0000       3.697226       100.6066 
  54   0.0000       3.702442       100.7486 
  55   0.0000       5.400203       146.9470 
  56   0.0000       5.414203       147.3280 
  57   0.0000       5.414203       147.3280 
  58   0.0000       5.414204       147.3280 
  59   0.0000       5.425346       147.6312 
  60   0.0000       5.425346       147.6312 
  61   0.0000       5.425346       147.6312 
  62   0.0000       5.628822       153.1680 
  63   0.0000       5.628822       153.1680 
  64   0.0000       5.628823       153.1680 
  65   0.0000       5.644365       153.5910 
  66   0.0000       5.644365       153.5910 
  67   0.0000      31.603013       859.9617 
  68   0.0000      31.603014       859.9617 
  69   0.0000      31.603014       859.9617 
  70   0.0000      64.237991      1748.0046 
  71   0.0000     376.418878     10242.8784 

                    ********************************
                    * MULLIKEN POPULATION ANALYSIS *
                    ********************************

--------------------------------------------
MULLIKEN ATOMIC CHARGES AND SPIN POPULATIONS
--------------------------------------------
   0 Ir:   -0.000000    3.000000
Sum of atomic charges         :   -0.0000000
Sum of atomic spin populations:    3.0000000

-----------------------------------------------------
MULLIKEN REDUCED ORBITAL CHARGES AND SPIN POPULATIONS
-----------------------------------------------------
CHARGE
  0 Irs       :     2.999943  s :     2.999943
      pz      :     1.999443  p :     5.998329
      px      :     1.999443
      py      :     1.999443
      dz2     :     0.999969  d :     7.999869
      dxz     :     1.999977
      dyz     :     1.999977
      dx2y2   :     0.999969
      dxy     :     1.999977
      f0      :     0.000557  f :     0.001671
      f+1     :     0.000209
      f-1     :     0.000209
      f+2     :     0.000000
      f-2     :     0.000000
      f+3     :     0.000348
      f-3     :     0.000348
      g0      :     0.000046  g :     0.000189
      g+1     :     0.000003
      g-1     :     0.000003
      g+2     :     0.000031
      g-2     :     0.000023
      g+3     :     0.000020
      g-3     :     0.000020
      g+4     :     0.000042
      g-4     :     0.000000

SPIN
  0 Irs       :     1.000016  s :     1.000016
      pz      :     0.000491  p :     0.001472
      px      :     0.000491
      py      :     0.000491
      dz2     :     0.999969  d :     1.999959
      dxz     :     0.000007
      dyz     :     0.000007
      dx2y2   :     0.999969
      dxy     :     0.000007
      f0      :    -0.000491  f :    -0.001472
      f+1     :    -0.000184
      f-1     :    -0.000184
      f+2     :    -0.000000
      f-2     :     0.000000
      f+3     :    -0.000307
      f-3     :    -0.000307
      g0      :     0.000004  g :     0.000025
      g+1     :    -0.000001
      g-1     :    -0.000001
      g+2     :     0.000031
      g-2     :    -0.000007
      g+3     :    -0.000006
      g-3     :    -0.000006
      g+4     :     0.000011
      g-4     :     0.000000


                     *******************************
                     * LOEWDIN POPULATION ANALYSIS *
                     *******************************

-------------------------------------------
LOEWDIN ATOMIC CHARGES AND SPIN POPULATIONS
-------------------------------------------
   0 Ir:   -0.000000    3.000000

----------------------------------------------------
LOEWDIN REDUCED ORBITAL CHARGES AND SPIN POPULATIONS
----------------------------------------------------
CHARGE
  0 Irs       :     2.999943  s :     2.999943
      pz      :     1.999443  p :     5.998329
      px      :     1.999443
      py      :     1.999443
      dz2     :     0.999969  d :     7.999869
      dxz     :     1.999977
      dyz     :     1.999977
      dx2y2   :     0.999969
      dxy     :     1.999977
      f0      :     0.000557  f :     0.001671
      f+1     :     0.000209
      f-1     :     0.000209
      f+2     :     0.000000
      f-2     :     0.000000
      f+3     :     0.000348
      f-3     :     0.000348
      g0      :     0.000046  g :     0.000189
      g+1     :     0.000003
      g-1     :     0.000003
      g+2     :     0.000031
      g-2     :     0.000023
      g+3     :     0.000020
      g-3     :     0.000020
      g+4     :     0.000042
      g-4     :     0.000000

SPIN
  0 Irs       :     1.000016  s :     1.000016
      pz      :     0.000491  p :     0.001472
      px      :     0.000491
      py      :     0.000491
      dz2     :     0.999969  d :     1.999959
      dxz     :     0.000007
      dyz     :     0.000007
      dx2y2   :     0.999969
      dxy     :     0.000007
      f0      :    -0.000491  f :    -0.001472
      f+1     :    -0.000184
      f-1     :    -0.000184
      f+2     :    -0.000000
      f-2     :     0.000000
      f+3     :    -0.000307
      f-3     :    -0.000307
      g0      :     0.000004  g :     0.000025
      g+1     :    -0.000001
      g-1     :    -0.000001
      g+2     :     0.000031
      g-2     :    -0.000007
      g+3     :    -0.000006
      g-3     :    -0.000006
      g+4     :     0.000011
      g-4     :     0.000000


                      *****************************
                      * MAYER POPULATION ANALYSIS *
                      *****************************

  NA   - Mulliken gross atomic population
  ZA   - Total nuclear charge
  QA   - Mulliken gross atomic charge
  VA   - Mayer's total valence
  BVA  - Mayer's bonded valence
  FA   - Mayer's free valence

  ATOM       NA         ZA         QA         VA         BVA        FA
  0 Ir    17.0000    17.0000    -0.0000     3.0070     0.0000     3.0070

  Mayer bond orders larger than 0.100000


-------
TIMINGS
-------

Total SCF time: 0 days 0 hours 0 min 8 sec 

Total time                  ....       8.832 sec
Sum of individual times     ....       8.115 sec  ( 91.9%)

Fock matrix formation       ....       5.386 sec  ( 61.0%)
Diagonalization             ....       0.191 sec  (  2.2%)
Density matrix formation    ....       0.020 sec  (  0.2%)
Population analysis         ....       0.068 sec  (  0.8%)
Initial guess               ....       1.779 sec  ( 20.1%)
Orbital Transformation      ....       0.000 sec  (  0.0%)
Orbital Orthonormalization  ....       0.000 sec  (  0.0%)
DIIS solution               ....       0.612 sec  (  6.9%)


           ************************************************************
           *        Program running with 24 parallel MPI-processes    *
           *              working on a common directory               *
           ************************************************************


------------------------------------------------------------------------------- 
                              ORCA-MATRIX DRIVEN CI                            
------------------------------------------------------------------------------- 

--------------------------------
AUTOMATIC CHOICE OF INCORE LEVEL
--------------------------------

Memory available                           ...   2500.00 MB
Memory needed for S+T                      ...      4.84 MB
Memory needed for J+K                      ...      9.73 MB
Memory needed for DIIS                     ...     67.75 MB
Memory needed for 3-ext                    ...     18.18 MB
Memory needed for 4-ext                    ...     57.28 MB
Memory needed for triples                  ...      9.09 MB
 -> Final InCoreLevel    ... 5
 -> check shows that triples correction can be computed


Wavefunction type
-----------------
Correlation treatment                      ...      CCSD     
Single excitations                         ... ON
Orbital optimization                       ... OFF
Calculation of Z vector                    ... OFF
Calculation of Brueckner orbitals          ... OFF
Perturbative triple excitations            ... ON
Calculation of F12 correction              ... OFF
Frozen core treatment                      ... chemical core (0 el)
Reference Wavefunction                     ... UHF
  Alpha-MOs occ    :     0 ...    9 ( 10 MO's/ 10 electrons)
  Beta-MOs occ     :     0 ...    6 (  7 MO's/  7 electrons)
  Alpha-MOs virt   :    10 ...   71 ( 62 MO's              )
  Beta-MOs virt    :     7 ...   71 ( 65 MO's              )
Number of AO's                             ...     72
Number of electrons                        ...     17
Number of correlated electrons             ...     17

Algorithmic settings
--------------------
Integral transformation                    ... AO direct full transformation
K(C) Formation                             ... FULL-MO TRAFO
Maximum number of iterations               ...        50
Convergence tolerance (max. residuum)      ... 1.000e-05
Level shift for amplitude update           ... 2.000e-01
Maximum number of DIIS vectors             ...         7
DIIS turned on at iteration                ...         0
Damping before turning on DIIS             ...     0.500
Damping after turning on DIIS              ...     0.000
Pair specific amplitude update             ... OFF
Natural orbital iterations                 ... OFF
Perturbative natural orbital generation    ... OFF
Printlevel                                 ... 2

Memory handling:
----------------
Maximum memory for working arrays          ...   2500 MB
Data storage in matrix containers          ... UNCOMPRESSED
Data type for integral storage             ... DOUBLE
In-Core Storage of quantities:
   Amplitudes+Sigma Vector      ... YES
   J+K operators                ... YES
   DIIS vectors                 ... YES
   3-external integrals         ... YES
   4-external integrals         ... YES


Initializing the integral package          ... done
Warning: reference  - re-canonicalizations have been set to INT 1 VIRT 1

--------------------------
UNRESTRICTED FOCK OPERATOR
--------------------------

<ss|ss>:          406 b            0 skpd (  0.0%)    0.000 s ( 0.000 ms/b)
<ss|sp>:          980 b            0 skpd (  0.0%)    0.000 s ( 0.000 ms/b)
<ss|sd>:          784 b            0 skpd (  0.0%)    0.000 s ( 0.000 ms/b)
<ss|sf>:          588 b            0 skpd (  0.0%)    0.000 s ( 0.000 ms/b)
<ss|sg>:          196 b            0 skpd (  0.0%)    0.000 s ( 0.000 ms/b)
<ss|pp>:          420 b            0 skpd (  0.0%)    0.000 s ( 0.000 ms/b)
<ss|pd>:          560 b            0 skpd (  0.0%)    0.000 s ( 0.000 ms/b)
<ss|pf>:          420 b            0 skpd (  0.0%)    0.000 s ( 0.000 ms/b)
<ss|pg>:          140 b            0 skpd (  0.0%)    0.000 s ( 0.001 ms/b)
<ss|dd>:          280 b            0 skpd (  0.0%)    0.000 s ( 0.001 ms/b)
<ss|df>:          336 b            0 skpd (  0.0%)    0.000 s ( 0.000 ms/b)
<ss|dg>:          112 b            0 skpd (  0.0%)    0.000 s ( 0.002 ms/b)
<ss|ff>:          168 b            0 skpd (  0.0%)    0.000 s ( 0.001 ms/b)
<ss|fg>:           84 b            0 skpd (  0.0%)    0.000 s ( 0.002 ms/b)
<ss|gg>:           28 b            0 skpd (  0.0%)    0.000 s ( 0.009 ms/b)
<sp|sp>:          630 b            0 skpd (  0.0%)    0.000 s ( 0.000 ms/b)
<sp|sd>:          980 b            0 skpd (  0.0%)    0.000 s ( 0.000 ms/b)
<sp|sf>:          735 b            0 skpd (  0.0%)    0.000 s ( 0.000 ms/b)
<sp|sg>:          245 b            0 skpd (  0.0%)    0.000 s ( 0.001 ms/b)
<sp|pp>:          525 b            0 skpd (  0.0%)    0.000 s ( 0.001 ms/b)
<sp|pd>:          700 b            0 skpd (  0.0%)    0.000 s ( 0.001 ms/b)
<sp|pf>:          525 b            0 skpd (  0.0%)    0.001 s ( 0.001 ms/b)
<sp|pg>:          175 b            0 skpd (  0.0%)    0.000 s ( 0.002 ms/b)
<sp|dd>:          350 b            0 skpd (  0.0%)    0.001 s ( 0.002 ms/b)
<sp|df>:          420 b            0 skpd (  0.0%)    0.000 s ( 0.001 ms/b)
<sp|dg>:          140 b            0 skpd (  0.0%)    0.001 s ( 0.004 ms/b)
<sp|ff>:          210 b            0 skpd (  0.0%)    0.001 s ( 0.003 ms/b)
<sp|fg>:          105 b            0 skpd (  0.0%)    0.001 s ( 0.006 ms/b)
<sp|gg>:           35 b            0 skpd (  0.0%)    0.001 s ( 0.023 ms/b)
<sd|sd>:          406 b            0 skpd (  0.0%)    0.000 s ( 0.000 ms/b)
<sd|sf>:          588 b            0 skpd (  0.0%)    0.000 s ( 0.001 ms/b)
<sd|sg>:          196 b            0 skpd (  0.0%)    0.000 s ( 0.001 ms/b)
<sd|pp>:          420 b            0 skpd (  0.0%)    0.000 s ( 0.001 ms/b)
<sd|pd>:          560 b            0 skpd (  0.0%)    0.001 s ( 0.001 ms/b)
<sd|pf>:          420 b            0 skpd (  0.0%)    0.001 s ( 0.001 ms/b)
<sd|pg>:          140 b            0 skpd (  0.0%)    0.001 s ( 0.005 ms/b)
<sd|dd>:          280 b            0 skpd (  0.0%)    0.001 s ( 0.003 ms/b)
<sd|df>:          336 b            0 skpd (  0.0%)    0.001 s ( 0.002 ms/b)
<sd|dg>:          112 b            0 skpd (  0.0%)    0.001 s ( 0.010 ms/b)
<sd|ff>:          168 b            0 skpd (  0.0%)    0.001 s ( 0.004 ms/b)
<sd|fg>:           84 b            0 skpd (  0.0%)    0.001 s ( 0.012 ms/b)
<sd|gg>:           28 b            0 skpd (  0.0%)    0.001 s ( 0.049 ms/b)
<sf|sf>:          231 b            0 skpd (  0.0%)    0.000 s ( 0.001 ms/b)
<sf|sg>:          147 b            0 skpd (  0.0%)    0.000 s ( 0.001 ms/b)
<sf|pp>:          315 b            0 skpd (  0.0%)    0.001 s ( 0.002 ms/b)
<sf|pd>:          420 b            0 skpd (  0.0%)    0.001 s ( 0.002 ms/b)
<sf|pf>:          315 b            0 skpd (  0.0%)    0.001 s ( 0.002 ms/b)
<sf|pg>:          105 b            0 skpd (  0.0%)    0.001 s ( 0.008 ms/b)
<sf|dd>:          210 b            0 skpd (  0.0%)    0.001 s ( 0.005 ms/b)
<sf|df>:          252 b            0 skpd (  0.0%)    0.001 s ( 0.004 ms/b)
<sf|dg>:           84 b            0 skpd (  0.0%)    0.001 s ( 0.015 ms/b)
<sf|ff>:          126 b            0 skpd (  0.0%)    0.001 s ( 0.008 ms/b)
<sf|fg>:           63 b            0 skpd (  0.0%)    0.003 s ( 0.041 ms/b)
<sf|gg>:           21 b            0 skpd (  0.0%)    0.001 s ( 0.052 ms/b)
<sg|sg>:           28 b            0 skpd (  0.0%)    0.000 s ( 0.005 ms/b)
<sg|pp>:          105 b            0 skpd (  0.0%)    0.000 s ( 0.002 ms/b)
<sg|pd>:          140 b            0 skpd (  0.0%)    0.000 s ( 0.002 ms/b)
<sg|pf>:          105 b            0 skpd (  0.0%)    0.001 s ( 0.005 ms/b)
<sg|pg>:           35 b            0 skpd (  0.0%)    0.001 s ( 0.033 ms/b)
<sg|dd>:           70 b            0 skpd (  0.0%)    0.001 s ( 0.008 ms/b)
<sg|df>:           84 b            0 skpd (  0.0%)    0.001 s ( 0.007 ms/b)
<sg|dg>:           28 b            0 skpd (  0.0%)    0.002 s ( 0.061 ms/b)
<sg|ff>:           42 b            0 skpd (  0.0%)    0.001 s ( 0.019 ms/b)
<sg|fg>:           21 b            0 skpd (  0.0%)    0.001 s ( 0.057 ms/b)
<sg|gg>:            7 b            0 skpd (  0.0%)    0.001 s ( 0.092 ms/b)
<pp|pp>:          120 b            0 skpd (  0.0%)    0.000 s ( 0.002 ms/b)
<pp|pd>:          300 b            0 skpd (  0.0%)    0.000 s ( 0.001 ms/b)
<pp|pf>:          225 b            0 skpd (  0.0%)    0.000 s ( 0.002 ms/b)
<pp|pg>:           75 b            0 skpd (  0.0%)    0.001 s ( 0.010 ms/b)
<pp|dd>:          150 b            0 skpd (  0.0%)    0.001 s ( 0.005 ms/b)
<pp|df>:          180 b            0 skpd (  0.0%)    0.001 s ( 0.004 ms/b)
<pp|dg>:           60 b            0 skpd (  0.0%)    0.001 s ( 0.019 ms/b)
<pp|ff>:           90 b            0 skpd (  0.0%)    0.001 s ( 0.008 ms/b)
<pp|fg>:           45 b            0 skpd (  0.0%)    0.001 s ( 0.024 ms/b)
<pp|gg>:           15 b            0 skpd (  0.0%)    0.001 s ( 0.048 ms/b)
<pd|pd>:          210 b            0 skpd (  0.0%)    0.001 s ( 0.004 ms/b)
<pd|pf>:          300 b            0 skpd (  0.0%)    0.001 s ( 0.003 ms/b)
<pd|pg>:          100 b            0 skpd (  0.0%)    0.001 s ( 0.014 ms/b)
<pd|dd>:          200 b            0 skpd (  0.0%)    0.001 s ( 0.007 ms/b)
<pd|df>:          240 b            0 skpd (  0.0%)    0.001 s ( 0.006 ms/b)
<pd|dg>:           80 b            0 skpd (  0.0%)    0.002 s ( 0.026 ms/b)
<pd|ff>:          120 b            0 skpd (  0.0%)    0.001 s ( 0.012 ms/b)
<pd|fg>:           60 b            0 skpd (  0.0%)    0.002 s ( 0.032 ms/b)
<pd|gg>:           20 b            0 skpd (  0.0%)    0.002 s ( 0.098 ms/b)
<pf|pf>:          120 b            0 skpd (  0.0%)    0.001 s ( 0.007 ms/b)
<pf|pg>:           75 b            0 skpd (  0.0%)    0.001 s ( 0.014 ms/b)
<pf|dd>:          150 b            0 skpd (  0.0%)    0.001 s ( 0.008 ms/b)
<pf|df>:          180 b            0 skpd (  0.0%)    0.002 s ( 0.012 ms/b)
<pf|dg>:           60 b            0 skpd (  0.0%)    0.002 s ( 0.027 ms/b)
<pf|ff>:           90 b            0 skpd (  0.0%)    0.004 s ( 0.043 ms/b)
<pf|fg>:           45 b            0 skpd (  0.0%)    0.002 s ( 0.038 ms/b)
<pf|gg>:           15 b            0 skpd (  0.0%)    0.002 s ( 0.142 ms/b)
<pg|pg>:           15 b            0 skpd (  0.0%)    0.000 s ( 0.030 ms/b)
<pg|dd>:           50 b            0 skpd (  0.0%)    0.001 s ( 0.015 ms/b)
<pg|df>:           60 b            0 skpd (  0.0%)    0.001 s ( 0.010 ms/b)
<pg|dg>:           20 b            0 skpd (  0.0%)    0.001 s ( 0.050 ms/b)
<pg|ff>:           30 b            0 skpd (  0.0%)    0.001 s ( 0.033 ms/b)
<pg|fg>:           15 b            0 skpd (  0.0%)    0.001 s ( 0.064 ms/b)
<pg|gg>:            5 b            0 skpd (  0.0%)    0.001 s ( 0.233 ms/b)
<dd|dd>:           55 b            0 skpd (  0.0%)    0.001 s ( 0.020 ms/b)
<dd|df>:          120 b            0 skpd (  0.0%)    0.001 s ( 0.010 ms/b)
<dd|dg>:           40 b            0 skpd (  0.0%)    0.002 s ( 0.038 ms/b)
<dd|ff>:           60 b            0 skpd (  0.0%)    0.001 s ( 0.020 ms/b)
<dd|fg>:           30 b            0 skpd (  0.0%)    0.001 s ( 0.045 ms/b)
<dd|gg>:           10 b            0 skpd (  0.0%)    0.002 s ( 0.184 ms/b)
<df|df>:           78 b            0 skpd (  0.0%)    0.002 s ( 0.021 ms/b)
<df|dg>:           48 b            0 skpd (  0.0%)    0.002 s ( 0.050 ms/b)
<df|ff>:           72 b            0 skpd (  0.0%)    0.002 s ( 0.029 ms/b)
<df|fg>:           36 b            0 skpd (  0.0%)    0.003 s ( 0.070 ms/b)
<df|gg>:           12 b            0 skpd (  0.0%)    0.003 s ( 0.278 ms/b)
<dg|dg>:           10 b            0 skpd (  0.0%)    0.001 s ( 0.081 ms/b)
<dg|ff>:           24 b            0 skpd (  0.0%)    0.001 s ( 0.034 ms/b)
<dg|fg>:           12 b            0 skpd (  0.0%)    0.001 s ( 0.112 ms/b)
<dg|gg>:            4 b            0 skpd (  0.0%)    0.002 s ( 0.429 ms/b)
<ff|ff>:           21 b            0 skpd (  0.0%)    0.001 s ( 0.051 ms/b)
<ff|fg>:           18 b            0 skpd (  0.0%)    0.002 s ( 0.108 ms/b)
<ff|gg>:            6 b            0 skpd (  0.0%)    0.003 s ( 0.436 ms/b)
<fg|fg>:            6 b            0 skpd (  0.0%)    0.001 s ( 0.242 ms/b)
<fg|gg>:            3 b            0 skpd (  0.0%)    0.002 s ( 0.825 ms/b)
<gg|gg>:            1 b            0 skpd (  0.0%)    0.001 s ( 1.127 ms/b)
Recanonicalizing the internal orbitals
Recanonicalizing the virtual orbitals
Time needed for Fock operator              ...            0.159 sec
Reference energy                           ...   -103.439409584
Warning: for UHF the TrafoType has to be JK
Warning: for UHF the K(C)-option cannot be MO but must be AOX

-------------------------------
PARTIAL EXCHANGE TRANSFORMATION
-------------------------------

Transformation type                        ... two-operators
Generation of integrals (i,mue|j,nue)      ... ON
Generation of integrals (mue,kappa|nue,tau)... ON
Generation of integrals (i,mue|a,nue)      ... ON
Dimension of the basis                     ...   72
Number of internal alpha-MOs               ...   10 (   0-   9)
Number of internal beta-MOs                ...    7 (   0-   6)
Number of external alpha-MOs               ...   62 (  10-  71)
Number of external beta-MOs                ...   65 (   7-  71)
Pair cutoff                                ... 0.000e+00 Eh
Number of AO pairs in the trafo            ... 2628
Total Number of distinct AO pairs          ... 2628
Memory devoted for trafo                   ... 2500.0 MB 
Max. Number of MO pairs treated together   ... 63209      
Number Format for Storage                  ... Double (8 Byte)
Integral package used                      ... LIBINT

Starting integral evaluation:
    ... done with AO integral generation
Closing buffer AOK[aa] ( 0.00 GB; CompressionRatio= 0.00)
Closing buffer AOK[bb] ( 0.00 GB; CompressionRatio= 0.00)
Closing buffer AOK[ab] ( 0.00 GB; CompressionRatio= 0.00)
Closing buffer AOK[ba] ( 0.00 GB; CompressionRatio= 0.00)
Collecting buffer AOK 
Closing buffer IAAO1[aa] ( 0.00 GB; CompressionRatio= 0.00)
Closing buffer IAAO1[bb] ( 0.00 GB; CompressionRatio= 0.00)
Closing buffer IAAO1[ab] ( 0.00 GB; CompressionRatio= 0.00)
Closing buffer IAAO1[ba] ( 0.00 GB; CompressionRatio= 0.00)
Closing buffer IAAO2[aa] ( 0.00 GB; CompressionRatio= 0.00)
Closing buffer IAAO2[bb] ( 0.00 GB; CompressionRatio= 0.00)
Closing buffer IAAO2[ab] ( 0.00 GB; CompressionRatio= 0.00)
Closing buffer IAAO2[ba] ( 0.00 GB; CompressionRatio= 0.00)
Collecting buffer IAAO 
Closing buffer PRQS    ( 0.00 GB; CompressionRatio= 0.00)
Collecting buffer PRQS 
Number of alpha/alpha MO pairs in trafo    ...   55
Number of beta /beta  MO pairs in trafo    ...   28
Number of alpha/ beta MO pairs in trafo    ...   70
------------------------
SORTING OF (i,mue|j,nue)
------------------------

SORTING OF ALPHA/ALPHA PAIRS
IBATCH = 1 of  1
Closing buffer KAO[aa] ( 0.00 GB; CompressionRatio= 1.00)
Collecting buffer KAO 
SORTING OF BETA /BETA  PAIRS
IBATCH = 1 of  1
Closing buffer KAO[bb] ( 0.00 GB; CompressionRatio= 1.00)
Collecting buffer KAO 
SORTING OF ALPHA/BETA  PAIRS
IBATCH = 1 of  1
Closing buffer KAO[ab] ( 0.00 GB; CompressionRatio= 0.999710731848)
Collecting buffer KAO[ab] 
------------------------
SORTING OF (i,mue|a,nue)
------------------------

Number of alpha/alpha (i,a) pairs in trafo  ...  620
Number of beta /beta  (i,a) pairs in trafo  ...  455
Number of alpha/ beta (i,a) pairs in trafo  ...  650
Number of beta /alpha (i,a) pairs in trafo  ...  434
Setting up the alpha/alpha list             ... done
Setting up the beta /beta  list             ... done
Setting up the alpha/beta  list             ... done
Setting up the beta /alpha list             ... done
    ... Now sorting (i,mue|a,nue)integrals
    ... Integrals (i,b|a,c) will be made on the fly
SORTING OF ALPHA/ALPHA PAIRS
IBATCH = 1 of  1
Closing buffer IPAQ[aa]  0.00 GB; CompressionRatio= 1.00)
SORTING OF BETA /BETA  PAIRS
IBATCH = 1 of  1
Closing buffer IPAQ[bb]( 0.00 GB; CompressionRatio= 1.00)
SORTING OF ALPHA/BETA  PAIRS (NMatSort_ab=28)
IBATCH = 1 of  1
Closing buffer IPAQ[ab]( 0.00 GB; CompressionRatio= 1.00)
SORTING OF BETA/ALPHA  PAIRS
IBATCH = 1 of  1
Closing buffer IPAQ[ba]( 0.00 GB; CompressionRatio= 1.00)
N(AO-Batches) Done                         ...         0 
N(AO-Batches) Skipped                      ...         0 
N(IJ)-pairs Skipped                        ...         0 
TOTAL TIME for half transformation         ...     4.516 sec
AO-integral generation                     ...     0.000 sec
Half transformation                        ...     0.000 sec
K-integral sorting                         ...     1.053 sec
<ss|**>: 
------------------------------
PARTIAL COULOMB TRANSFORMATION
------------------------------

Transformation type                        ... two-operators
Dimension of the basis                     ...   72
Number of internal alpha-MOs               ...   10 (0-9)
Number of internal beta-MOs                ...    7 (0-6)
Pair cutoff                                ... 0.000e+00 Eh
Number of AO pairs included in the trafo   ... 2628
Total Number of distinct AO pairs          ... 2628
Memory devoted for trafo                   ... 2500.0 MB 
Max. Number of MO pairs treated together   ... 124687      
Max. Number of MOs treated per batch       ... 1731      
Number Format for Storage                  ... Double (8 Byte)
AO-integral source                         ... DIRECT
Integral package used                      ... LIBINT

Starting integral evaluation:
<sp|**>:         5880 b        0 skpd     0.005 s (  0.001 ms/b)
<sd|**>:         7350 b        0 skpd     0.014 s (  0.002 ms/b)
        5880 b        0 skpd     0.025 s (  0.004 ms/b)
<sf|**>:         4410 b        0 skpd     0.027 s (  0.006 ms/b)
<sg|**>: <pp|**>:         1470 b        0 skpd     0.019 s (  0.013 ms/b)
        3150 b        0 skpd     0.018 s (  0.006 ms/b)
<pd|**>:         4200 b        0 skpd     0.048 s (  0.011 ms/b)
<pf|**>:         3150 b        0 skpd     0.059 s (  0.019 ms/b)
<pg|**>:         1050 b        0 skpd     0.042 s (  0.040 ms/b)
<dd|**>:         2100 b        0 skpd     0.037 s (  0.017 ms/b)
<df|**>:         2520 b        0 skpd     0.074 s (  0.029 ms/b)
<dg|**>:          840 b        0 skpd     0.056 s (  0.067 ms/b)
<ff|**>:         1260 b        0 skpd     0.062 s (  0.049 ms/b)
<fg|**>:          630 b        0 skpd     0.062 s (  0.098 ms/b)
<gg|**>:          210 b        0 skpd     0.045 s (  0.212 ms/b)
Closing buffer AOJ[aa] ( 0.00 GB; CompressionRatio= 0.97)
Closing buffer AOJ[bb] ( 0.00 GB; CompressionRatio= 0.00)
Collecting buffer AOJ 
    ... done with AO integral generation
Number of Alpha-MO pairs included          ...   55
Number of Beta-MO pairs included           ...   28
    ... Now sorting integrals
SORTING ALPHA/ALPHA PAIRS
IBATCH = 1 of  1
Closing buffer JAO[aa] ( 0.00 GB; CompressionRatio= 1.00)
SORTING BETA/BETA PAIRS
IBATCH = 1 of  1
Closing buffer JAO[bb] ( 0.00 GB; CompressionRatio= 1.00)
Collecting buffer JAO 
TOTAL TIME for half transformation         ...     0.752 sec
AO-integral generation                     ...     0.371 sec
Half transformation                        ...     0.228 sec
J-integral sorting                         ...     0.107 sec

-------------------------- SECOND HALF TRANSFORMATION -------------------------
Formation of (ij|kl),(ij|ka), (ij|ab)      ... ok (     0.174 sec)
Formation of (ik|jl),(ik|ja), (ia|jb)      ... ok (     0.258 sec)


-----------------------
SPIN UNRESTRICTED GUESS
-----------------------

Entering MDCI_UHF_Guess, Tailored=0
Spin-components of the MP2 energy:
EMP2(aa)=     -0.115726943
EMP2(bb)=     -0.052259096
EMP2(ab)=     -0.342238653

Initial guess performed in     0.017 sec
E(0)                                       ...   -103.439409584
E(MP2)                                     ...     -0.510224691
Initial E(tot)                             ...   -103.949634275
<T|T>                                      ...      0.119472868
Number of pairs included                   ... 136

------------------------------------------------
                  UHF COUPLED CLUSTER ITERATIONS
------------------------------------------------

Number of amplitudes to be optimized       ...       413479

Iter       E(tot)           E(Corr)          Delta-E          Residual     Time      <S|S>**1/2
  0   -103.949634275     -0.510224691     -0.000000000      0.022855105    0.43      0.000001290
                           *** Turning on DIIS ***
  1   -103.924435477     -0.485025893      0.025198798      0.006061300    0.38      0.032521137
  2   -103.933089689     -0.493680105     -0.008654211      0.003955549    0.40      0.038726465
  3   -103.934304564     -0.494894979     -0.001214875      0.002034417    0.42      0.046357096
  4   -103.934776322     -0.495366737     -0.000471758      0.000747433    0.43      0.050420113
  5   -103.934875263     -0.495465679     -0.000098941      0.000203285    0.42      0.052102235
  6   -103.934887070     -0.495477486     -0.000011807      0.000036956    0.43      0.052523409
  7   -103.934888838     -0.495479254     -0.000001768      0.000007624    0.43      0.052598992
               --- The Coupled-Cluster iterations have converged ---

----------------------
COUPLED CLUSTER ENERGY
----------------------

E(0)                                       ...   -103.439409584
E(CORR)                                    ...     -0.495479254
E(TOT)                                     ...   -103.934888838
Singles norm <S|S>**1/2                    ...      0.052598992 ( 0.034654655, 0.017944337)  
T1 diagnostic                              ...      0.012757130                              

------------------
LARGEST AMPLITUDES
------------------
   9a-> 13a  -1a-> -1a       0.046047
   9a-> 22a  -1a-> -1a       0.025317
   4b-> 17b  -1b-> -1b       0.021490
   5b-> 18b  -1b-> -1b       0.021490
   6b-> 19b  -1b-> -1b       0.021490
   7a-> 20a   5b-> 18b       0.019133
   6a-> 19a   4b-> 17b       0.019104
   8a-> 21a   6b-> 19b       0.019104
   9a-> 16a   6b-> 14b       0.017770
   9a-> 14a   4b-> 16b       0.017660
   9a-> 12a   6b-> 14b       0.017330
   9a-> 10a   4b-> 16b       0.017223
   5a-> 18a   5b-> 18b       0.014892
   4a-> 17a   4b-> 17b       0.014535
   4a-> 17a   6b-> 19b       0.014531
   7a-> 36a   5b-> 34b       0.014268

----------------------
UHF TRIPLES CORRECTION (Algorithm 1)
----------------------

Multiplier for the singles contribution    ...      1.000000000

SPIN-CASE Alpha-Alpha-Alpha:
10% done
20% done
30% done
40% done
50% done
60% done
70% done
80% done
90% done


SPIN-CASE Beta-Beta-Beta:
10% done
20% done
30% done
40% done
50% done
60% done
70% done
80% done
90% done


SPIN-CASE Alpha-Alpha-Beta:
10% done
20% done
30% done
40% done
50% done
60% done
70% done
80% done
90% done


SPIN-CASE Beta-Beta-Alpha:
10% done
20% done
30% done
40% done
50% done
60% done
70% done
80% done
90% done


Triples Correction (T)                     ...     -0.017954904
    alpha-alpha-alpha ... -0.001546558 (  8.6%)
    alpha-alpha-beta  ... -0.010544177 ( 58.7%)
    alpha-beta -beta  ... -0.005612643 ( 31.3%)
    beta -beta -beta  ... -0.000251526 (  1.4%)
Scaling of triples based on CCSD energies (Peterson et al. Molecular Physics 113, 1551 (2015))
E(T*) = f*E(T) where f = E(F12-CCSD)/E(CCSD) 
f = CCSD (with F12)/ CCSD (without F12)    ...      1.000000000
Scaled triples correction (T)              ...     -0.017954904

Final correlation energy                   ...     -0.513434157
E(CCSD)                                    ...   -103.934888838
E(CCSD(T))                                 ...   -103.952843742



        !!!!!!!!!!!!!!!!!!!!!!!!!!!!!!!!!!!!!!!!!!!!!!!!!!!!!!!!!!!!!!!!!!!!!!!!!! 
        !  Warning: Densities are linearized densities                           !
        !!!!!!!!!!!!!!!!!!!!!!!!!!!!!!!!!!!!!!!!!!!!!!!!!!!!!!!!!!!!!!!!!!!!!!!!!! 

NORM  =      1.120445777 sqrt=     1.058511113
W(HF) =      0.892501914
------------------------------------------------------------------------------
                           ORCA POPULATION ANALYSIS
------------------------------------------------------------------------------
Input electron density              ... 77_Ir.mdcip
Input spin density                  ... 77_Ir.mdcir
BaseName (.gbw .S,...)              ... 77_Ir

                    ********************************
                    * MULLIKEN POPULATION ANALYSIS *
                    ********************************

------------------------------------------
MULLIKEN ATOMIC CHARGES AND SPIN DENSITIES
------------------------------------------
   0 Ir:   -0.000000    3.000000
Sum of atomic charges       :   -0.0000000
Sum of atomic spin densities:    3.0000000

---------------------------------------------------
MULLIKEN REDUCED ORBITAL CHARGES AND SPIN DENSITIES
---------------------------------------------------
CHARGE
  0 Irs       :     2.979515  s :     2.979515
      pz      :     2.005808  p :     6.017425
      px      :     2.005808
      py      :     2.005808
      dz2     :     0.997095  d :     7.904981
      dxz     :     1.970264
      dyz     :     1.970264
      dx2y2   :     0.997095
      dxy     :     1.970264
      f0      :     0.011153  f :     0.088441
      f+1     :     0.012334
      f-1     :     0.012334
      f+2     :     0.013042
      f-2     :     0.015856
      f+3     :     0.011861
      f-3     :     0.011861
      g0      :     0.000965  g :     0.009638
      g+1     :     0.001023
      g-1     :     0.001023
      g+2     :     0.001079
      g-2     :     0.001201
      g+3     :     0.001176
      g-3     :     0.001176
      g+4     :     0.000997
      g-4     :     0.000998

SPIN
  0 Irs       :     0.978371  s :     0.978371
      pz      :     0.008613  p :     0.025839
      px      :     0.008613
      py      :     0.008613
      dz2     :     0.981852  d :     1.978383
      dxz     :     0.004893
      dyz     :     0.004893
      dx2y2   :     0.981852
      dxy     :     0.004893
      f0      :     0.003569  f :     0.015059
      f+1     :     0.002459
      f-1     :     0.002459
      f+2     :     0.001793
      f-2     :    -0.001026
      f+3     :     0.002903
      f-3     :     0.002903
      g0      :     0.000314  g :     0.002348
      g+1     :     0.000296
      g-1     :     0.000296
      g+2     :     0.000327
      g-2     :     0.000145
      g+3     :     0.000167
      g-3     :     0.000167
      g+4     :     0.000318
      g-4     :     0.000317


                     *******************************
                     * LOEWDIN POPULATION ANALYSIS *
                     *******************************

-----------------------------------------
LOEWDIN ATOMIC CHARGES AND SPIN DENSITIES
-----------------------------------------
   0 Ir:   -0.000000    3.000000

--------------------------------------------------
LOEWDIN REDUCED ORBITAL CHARGES AND SPIN DENSITIES
--------------------------------------------------
CHARGE
  0 Irs       :     2.979515  s :     2.979515
      pz      :     2.005808  p :     6.017425
      px      :     2.005808
      py      :     2.005808
      dz2     :     0.997095  d :     7.904981
      dxz     :     1.970264
      dyz     :     1.970264
      dx2y2   :     0.997095
      dxy     :     1.970264
      f0      :     0.011153  f :     0.088441
      f+1     :     0.012334
      f-1     :     0.012334
      f+2     :     0.013042
      f-2     :     0.015856
      f+3     :     0.011861
      f-3     :     0.011861
      g0      :     0.000965  g :     0.009638
      g+1     :     0.001023
      g-1     :     0.001023
      g+2     :     0.001079
      g-2     :     0.001201
      g+3     :     0.001176
      g-3     :     0.001176
      g+4     :     0.000997
      g-4     :     0.000998

SPIN
  0 Irs       :     0.978371  s :     0.978371
      pz      :     0.008613  p :     0.025839
      px      :     0.008613
      py      :     0.008613
      dz2     :     0.981852  d :     1.978383
      dxz     :     0.004893
      dyz     :     0.004893
      dx2y2   :     0.981852
      dxy     :     0.004893
      f0      :     0.003569  f :     0.015059
      f+1     :     0.002459
      f-1     :     0.002459
      f+2     :     0.001793
      f-2     :    -0.001026
      f+3     :     0.002903
      f-3     :     0.002903
      g0      :     0.000314  g :     0.002348
      g+1     :     0.000296
      g-1     :     0.000296
      g+2     :     0.000327
      g-2     :     0.000145
      g+3     :     0.000167
      g-3     :     0.000167
      g+4     :     0.000318
      g-4     :     0.000317


                      *****************************
                      * MAYER POPULATION ANALYSIS *
                      *****************************

  NA   - Mulliken gross atomic population
  ZA   - Total nuclear charge
  QA   - Mulliken gross atomic charge
  VA   - Mayer's total valence
  BVA  - Mayer's bonded valence
  FA   - Mayer's free valence

  ATOM       NA         ZA         QA         VA         BVA        FA
  0 Ir    17.0000    17.0000    -0.0000     3.7743     0.0000     3.7743





------------------------------------------------------------------------------- 
                                     TIMINGS                                   
------------------------------------------------------------------------------- 


Total execution time                   ...       10.379 sec

Fock Matrix Formation                  ...        0.159 sec (  1.5%)
Initial Guess                          ...        0.017 sec (  0.2%)
DIIS Solver                            ...        0.255 sec (  2.5%)
State Vector Update                    ...        0.013 sec (  0.1%)
Sigma-vector construction              ...        3.069 sec ( 29.6%)
  <D|H|D>(0-ext Fock)                  ...        0.004 sec (  0.1% of sigma)
  <D|H|D>(0-ext)                       ...        0.016 sec (  0.5% of sigma)
  <D|H|D>(2-ext Fock)                  ...        0.001 sec (  0.0% of sigma)
  <D|H|D>(2-ext)                       ...        0.059 sec (  1.9% of sigma)
  <D|H|D>(4-ext)                       ...        1.477 sec ( 48.1% of sigma)
  <S|H|0>                              ...        0.121 sec (  3.9% of sigma)
  <S|H|D>(1-ext)                       ...        0.001 sec (  0.0% of sigma)
  <D|H|S>(1-ext)                       ...        0.023 sec (  0.8% of sigma)
  Fock-dressing                        ...        0.521 sec ( 17.0% of sigma)
  (ik|jl)-dressing                     ...        0.021 sec (  0.7% of sigma)
  (ij|ab),(ia|jb)-dressing             ...        0.627 sec ( 20.4% of sigma)
  Pair energies                        ...        0.002 sec (  0.1% of sigma)
Total Time for computing (T)           ...        0.467 sec (  4.5% of ALL)
  I/O of integral and amplitudes       ...        0.115 sec ( 24.7% of (T))
  External N**7 contributions          ...        0.116 sec ( 24.8% of (T))
  Internal N**7 contributions          ...        0.062 sec ( 13.2% of (T))
  N**6 triples energy contributions    ...        0.163 sec ( 34.9% of (T))


-------------------------   --------------------
FINAL SINGLE POINT ENERGY      -103.952843741796
-------------------------   --------------------


                            ***************************************
                            *     ORCA property calculations      *
                            ***************************************

                                    ---------------------
                                    Active property flags
                                    ---------------------
   (+) Dipole Moment


------------------------------------------------------------------------------
                       ORCA ELECTRIC PROPERTIES CALCULATION
------------------------------------------------------------------------------

Dipole Moment Calculation                       ... on
Quadrupole Moment Calculation                   ... off
Polarizability Calculation                      ... off
GBWName                                         ... 77_Ir.gbw
Electron density file                           ... 77_Ir.scfp
The origin for moment calculation is the CENTER OF MASS  = ( 0.000000,  0.000000  0.000000)

-------------
DIPOLE MOMENT
-------------
                                X             Y             Z
Electronic contribution:     -0.00000       0.00000       0.00000
Nuclear contribution   :      0.00000       0.00000       0.00000
                        -----------------------------------------
Total Dipole Moment    :     -0.00000       0.00000       0.00000
                        -----------------------------------------
Magnitude (a.u.)       :      0.00000
Magnitude (Debye)      :      0.00000



--------------------
Rotational spectrum 
--------------------
 
Rotational constants in cm-1:     0.000000     0.000000     0.000000 
Rotational constants in MHz :     0.000000     0.000000     0.000000 

 Dipole components along the rotational axes: 
x,y,z [a.u.] :    -0.000000     0.000000     0.000000 
x,y,z [Debye]:    -0.000000     0.000000     0.000000 

 

                           *** MDCI DENSITY ***

------------------------------------------------------------------------------
                       ORCA ELECTRIC PROPERTIES CALCULATION
------------------------------------------------------------------------------

Dipole Moment Calculation                       ... on
Quadrupole Moment Calculation                   ... off
Polarizability Calculation                      ... off
GBWName                                         ... 77_Ir.gbw
Electron density file                           ... 77_Ir.mdcip
The origin for moment calculation is the CENTER OF MASS  = ( 0.000000,  0.000000  0.000000)

-------------
DIPOLE MOMENT
-------------
                                X             Y             Z
Electronic contribution:     -0.00000       0.00000       0.00000
Nuclear contribution   :      0.00000       0.00000       0.00000
                        -----------------------------------------
Total Dipole Moment    :     -0.00000       0.00000       0.00000
                        -----------------------------------------
Magnitude (a.u.)       :      0.00000
Magnitude (Debye)      :      0.00000



--------------------
Rotational spectrum 
--------------------
 
Rotational constants in cm-1:     0.000000     0.000000     0.000000 
Rotational constants in MHz :     0.000000     0.000000     0.000000 

 Dipole components along the rotational axes: 
x,y,z [a.u.] :    -0.000000     0.000000     0.000000 
x,y,z [Debye]:    -0.000000     0.000000     0.000000 

 

Timings for individual modules:

Sum of individual times         ...       20.951 sec (=   0.349 min)
GTO integral calculation        ...        0.781 sec (=   0.013 min)   3.7 %
SCF iterations                  ...        9.216 sec (=   0.154 min)  44.0 %
MDCI module                     ...       10.954 sec (=   0.183 min)  52.3 %
                             ****ORCA TERMINATED NORMALLY****
TOTAL RUN TIME: 0 days 0 hours 0 minutes 21 seconds 767 msec
