
                                 *****************
                                 * O   R   C   A *
                                 *****************

           --- An Ab Initio, DFT and Semiempirical electronic structure package ---

                  #######################################################
                  #                        -***-                        #
                  #          Department of theory and spectroscopy      #
                  #               Directorship: Frank Neese             #
                  #        Max Planck Institute fuer Kohlenforschung    #
                  #                Kaiser Wilhelm Platz 1               #
                  #                 D-45470 Muelheim/Ruhr               #
                  #                      Germany                        #
                  #                                                     #
                  #                  All rights reserved                #
                  #                        -***-                        #
                  #######################################################


                         Program Version 4.2.0 -  RELEASE  -


 With contributions from (in alphabetic order):
   Daniel Aravena         : Magnetic Suceptibility
   Michael Atanasov       : Ab Initio Ligand Field Theory (pilot matlab implementation)
   Alexander A. Auer      : GIAO ZORA, VPT2
   Ute Becker             : Parallelization
   Giovanni Bistoni       : ED, misc. LED, open-shell LED, HFLED
   Martin Brehm           : Molecular dynamics
   Dmytro Bykov           : SCF Hessian
   Vijay G. Chilkuri      : MRCI spin determinant printing, contributions to CSF-ICE
   Dipayan Datta          : RHF DLPNO-CCSD density
   Achintya Kumar Dutta   : EOM-CC, STEOM-CC
   Dmitry Ganyushin       : Spin-Orbit,Spin-Spin,Magnetic field MRCI
   Miquel Garcia          : C-PCM Hessian, Gaussian charge scheme
   Yang Guo               : DLPNO-NEVPT2, CIM, IAO-localization
   Andreas Hansen         : Spin unrestricted coupled pair/coupled cluster methods
   Benjamin Helmich-Paris : CASSCF linear response (MC-RPA)
   Lee Huntington         : MR-EOM, pCC
   Robert Izsak           : Overlap fitted RIJCOSX, COSX-SCS-MP3, EOM
   Christian Kollmar      : KDIIS, OOCD, Brueckner-CCSD(T), CCSD density
   Simone Kossmann        : Meta GGA functionals, TD-DFT gradient, OOMP2, MP2 Hessian
   Martin Krupicka        : AUTO-CI
   Lucas Lang             : DCDCAS
   Dagmar Lenk            : GEPOL surface, SMD
   Dimitrios Liakos       : Extrapolation schemes; Compound Job, initial MDCI parallelization
   Dimitrios Manganas     : Further ROCIS development; embedding schemes
   Dimitrios Pantazis     : SARC Basis sets
   Taras Petrenko         : DFT Hessian,TD-DFT gradient, ASA, ECA, R-Raman, ABS, FL, XAS/XES, NRVS
   Peter Pinski           : DLPNO-MP2, DLPNO-MP2 Gradient
   Christoph Reimann      : Effective Core Potentials
   Marius Retegan         : Local ZFS, SOC
   Christoph Riplinger    : Optimizer, TS searches, QM/MM, DLPNO-CCSD(T), (RO)-DLPNO pert. Triples
   Tobias Risthaus        : Range-separated hybrids, TD-DFT gradient, RPA, STAB
   Michael Roemelt        : Original ROCIS implementation
   Masaaki Saitow         : Open-shell DLPNO-CCSD energy and density
   Barbara Sandhoefer     : DKH picture change effects
   Avijit Sen             : IP-ROCIS
   Kantharuban Sivalingam : CASSCF convergence, NEVPT2, FIC-MRCI
   Bernardo de Souza      : ESD, SOC TD-DFT
   Georgi Stoychev        : AutoAux, RI-MP2 NMR
   Willem Van den Heuvel  : Paramagnetic NMR
   Boris Wezisla          : Elementary symmetry handling
   Frank Wennmohs         : Technical directorship


 We gratefully acknowledge several colleagues who have allowed us to
 interface, adapt or use parts of their codes:
   Stefan Grimme, W. Hujo, H. Kruse,             : VdW corrections, initial TS optimization,
                  C. Bannwarth                     DFT functionals, gCP, sTDA/sTD-DF
   Ed Valeev, F. Pavosevic, A. Kumar             : LibInt (2-el integral package), F12 methods
   Garnet Chan, S. Sharma, J. Yang, R. Olivares  : DMRG
   Ulf Ekstrom                                   : XCFun DFT Library
   Mihaly Kallay                                 : mrcc  (arbitrary order and MRCC methods)
   Andreas Klamt, Michael Diedenhofen            : otool_cosmo (COSMO solvation model)
   Jiri Pittner, Ondrej Demel                    : Mk-CCSD
   Frank Weinhold                                : gennbo (NPA and NBO analysis)
   Christopher J. Cramer and Donald G. Truhlar   : smd solvation model
   Lars Goerigk                                  : TD-DFT with DH, B97 family of functionals
   V. Asgeirsson, H. Jonsson                     : NEB implementation
   FAccTs GmbH                                   : IRC, NEB, NEB-TS, Multilevel, MM, QM/MM, CI optimization
   S Lehtola, MJT Oliveira, MAL Marques          : LibXC Library


 Your calculation uses the libint2 library for the computation of 2-el integrals
 For citations please refer to: http://libint.valeyev.net

 Your ORCA version has been built with support for libXC version: 4.2.3
 For citations please refer to: https://tddft.org/programs/libxc/

 This ORCA versions uses:
   CBLAS   interface :  Fast vector & matrix operations
   LAPACKE interface :  Fast linear algebra routines
   SCALAPACK package :  Parallel linear algebra routines


Setting NCore(Hg) from 46 to 60
----- Orbital basis set information -----
Your calculation utilizes the basis: def2-QZVP
   F. Weigend and R. Ahlrichs, Phys. Chem. Chem. Phys. 7, 3297 (2005).

cite the ECPs for Hg [Def2-ECP] as follows:
Ce-Yb(ecp-28): M. Dolg, H. Stoll, H.Preuss, J. Chem. Phys., 1989, 90, 1730-1734.
Y-Cd(ecp-28), Hf-Hg(ecp-46): D. Andrae,U. Haeussermann, M. Dolg, H. Stoll, H. Preuss, Theor. Chim. Acta, 1990, 77, 123-141.
In-Sb(ecp-28), Tl-Bi(ecp-46): B. Metz, H. Stoll, M. Dolg, J. Chem. Phys., 2000, 113, 2563-2569.
Te-Xe(ecp-28), Po-Rn(ecp-46): K. A. Peterson, D. Figgen, E. Goll, H. Stoll, M. Dolg, J. Chem. Phys., 2003, 119, 11113-11123.
Rb(ecp-28), Cs(ecp-46): T. Leininger, A. Nicklass, W. Kuechle, H. Stoll, M. Dolg, A. Bergner, Chem. Phys. Lett., 1996, 255, 274-280.
Sr(ecp-28), Ba(ecp-46): M. Kaupp, P. V. Schleyer, H. Stoll and H. Preuss, J. Chem. Phys., 1991, 94, 1360-1366.
La(ecp-46): M. Dolg, H. Stoll, A. Savin, H. Preuss, Theor. Chim. Acta, 1989, 75, 173-194.
Lu(ecp-28): X. Cao, M. Dolg, J. Chem. Phys., 2001, 115, 7348-7355.

ECP parameters for Hg [Def2-ECP] have been obtained from:
TURBOMOLE (7.0.2)

================================================================================
                                        WARNINGS
                       Please study these warnings very carefully!
================================================================================


WARNING: MDCI localization with Augmented Hessian Foster-Boys
  ===> : Switching off randomization!

WARNING: Post HF methods need fully converged wavefunctions
  ===> : Setting SCFConvForced true
         You can overwrite this default with %scf ConvForced false 


INFO   : the flag for use of LIBINT has been found!

================================================================================
                                       INPUT FILE
================================================================================
NAME = 80_Hg.in
|  1> #
|  2> # 80_Hg CCSD(T)/Def2-QZVP
|  3> #
|  4> ! CCSD(T) Def2-QZVP tightscf slowconv
|  5> 
|  6> *xyz 0 1
|  7>  Hg 0.0 0.0 0.0
|  8> *
|  9> 
| 10> %maxcore 5000 
| 11> 
| 12> %pal
| 13> nprocs 24
| 14> end
| 15> 
| 16> %method
| 17> NewNCore Hg 60 end
| 18> end
| 19> 
| 20> 
| 21>                          ****END OF INPUT****
================================================================================

                       ****************************
                       * Single Point Calculation *
                       ****************************

---------------------------------
CARTESIAN COORDINATES (ANGSTROEM)
---------------------------------
  Hg     0.000000    0.000000    0.000000

----------------------------
CARTESIAN COORDINATES (A.U.)
----------------------------
  NO LB      ZA    FRAG     MASS         X           Y           Z
   0 Hg   20.0000*   0   200.590    0.000000    0.000000    0.000000
* core charge reduced due to ECP

--------------------------------
INTERNAL COORDINATES (ANGSTROEM)
--------------------------------
 Hg     0   0   0     0.000000000000     0.00000000     0.00000000

---------------------------
INTERNAL COORDINATES (A.U.)
---------------------------
 Hg     0   0   0     0.000000000000     0.00000000     0.00000000

---------------------
BASIS SET INFORMATION
---------------------
There are 1 groups of distinct atoms

 Group   1 Type Hg  : 9s8p7d3f1g contracted to 7s5p4d3f1g pattern {3111111/41111/4111/111/1}

Atom   0Hg   basis set group =>   1
-------------------------
ECP PARAMETER INFORMATION
-------------------------

 Group 1, Type Hg ECP Def2-ECP (replacing 60 core electrons, lmax=3)

Atom   0Hg   ECP group =>   1



           ************************************************************
           *        Program running with 24 parallel MPI-processes    *
           *              working on a common directory               *
           ************************************************************
------------------------------------------------------------------------------
                           ORCA GTO INTEGRAL CALCULATION
------------------------------------------------------------------------------

                         BASIS SET STATISTICS AND STARTUP INFO

 # of primitive gaussian shells          ...   28
 # of primitive gaussian functions       ...   98
 # of contracted shells                  ...   20
 # of contracted basis functions         ...   72
 Highest angular momentum                ...    4
 Maximum contraction depth               ...    4
 Integral package used                   ... LIBINT
 Integral threshhold            Thresh   ...  2.500e-11
 Primitive cut-off              TCut     ...  2.500e-12


------------------------------ INTEGRAL EVALUATION ----------------------------


 * One electron integrals 

   ECP integrals                         ... done
 Pre-screening matrix                    ... done
 Shell pair data                         ... done (   0.000 sec)



           ************************************************************
           *        Program running with 24 parallel MPI-processes    *
           *              working on a common directory               *
           ************************************************************
-------------------------------------------------------------------------------
                                 ORCA SCF
-------------------------------------------------------------------------------

------------
SCF SETTINGS
------------
Hamiltonian:
 Ab initio Hamiltonian  Method          .... Hartree-Fock(GTOs)


General Settings:
 Integral files         IntName         .... 80_Hg
 Hartree-Fock type      HFTyp           .... RHF
 Total Charge           Charge          ....    0
 Multiplicity           Mult            ....    1
 Number of Electrons    NEL             ....   20
 Basis Dimension        Dim             ....   72
 Nuclear Repulsion      ENuc            ....      0.0000000000 Eh

Convergence Acceleration:
 DIIS                   CNVDIIS         .... on
   Start iteration      DIISMaxIt       ....     0
   Startup error        DIISStart       ....  0.200000
   # of expansion vecs  DIISMaxEq       ....     5
   Bias factor          DIISBfac        ....   1.050
   Max. coefficient     DIISMaxC        ....  10.000
 Newton-Raphson         CNVNR           .... off
 SOSCF                  CNVSOSCF        .... off
 Level Shifting         CNVShift        .... on
   Level shift para.    LevelShift      ....    0.2500
   Turn off err/grad.   ShiftErr        ....    0.0000
 Zerner damping         CNVZerner       .... off
 Static damping         CNVDamp         .... on
   Fraction old density DampFac         ....    0.8500
   Max. Damping (<1)    DampMax         ....    0.9800
   Min. Damping (>=0)   DampMin         ....    0.0000
   Turn off err/grad.   DampErr         ....    0.0300
 Fernandez-Rico         CNVRico         .... off

SCF Procedure:
 Maximum # iterations   MaxIter         ....   125
 SCF integral mode      SCFMode         .... Direct
   Integral package                     .... LIBINT
 Reset frequency        DirectResetFreq ....    20
 Integral Threshold     Thresh          ....  2.500e-11 Eh
 Primitive CutOff       TCut            ....  2.500e-12 Eh

Convergence Tolerance:
 Convergence Check Mode ConvCheckMode   .... Total+1el-Energy
 Convergence forced     ConvForced      .... 1
 Energy Change          TolE            ....  1.000e-08 Eh
 1-El. energy change                    ....  1.000e-05 Eh
 DIIS Error             TolErr          ....  5.000e-07


Diagonalization of the overlap matrix:
Smallest eigenvalue                        ... 6.394e-03
Time for diagonalization                   ...    0.002 sec
Threshold for overlap eigenvalues          ... 1.000e-08
Number of eigenvalues below threshold      ... 0
Time for construction of square roots      ...    0.012 sec
Total time needed                          ...    0.014 sec

-------------------
DFT GRID GENERATION
-------------------

General Integration Accuracy     IntAcc      ...  4.340
Radial Grid Type                 RadialGrid  ... Gauss-Chebyshev
Angular Grid (max. acc.)         AngularGrid ... Lebedev-110
Angular grid pruning method      GridPruning ... 3 (G Style)
Weight generation scheme         WeightScheme... Becke
Basis function cutoff            BFCut       ...    1.0000e-11
Integration weight cutoff        WCut        ...    1.0000e-14
Grids for H and He will be reduced by one unit

# of grid points (after initial pruning)     ...   3590 (   0.0 sec)
# of grid points (after weights+screening)   ...   3590 (   0.0 sec)
Grid point division into batches done        ...    0.0 sec
Reduced shell lists constructed in    0.0 sec

Total number of grid points                  ...     3590
Total number of batches                      ...       57
Average number of points per batch           ...       62
Average number of grid points per atom       ...     3590
Average number of shells per batch           ...     5.25 (26.25%)
Average number of basis functions per batch  ...    14.25 (19.79%)
Average number of large shells per batch     ...     3.75 (71.43%)
Average number of large basis fcns per batch ...     9.75 (68.42%)
Maximum spatial batch extension              ...  25.56, 38.92, 38.92 au
Average spatial batch extension              ...   1.27,  1.82,  2.05 au

Time for grid setup =    0.063 sec

------------------------------
INITIAL GUESS: MODEL POTENTIAL
------------------------------
Loading Hartree-Fock densities                     ... done
  calling /sw/apps/orca/orca_4_2_0_linux_x86-64_openmpi314/orca 80_Hg_atom80.inp > 80_Hg_atom80.out in order to generate an atomic fitting density for atom 0 (Hg with ECP) on-the-fly... 
    atom 0 (Hg), assumed electronic state with S=1: 1s2 2s2 2p6 3s2 3p6 4s2 3d10 4p6 5s2 4d10 5p6 6s2 4f14 5d10           ... done
Calculating cut-offs                               ... done
Setting up the integral package                    ... done
Initializing the effective Hamiltonian             ... done
Starting the Coulomb interaction                   ... done (   0.0 sec)
Reading the grid                                   ... done
Mapping shells                                     ... done
Starting the XC term evaluation                    ... done (   0.0 sec)
Transforming the Hamiltonian                       ... done (   0.0 sec)
Diagonalizing the Hamiltonian                      ... done (   0.0 sec)
Back transforming the eigenvectors                 ... done (   0.0 sec)
Now organizing SCF variables                       ... done
                      ------------------
                      INITIAL GUESS DONE (   1.8 sec)
                      ------------------
--------------
SCF ITERATIONS
--------------
ITER       Energy         Delta-E        Max-DP      RMS-DP      [F,P]     Damp
               ***  Starting incremental Fock matrix formation  ***
  0   -152.4115696623   0.000000000000 0.17845581  0.00333476  0.6785037 0.8500
  1   -152.4360472714  -0.024477609014 0.15752673  0.00295922  0.5775055 0.8500
                               ***Turning on DIIS***
  2   -152.4554056292  -0.019358357850 0.13244655  0.00247776  0.4904472 0.8500
  3   -152.8129495749  -0.357543945710 0.10853259  0.00201117  0.4168702 0.8500
  4   -152.9734489410  -0.160499366099 0.09150323  0.00169082  0.3551807 0.8500
  5   -152.9466915276   0.026757413413 0.07937682  0.00147130  0.3029077 0.8500
  6   -152.8856070188   0.061084508839 0.06913689  0.00128776  0.2581965 0.8500
  7   -152.7947111067   0.090895912056 0.06055493  0.00113504  0.2199163 0.8500
  8   -152.7471956763   0.047515430418 0.05228849  0.00098505  0.1870818 0.8500
  9   -152.7223323215   0.024863354755 0.04472102  0.00084552  0.1590774 0.8500
 10   -152.7024493903   0.019882931204 0.03815735  0.00072352  0.1352759 0.8500
 11   -152.6829954548   0.019453935560 0.03257643  0.00061936  0.1150563 0.8500
 12   -152.6640168460   0.018978608758 0.02784283  0.00053079  0.0978683 0.8500
 13   -152.6473214415   0.016695404498 0.02379528  0.00045483  0.0832464 0.8500
 14   -152.6333438479   0.013977593594 0.02032198  0.00038941  0.0708060 0.8500
 15   -152.6216484752   0.011695372732 0.01734539  0.00033317  0.0602234 0.8500
 16   -152.6117168543   0.009931620863 0.01480067  0.00028494  0.0512228 0.8500
 17   -152.6032026199   0.008514234417 0.01262844  0.00024367  0.0435679 0.8500
 18   -152.5959108365   0.007291783447 0.01077475  0.00020836  0.0370572 0.8500
 19   -152.5896946541   0.006216182331 0.00919269  0.00017816  0.0315196 0.8500
               *** Restarting incremental Fock matrix formation ***
                                   *** Resetting DIIS ***
 20   -152.5490950469   0.040599607248 0.04985354  0.00094900  0.0268096 0.0000
 21   -152.5501733577  -0.001078310793 0.00165229  0.00006679  0.0034811 0.0000
 22   -152.5579603782  -0.007787020546 0.00290046  0.00007291  0.0009065 0.0000
 23   -152.5541905554   0.003769822847 0.00088485  0.00003164  0.0002969 0.0000
 24   -152.5546919400  -0.000501384665 0.00073629  0.00002060  0.0001521 0.0000
 25   -152.5547645173  -0.000072577296 0.00058601  0.00001245  0.0000660 0.0000
 26   -152.5546703489   0.000094168386 0.00034876  0.00000680  0.0000271 0.0000
 27   -152.5546425969   0.000027752022 0.00019864  0.00000379  0.0000118 0.0000
 28   -152.5546115783   0.000031018617 0.00008991  0.00000170  0.0000048 0.0000
 29   -152.5545936758   0.000017902485 0.00003468  0.00000066  0.0000019 0.0000
                            ***DIIS convergence achieved***

               *****************************************************
               *                     SUCCESS                       *
               *           SCF CONVERGED AFTER  30 CYCLES          *
               *****************************************************


----------------
TOTAL SCF ENERGY
----------------

Total Energy       :         -152.55458513 Eh           -4151.22131 eV

Components:
Nuclear Repulsion  :            0.00000000 Eh               0.00000 eV
Electronic Energy  :         -152.55458513 Eh           -4151.22131 eV
One Electron Energy:         -270.13318462 Eh           -7350.69766 eV
Two Electron Energy:          117.57859948 Eh            3199.47635 eV

Virial components:
Potential Energy   :         -203.63571552 Eh           -5541.20953 eV
Kinetic Energy     :           51.08113039 Eh            1389.98822 eV
Virial Ratio       :            3.98651545


---------------
SCF CONVERGENCE
---------------

  Last Energy change         ...    8.5410e-06  Tolerance :   1.0000e-08
  Last MAX-Density change    ...    1.2020e-05  Tolerance :   1.0000e-07
  Last RMS-Density change    ...    2.3017e-07  Tolerance :   5.0000e-09
  Last DIIS Error            ...    7.0668e-07  Tolerance :   5.0000e-07

             **** THE GBW FILE WAS UPDATED (80_Hg.gbw) ****
             **** DENSITY FILE WAS UPDATED (80_Hg.scfp) ****
             **** ENERGY FILE WAS UPDATED (80_Hg.en.tmp) ****
             **** THE GBW FILE WAS UPDATED (80_Hg.gbw) ****
             **** DENSITY FILE WAS UPDATED (80_Hg.scfp) ****
----------------
ORBITAL ENERGIES
----------------

  NO   OCC          E(Eh)            E(eV) 
   0   2.0000      -5.043841      -137.2499 
   1   2.0000      -3.031869       -82.5013 
   2   2.0000      -3.031869       -82.5013 
   3   2.0000      -3.031869       -82.5013 
   4   2.0000      -0.604306       -16.4440 
   5   2.0000      -0.604306       -16.4440 
   6   2.0000      -0.604306       -16.4440 
   7   2.0000      -0.604306       -16.4440 
   8   2.0000      -0.604306       -16.4440 
   9   2.0000      -0.327014        -8.8985 
  10   0.0000       0.048658         1.3241 
  11   0.0000       0.048658         1.3241 
  12   0.0000       0.048658         1.3241 
  13   0.0000       0.123750         3.3674 
  14   0.0000       0.249121         6.7789 
  15   0.0000       0.249121         6.7789 
  16   0.0000       0.249121         6.7789 
  17   0.0000       0.324980         8.8432 
  18   0.0000       0.324980         8.8432 
  19   0.0000       0.324980         8.8432 
  20   0.0000       0.324980         8.8432 
  21   0.0000       0.324980         8.8432 
  22   0.0000       0.676047        18.3962 
  23   0.0000       1.046374        28.4733 
  24   0.0000       1.046374        28.4733 
  25   0.0000       1.046374        28.4733 
  26   0.0000       1.046374        28.4733 
  27   0.0000       1.046374        28.4733 
  28   0.0000       1.046374        28.4733 
  29   0.0000       1.046374        28.4733 
  30   0.0000       1.135663        30.9030 
  31   0.0000       1.135663        30.9030 
  32   0.0000       1.135663        30.9030 
  33   0.0000       1.135663        30.9030 
  34   0.0000       1.135663        30.9030 
  35   0.0000       1.338081        36.4110 
  36   0.0000       1.338081        36.4110 
  37   0.0000       1.338081        36.4110 
  38   0.0000       2.533652        68.9442 
  39   0.0000       2.533652        68.9442 
  40   0.0000       2.533652        68.9442 
  41   0.0000       2.533652        68.9442 
  42   0.0000       2.533652        68.9442 
  43   0.0000       2.533652        68.9442 
  44   0.0000       2.533652        68.9442 
  45   0.0000       3.422736        93.1374 
  46   0.0000       3.450052        93.8807 
  47   0.0000       3.450052        93.8807 
  48   0.0000       3.450052        93.8807 
  49   0.0000       3.450052        93.8807 
  50   0.0000       3.450052        93.8807 
  51   0.0000       4.955725       134.8521 
  52   0.0000       4.955725       134.8521 
  53   0.0000       4.955725       134.8521 
  54   0.0000       4.955725       134.8521 
  55   0.0000       4.955725       134.8521 
  56   0.0000       4.955725       134.8521 
  57   0.0000       4.955725       134.8521 
  58   0.0000       4.955725       134.8521 
  59   0.0000       4.955725       134.8521 
  60   0.0000       6.520401       177.4291 
  61   0.0000       6.520401       177.4291 
  62   0.0000       6.520401       177.4291 
  63   0.0000       6.520401       177.4291 
  64   0.0000       6.520401       177.4291 
  65   0.0000       6.520401       177.4291 
  66   0.0000       6.520401       177.4291 
  67   0.0000      32.967119       897.0809 
  68   0.0000      32.967119       897.0809 
  69   0.0000      32.967119       897.0809 
  70   0.0000      36.686608       998.2934 
  71   0.0000     125.123802      3404.7917 

                    ********************************
                    * MULLIKEN POPULATION ANALYSIS *
                    ********************************

-----------------------
MULLIKEN ATOMIC CHARGES
-----------------------
   0 Hg:    0.000000
Sum of atomic charges:    0.0000000

--------------------------------
MULLIKEN REDUCED ORBITAL CHARGES
--------------------------------
  0 Hgs       :     4.000000  s :     4.000000
      pz      :     2.000000  p :     6.000000
      px      :     2.000000
      py      :     2.000000
      dz2     :     2.000000  d :    10.000000
      dxz     :     2.000000
      dyz     :     2.000000
      dx2y2   :     2.000000
      dxy     :     2.000000
      f0      :     0.000000  f :     0.000000
      f+1     :     0.000000
      f-1     :     0.000000
      f+2     :     0.000000
      f-2     :     0.000000
      f+3     :     0.000000
      f-3     :     0.000000
      g0      :     0.000000  g :     0.000000
      g+1     :     0.000000
      g-1     :     0.000000
      g+2     :     0.000000
      g-2     :     0.000000
      g+3     :     0.000000
      g-3     :     0.000000
      g+4     :     0.000000
      g-4     :     0.000000


                     *******************************
                     * LOEWDIN POPULATION ANALYSIS *
                     *******************************

----------------------
LOEWDIN ATOMIC CHARGES
----------------------
   0 Hg:    0.000000

-------------------------------
LOEWDIN REDUCED ORBITAL CHARGES
-------------------------------
  0 Hgs       :     4.000000  s :     4.000000
      pz      :     2.000000  p :     6.000000
      px      :     2.000000
      py      :     2.000000
      dz2     :     2.000000  d :    10.000000
      dxz     :     2.000000
      dyz     :     2.000000
      dx2y2   :     2.000000
      dxy     :     2.000000
      f0      :     0.000000  f :     0.000000
      f+1     :     0.000000
      f-1     :     0.000000
      f+2     :     0.000000
      f-2     :     0.000000
      f+3     :     0.000000
      f-3     :     0.000000
      g0      :     0.000000  g :     0.000000
      g+1     :     0.000000
      g-1     :     0.000000
      g+2     :     0.000000
      g-2     :     0.000000
      g+3     :     0.000000
      g-3     :     0.000000
      g+4     :     0.000000
      g-4     :     0.000000


                      *****************************
                      * MAYER POPULATION ANALYSIS *
                      *****************************

  NA   - Mulliken gross atomic population
  ZA   - Total nuclear charge
  QA   - Mulliken gross atomic charge
  VA   - Mayer's total valence
  BVA  - Mayer's bonded valence
  FA   - Mayer's free valence

  ATOM       NA         ZA         QA         VA         BVA        FA
  0 Hg    20.0000    20.0000     0.0000     0.0000     0.0000     0.0000

  Mayer bond orders larger than 0.100000


--------------------------
ATOM BASIS FOR ELEMENT Hg
--------------------------
 NewGTO Hg
 S 9
    1         48.013786990000        -0.005559421732
    2         21.239875095000         0.168578373527
    3         15.876100879000        -0.355268134627
    4          5.486593942900         0.796522931551
    5          1.552176689500        -0.865390189425
    6          0.747425411900        -0.511439430787
    7          0.202688384800        -0.028262720260
    8          0.093376229200         0.009138120324
    9          0.041248705600        -0.002226466610
 S 9
    1         48.013786990000        -0.001965451323
    2         21.239875095000         0.059598390505
    3         15.876100879000        -0.125599794199
    4          5.486593942900         0.308621797247
    5          1.552176689500        -0.476904165750
    6          0.747425411900        -0.299848731349
    7          0.202688384800         0.381897723706
    8          0.093376229200         0.587659171524
    9          0.041248705600         0.245769867650
 S 9
    1         48.013786990000        -0.001051124138
    2         21.239875095000         0.031873242596
    3         15.876100879000        -0.067170819154
    4          5.486593942900         0.163733046199
    5          1.552176689500        -0.327571273968
    6          0.747425411900         0.074064667135
    7          0.202688384800        -0.809369540684
    8          0.093376229200         3.111127761523
    9          0.041248705600        -2.611213357410
 S 9
    1         48.013786990000        -0.001674325537
    2         21.239875095000         0.050770581807
    3         15.876100879000        -0.106995752273
    4          5.486593942900         0.275098156526
    5          1.552176689500        -0.128465916186
    6          0.747425411900        -1.451924617230
    7          0.202688384800         4.968017195245
    8          0.093376229200        -5.575170136930
    9          0.041248705600         2.003112989908
 S 9
    1         48.013786990000         0.009532608870
    2         21.239875095000        -0.289057347380
    3         15.876100879000         0.609169862393
    4          5.486593942900        -1.546904629763
    5          1.552176689500         5.392314761608
    6          0.747425411900        -6.065402667215
    7          0.202688384800         4.153622745715
    8          0.093376229200        -2.979937435997
    9          0.041248705600         0.896950516017
 S 9
    1         48.013786990000         0.053956850536
    2         21.239875095000        -1.636133853987
    3         15.876100879000         3.448047398631
    4          5.486593942900        -3.802716221111
    5          1.552176689500         3.348494329672
    6          0.747425411900        -2.385999056533
    7          0.202688384800         1.161035058283
    8          0.093376229200        -0.816164626809
    9          0.041248705600         0.250112468453
 S 9
    1         48.013786990000         0.056603546112
    2         21.239875095000        -1.716389617440
    3         15.876100879000         3.617181284423
    4          5.486593942900        -1.631372525415
    5          1.552176689500         1.074564095575
    6          0.747425411900        -0.731366023078
    7          0.202688384800         0.351690841687
    8          0.093376229200        -0.247940728371
    9          0.041248705600         0.076219965715
 P 8
    1         17.500000000000        -0.086454387533
    2         15.252594855000         0.153268218812
    3          6.440471516900        -0.302739748478
    4          1.818015992000         0.543595246336
    5          0.900679818000         0.497500425139
    6          0.413045401200         0.138135688594
    7          0.118457026500         0.005986119874
    8          0.036087619300        -0.000403716377
 P 8
    1         17.500000000000        -0.011623852279
    2         15.252594855000         0.020607018168
    3          6.440471516900        -0.040703568850
    4          1.818015992000         0.073086757345
    5          0.900679818000         0.132019573384
    6          0.413045401200        -0.079425907771
    7          0.118457026500        -0.083481259662
    8          0.036087619300        -0.932136056833
 P 8
    1         17.500000000000        -0.022305880139
    2         15.252594855000         0.039544349518
    3          6.440471516900        -0.078109124773
    4          1.818015992000         0.140251648934
    5          0.900679818000         0.169574842206
    6          0.413045401200         0.153127296648
    7          0.118457026500        -1.479253488794
    8          0.036087619300         1.015328045047
 P 8
    1         17.500000000000        -0.057090535344
    2         15.252594855000         0.101211342915
    3          6.440471516900        -0.199915525441
    4          1.818015992000         0.358965513597
    5          0.900679818000         1.300444955401
    6          0.413045401200        -2.431600263359
    7          0.118457026500         1.344482536284
    8          0.036087619300        -0.446343631763
 P 8
    1         17.500000000000        -0.573823856525
    2         15.252594855000         1.017287414915
    3          6.440471516900        -2.009375058363
    4          1.818015992000         3.608005672604
    5          0.900679818000        -4.253788224871
    6          0.413045401200         2.201220428777
    7          0.118457026500        -0.643201431896
    8          0.036087619300         0.203024371291
 D 7
    1         11.888648987000        -0.013304478718
    2          6.777366095400         0.073309055191
    3          2.093494134000        -0.241437534390
    4          1.081708717600        -0.388462895224
    5          0.533291360600        -0.346385729364
    6          0.249841018300        -0.191494489139
    7          0.108797700600        -0.046714999526
 D 7
    1         11.888648987000        -0.004592762374
    2          6.777366095400         0.025306596181
    3          2.093494134000        -0.083345258915
    4          1.081708717600        -0.134099035857
    5          0.533291360600         0.115570796872
    6          0.249841018300        -0.637727817460
    7          0.108797700600         1.354849929625
 D 7
    1         11.888648987000        -0.005873480246
    2          6.777366095400         0.032363484252
    3          2.093494134000        -0.106586557714
    4          1.081708717600        -0.171493313607
    5          0.533291360600        -1.027658132631
    6          0.249841018300         2.286323205641
    7          0.108797700600        -1.085034915615
 D 7
    1         11.888648987000        -0.036892052164
    2          6.777366095400         0.203279026970
    3          2.093494134000        -0.669483284661
    4          1.081708717600        -1.077170605314
    5          0.533291360600         2.769958787347
    6          0.249841018300        -1.946568239800
    7          0.108797700600         0.621473034278
 F 3
    1          1.889380000000         0.115575373606
    2          0.795690000000        -0.084611193866
    3          0.335100000000         1.027356912027
 F 3
    1          1.889380000000         0.077697164881
    2          0.795690000000         1.264475784414
    3          0.335100000000        -0.879065245955
 F 3
    1          1.889380000000         1.450685120027
    2          0.795690000000        -1.419027536903
    3          0.335100000000         0.543788651427
 G 1
    1          1.289500000000         1.000000000000
 end
  // -----------------------------------------------
  // The basis set
  // -----------------------------------------------
  BAS[ATNO] = new BFNGauss[NSH];
  // Basis function   1 L = s
  InitBFNGauss(BAS[ATNO][  0]);
  BAS[ATNO][  0].l  = 0;
  BAS[ATNO][  0].ng = 9;
  BAS[ATNO][  0].a[  0] =        48.013786990000;     BAS[ATNO][  0].d[  0] =         0.005559421732;
  BAS[ATNO][  0].a[  1] =        21.239875095000;     BAS[ATNO][  0].d[  1] =        -0.168578373527;
  BAS[ATNO][  0].a[  2] =        15.876100879000;     BAS[ATNO][  0].d[  2] =         0.355268134627;
  BAS[ATNO][  0].a[  3] =         5.486593942900;     BAS[ATNO][  0].d[  3] =        -0.796522931551;
  BAS[ATNO][  0].a[  4] =         1.552176689500;     BAS[ATNO][  0].d[  4] =         0.865390189425;
  BAS[ATNO][  0].a[  5] =         0.747425411900;     BAS[ATNO][  0].d[  5] =         0.511439430787;
  BAS[ATNO][  0].a[  6] =         0.202688384800;     BAS[ATNO][  0].d[  6] =         0.028262720260;
  BAS[ATNO][  0].a[  7] =         0.093376229200;     BAS[ATNO][  0].d[  7] =        -0.009138120324;
  BAS[ATNO][  0].a[  8] =         0.041248705600;     BAS[ATNO][  0].d[  8] =         0.002226466610;

  // Basis function   2 L = s
  InitBFNGauss(BAS[ATNO][  1]);
  BAS[ATNO][  1].l  = 0;
  BAS[ATNO][  1].ng = 9;
  BAS[ATNO][  1].a[  0] =        48.013786990000;     BAS[ATNO][  1].d[  0] =        -0.001965451323;
  BAS[ATNO][  1].a[  1] =        21.239875095000;     BAS[ATNO][  1].d[  1] =         0.059598390505;
  BAS[ATNO][  1].a[  2] =        15.876100879000;     BAS[ATNO][  1].d[  2] =        -0.125599794199;
  BAS[ATNO][  1].a[  3] =         5.486593942900;     BAS[ATNO][  1].d[  3] =         0.308621797247;
  BAS[ATNO][  1].a[  4] =         1.552176689500;     BAS[ATNO][  1].d[  4] =        -0.476904165750;
  BAS[ATNO][  1].a[  5] =         0.747425411900;     BAS[ATNO][  1].d[  5] =        -0.299848731349;
  BAS[ATNO][  1].a[  6] =         0.202688384800;     BAS[ATNO][  1].d[  6] =         0.381897723706;
  BAS[ATNO][  1].a[  7] =         0.093376229200;     BAS[ATNO][  1].d[  7] =         0.587659171524;
  BAS[ATNO][  1].a[  8] =         0.041248705600;     BAS[ATNO][  1].d[  8] =         0.245769867650;

  // Basis function   3 L = s
  InitBFNGauss(BAS[ATNO][  2]);
  BAS[ATNO][  2].l  = 0;
  BAS[ATNO][  2].ng = 9;
  BAS[ATNO][  2].a[  0] =        48.013786990000;     BAS[ATNO][  2].d[  0] =        -0.001051124138;
  BAS[ATNO][  2].a[  1] =        21.239875095000;     BAS[ATNO][  2].d[  1] =         0.031873242596;
  BAS[ATNO][  2].a[  2] =        15.876100879000;     BAS[ATNO][  2].d[  2] =        -0.067170819154;
  BAS[ATNO][  2].a[  3] =         5.486593942900;     BAS[ATNO][  2].d[  3] =         0.163733046199;
  BAS[ATNO][  2].a[  4] =         1.552176689500;     BAS[ATNO][  2].d[  4] =        -0.327571273968;
  BAS[ATNO][  2].a[  5] =         0.747425411900;     BAS[ATNO][  2].d[  5] =         0.074064667135;
  BAS[ATNO][  2].a[  6] =         0.202688384800;     BAS[ATNO][  2].d[  6] =        -0.809369540684;
  BAS[ATNO][  2].a[  7] =         0.093376229200;     BAS[ATNO][  2].d[  7] =         3.111127761523;
  BAS[ATNO][  2].a[  8] =         0.041248705600;     BAS[ATNO][  2].d[  8] =        -2.611213357410;

  // Basis function   4 L = s
  InitBFNGauss(BAS[ATNO][  3]);
  BAS[ATNO][  3].l  = 0;
  BAS[ATNO][  3].ng = 9;
  BAS[ATNO][  3].a[  0] =        48.013786990000;     BAS[ATNO][  3].d[  0] =         0.001674325537;
  BAS[ATNO][  3].a[  1] =        21.239875095000;     BAS[ATNO][  3].d[  1] =        -0.050770581807;
  BAS[ATNO][  3].a[  2] =        15.876100879000;     BAS[ATNO][  3].d[  2] =         0.106995752273;
  BAS[ATNO][  3].a[  3] =         5.486593942900;     BAS[ATNO][  3].d[  3] =        -0.275098156526;
  BAS[ATNO][  3].a[  4] =         1.552176689500;     BAS[ATNO][  3].d[  4] =         0.128465916186;
  BAS[ATNO][  3].a[  5] =         0.747425411900;     BAS[ATNO][  3].d[  5] =         1.451924617230;
  BAS[ATNO][  3].a[  6] =         0.202688384800;     BAS[ATNO][  3].d[  6] =        -4.968017195245;
  BAS[ATNO][  3].a[  7] =         0.093376229200;     BAS[ATNO][  3].d[  7] =         5.575170136930;
  BAS[ATNO][  3].a[  8] =         0.041248705600;     BAS[ATNO][  3].d[  8] =        -2.003112989908;

  // Basis function   5 L = s
  InitBFNGauss(BAS[ATNO][  4]);
  BAS[ATNO][  4].l  = 0;
  BAS[ATNO][  4].ng = 9;
  BAS[ATNO][  4].a[  0] =        48.013786990000;     BAS[ATNO][  4].d[  0] =        -0.009532608870;
  BAS[ATNO][  4].a[  1] =        21.239875095000;     BAS[ATNO][  4].d[  1] =         0.289057347380;
  BAS[ATNO][  4].a[  2] =        15.876100879000;     BAS[ATNO][  4].d[  2] =        -0.609169862393;
  BAS[ATNO][  4].a[  3] =         5.486593942900;     BAS[ATNO][  4].d[  3] =         1.546904629763;
  BAS[ATNO][  4].a[  4] =         1.552176689500;     BAS[ATNO][  4].d[  4] =        -5.392314761608;
  BAS[ATNO][  4].a[  5] =         0.747425411900;     BAS[ATNO][  4].d[  5] =         6.065402667215;
  BAS[ATNO][  4].a[  6] =         0.202688384800;     BAS[ATNO][  4].d[  6] =        -4.153622745715;
  BAS[ATNO][  4].a[  7] =         0.093376229200;     BAS[ATNO][  4].d[  7] =         2.979937435997;
  BAS[ATNO][  4].a[  8] =         0.041248705600;     BAS[ATNO][  4].d[  8] =        -0.896950516017;

  // Basis function   6 L = s
  InitBFNGauss(BAS[ATNO][  5]);
  BAS[ATNO][  5].l  = 0;
  BAS[ATNO][  5].ng = 9;
  BAS[ATNO][  5].a[  0] =        48.013786990000;     BAS[ATNO][  5].d[  0] =        -0.053956850536;
  BAS[ATNO][  5].a[  1] =        21.239875095000;     BAS[ATNO][  5].d[  1] =         1.636133853987;
  BAS[ATNO][  5].a[  2] =        15.876100879000;     BAS[ATNO][  5].d[  2] =        -3.448047398631;
  BAS[ATNO][  5].a[  3] =         5.486593942900;     BAS[ATNO][  5].d[  3] =         3.802716221111;
  BAS[ATNO][  5].a[  4] =         1.552176689500;     BAS[ATNO][  5].d[  4] =        -3.348494329672;
  BAS[ATNO][  5].a[  5] =         0.747425411900;     BAS[ATNO][  5].d[  5] =         2.385999056533;
  BAS[ATNO][  5].a[  6] =         0.202688384800;     BAS[ATNO][  5].d[  6] =        -1.161035058283;
  BAS[ATNO][  5].a[  7] =         0.093376229200;     BAS[ATNO][  5].d[  7] =         0.816164626809;
  BAS[ATNO][  5].a[  8] =         0.041248705600;     BAS[ATNO][  5].d[  8] =        -0.250112468453;

  // Basis function   7 L = s
  InitBFNGauss(BAS[ATNO][  6]);
  BAS[ATNO][  6].l  = 0;
  BAS[ATNO][  6].ng = 9;
  BAS[ATNO][  6].a[  0] =        48.013786990000;     BAS[ATNO][  6].d[  0] =         0.056603546112;
  BAS[ATNO][  6].a[  1] =        21.239875095000;     BAS[ATNO][  6].d[  1] =        -1.716389617440;
  BAS[ATNO][  6].a[  2] =        15.876100879000;     BAS[ATNO][  6].d[  2] =         3.617181284423;
  BAS[ATNO][  6].a[  3] =         5.486593942900;     BAS[ATNO][  6].d[  3] =        -1.631372525415;
  BAS[ATNO][  6].a[  4] =         1.552176689500;     BAS[ATNO][  6].d[  4] =         1.074564095575;
  BAS[ATNO][  6].a[  5] =         0.747425411900;     BAS[ATNO][  6].d[  5] =        -0.731366023078;
  BAS[ATNO][  6].a[  6] =         0.202688384800;     BAS[ATNO][  6].d[  6] =         0.351690841687;
  BAS[ATNO][  6].a[  7] =         0.093376229200;     BAS[ATNO][  6].d[  7] =        -0.247940728371;
  BAS[ATNO][  6].a[  8] =         0.041248705600;     BAS[ATNO][  6].d[  8] =         0.076219965715;

  // Basis function   8 L = p
  InitBFNGauss(BAS[ATNO][  7]);
  BAS[ATNO][  7].l  = 1;
  BAS[ATNO][  7].ng = 8;
  BAS[ATNO][  7].a[  0] =        17.500000000000;     BAS[ATNO][  7].d[  0] =        -0.086454387533;
  BAS[ATNO][  7].a[  1] =        15.252594855000;     BAS[ATNO][  7].d[  1] =         0.153268218812;
  BAS[ATNO][  7].a[  2] =         6.440471516900;     BAS[ATNO][  7].d[  2] =        -0.302739748478;
  BAS[ATNO][  7].a[  3] =         1.818015992000;     BAS[ATNO][  7].d[  3] =         0.543595246336;
  BAS[ATNO][  7].a[  4] =         0.900679818000;     BAS[ATNO][  7].d[  4] =         0.497500425139;
  BAS[ATNO][  7].a[  5] =         0.413045401200;     BAS[ATNO][  7].d[  5] =         0.138135688594;
  BAS[ATNO][  7].a[  6] =         0.118457026500;     BAS[ATNO][  7].d[  6] =         0.005986119874;
  BAS[ATNO][  7].a[  7] =         0.036087619300;     BAS[ATNO][  7].d[  7] =        -0.000403716377;

  // Basis function   9 L = p
  InitBFNGauss(BAS[ATNO][  8]);
  BAS[ATNO][  8].l  = 1;
  BAS[ATNO][  8].ng = 8;
  BAS[ATNO][  8].a[  0] =        17.500000000000;     BAS[ATNO][  8].d[  0] =         0.011623852279;
  BAS[ATNO][  8].a[  1] =        15.252594855000;     BAS[ATNO][  8].d[  1] =        -0.020607018168;
  BAS[ATNO][  8].a[  2] =         6.440471516900;     BAS[ATNO][  8].d[  2] =         0.040703568850;
  BAS[ATNO][  8].a[  3] =         1.818015992000;     BAS[ATNO][  8].d[  3] =        -0.073086757345;
  BAS[ATNO][  8].a[  4] =         0.900679818000;     BAS[ATNO][  8].d[  4] =        -0.132019573384;
  BAS[ATNO][  8].a[  5] =         0.413045401200;     BAS[ATNO][  8].d[  5] =         0.079425907771;
  BAS[ATNO][  8].a[  6] =         0.118457026500;     BAS[ATNO][  8].d[  6] =         0.083481259662;
  BAS[ATNO][  8].a[  7] =         0.036087619300;     BAS[ATNO][  8].d[  7] =         0.932136056833;

  // Basis function  10 L = p
  InitBFNGauss(BAS[ATNO][  9]);
  BAS[ATNO][  9].l  = 1;
  BAS[ATNO][  9].ng = 8;
  BAS[ATNO][  9].a[  0] =        17.500000000000;     BAS[ATNO][  9].d[  0] =         0.022305880139;
  BAS[ATNO][  9].a[  1] =        15.252594855000;     BAS[ATNO][  9].d[  1] =        -0.039544349518;
  BAS[ATNO][  9].a[  2] =         6.440471516900;     BAS[ATNO][  9].d[  2] =         0.078109124773;
  BAS[ATNO][  9].a[  3] =         1.818015992000;     BAS[ATNO][  9].d[  3] =        -0.140251648934;
  BAS[ATNO][  9].a[  4] =         0.900679818000;     BAS[ATNO][  9].d[  4] =        -0.169574842206;
  BAS[ATNO][  9].a[  5] =         0.413045401200;     BAS[ATNO][  9].d[  5] =        -0.153127296648;
  BAS[ATNO][  9].a[  6] =         0.118457026500;     BAS[ATNO][  9].d[  6] =         1.479253488794;
  BAS[ATNO][  9].a[  7] =         0.036087619300;     BAS[ATNO][  9].d[  7] =        -1.015328045047;

  // Basis function  11 L = p
  InitBFNGauss(BAS[ATNO][ 10]);
  BAS[ATNO][ 10].l  = 1;
  BAS[ATNO][ 10].ng = 8;
  BAS[ATNO][ 10].a[  0] =        17.500000000000;     BAS[ATNO][ 10].d[  0] =         0.057090535344;
  BAS[ATNO][ 10].a[  1] =        15.252594855000;     BAS[ATNO][ 10].d[  1] =        -0.101211342915;
  BAS[ATNO][ 10].a[  2] =         6.440471516900;     BAS[ATNO][ 10].d[  2] =         0.199915525441;
  BAS[ATNO][ 10].a[  3] =         1.818015992000;     BAS[ATNO][ 10].d[  3] =        -0.358965513597;
  BAS[ATNO][ 10].a[  4] =         0.900679818000;     BAS[ATNO][ 10].d[  4] =        -1.300444955401;
  BAS[ATNO][ 10].a[  5] =         0.413045401200;     BAS[ATNO][ 10].d[  5] =         2.431600263359;
  BAS[ATNO][ 10].a[  6] =         0.118457026500;     BAS[ATNO][ 10].d[  6] =        -1.344482536284;
  BAS[ATNO][ 10].a[  7] =         0.036087619300;     BAS[ATNO][ 10].d[  7] =         0.446343631763;

  // Basis function  12 L = p
  InitBFNGauss(BAS[ATNO][ 11]);
  BAS[ATNO][ 11].l  = 1;
  BAS[ATNO][ 11].ng = 8;
  BAS[ATNO][ 11].a[  0] =        17.500000000000;     BAS[ATNO][ 11].d[  0] =         0.573823856525;
  BAS[ATNO][ 11].a[  1] =        15.252594855000;     BAS[ATNO][ 11].d[  1] =        -1.017287414915;
  BAS[ATNO][ 11].a[  2] =         6.440471516900;     BAS[ATNO][ 11].d[  2] =         2.009375058363;
  BAS[ATNO][ 11].a[  3] =         1.818015992000;     BAS[ATNO][ 11].d[  3] =        -3.608005672604;
  BAS[ATNO][ 11].a[  4] =         0.900679818000;     BAS[ATNO][ 11].d[  4] =         4.253788224871;
  BAS[ATNO][ 11].a[  5] =         0.413045401200;     BAS[ATNO][ 11].d[  5] =        -2.201220428777;
  BAS[ATNO][ 11].a[  6] =         0.118457026500;     BAS[ATNO][ 11].d[  6] =         0.643201431896;
  BAS[ATNO][ 11].a[  7] =         0.036087619300;     BAS[ATNO][ 11].d[  7] =        -0.203024371291;

  // Basis function  13 L = d
  InitBFNGauss(BAS[ATNO][ 12]);
  BAS[ATNO][ 12].l  = 2;
  BAS[ATNO][ 12].ng = 7;
  BAS[ATNO][ 12].a[  0] =        11.888648987000;     BAS[ATNO][ 12].d[  0] =         0.013304478718;
  BAS[ATNO][ 12].a[  1] =         6.777366095400;     BAS[ATNO][ 12].d[  1] =        -0.073309055191;
  BAS[ATNO][ 12].a[  2] =         2.093494134000;     BAS[ATNO][ 12].d[  2] =         0.241437534390;
  BAS[ATNO][ 12].a[  3] =         1.081708717600;     BAS[ATNO][ 12].d[  3] =         0.388462895224;
  BAS[ATNO][ 12].a[  4] =         0.533291360600;     BAS[ATNO][ 12].d[  4] =         0.346385729364;
  BAS[ATNO][ 12].a[  5] =         0.249841018300;     BAS[ATNO][ 12].d[  5] =         0.191494489139;
  BAS[ATNO][ 12].a[  6] =         0.108797700600;     BAS[ATNO][ 12].d[  6] =         0.046714999526;

  // Basis function  14 L = d
  InitBFNGauss(BAS[ATNO][ 13]);
  BAS[ATNO][ 13].l  = 2;
  BAS[ATNO][ 13].ng = 7;
  BAS[ATNO][ 13].a[  0] =        11.888648987000;     BAS[ATNO][ 13].d[  0] =        -0.004592762374;
  BAS[ATNO][ 13].a[  1] =         6.777366095400;     BAS[ATNO][ 13].d[  1] =         0.025306596181;
  BAS[ATNO][ 13].a[  2] =         2.093494134000;     BAS[ATNO][ 13].d[  2] =        -0.083345258915;
  BAS[ATNO][ 13].a[  3] =         1.081708717600;     BAS[ATNO][ 13].d[  3] =        -0.134099035857;
  BAS[ATNO][ 13].a[  4] =         0.533291360600;     BAS[ATNO][ 13].d[  4] =         0.115570796872;
  BAS[ATNO][ 13].a[  5] =         0.249841018300;     BAS[ATNO][ 13].d[  5] =        -0.637727817460;
  BAS[ATNO][ 13].a[  6] =         0.108797700600;     BAS[ATNO][ 13].d[  6] =         1.354849929625;

  // Basis function  15 L = d
  InitBFNGauss(BAS[ATNO][ 14]);
  BAS[ATNO][ 14].l  = 2;
  BAS[ATNO][ 14].ng = 7;
  BAS[ATNO][ 14].a[  0] =        11.888648987000;     BAS[ATNO][ 14].d[  0] =        -0.005873480246;
  BAS[ATNO][ 14].a[  1] =         6.777366095400;     BAS[ATNO][ 14].d[  1] =         0.032363484252;
  BAS[ATNO][ 14].a[  2] =         2.093494134000;     BAS[ATNO][ 14].d[  2] =        -0.106586557714;
  BAS[ATNO][ 14].a[  3] =         1.081708717600;     BAS[ATNO][ 14].d[  3] =        -0.171493313607;
  BAS[ATNO][ 14].a[  4] =         0.533291360600;     BAS[ATNO][ 14].d[  4] =        -1.027658132631;
  BAS[ATNO][ 14].a[  5] =         0.249841018300;     BAS[ATNO][ 14].d[  5] =         2.286323205641;
  BAS[ATNO][ 14].a[  6] =         0.108797700600;     BAS[ATNO][ 14].d[  6] =        -1.085034915615;

  // Basis function  16 L = d
  InitBFNGauss(BAS[ATNO][ 15]);
  BAS[ATNO][ 15].l  = 2;
  BAS[ATNO][ 15].ng = 7;
  BAS[ATNO][ 15].a[  0] =        11.888648987000;     BAS[ATNO][ 15].d[  0] =        -0.036892052164;
  BAS[ATNO][ 15].a[  1] =         6.777366095400;     BAS[ATNO][ 15].d[  1] =         0.203279026970;
  BAS[ATNO][ 15].a[  2] =         2.093494134000;     BAS[ATNO][ 15].d[  2] =        -0.669483284661;
  BAS[ATNO][ 15].a[  3] =         1.081708717600;     BAS[ATNO][ 15].d[  3] =        -1.077170605314;
  BAS[ATNO][ 15].a[  4] =         0.533291360600;     BAS[ATNO][ 15].d[  4] =         2.769958787347;
  BAS[ATNO][ 15].a[  5] =         0.249841018300;     BAS[ATNO][ 15].d[  5] =        -1.946568239800;
  BAS[ATNO][ 15].a[  6] =         0.108797700600;     BAS[ATNO][ 15].d[  6] =         0.621473034278;

  // Basis function  17 L = f
  InitBFNGauss(BAS[ATNO][ 16]);
  BAS[ATNO][ 16].l  = 3;
  BAS[ATNO][ 16].ng = 3;
  BAS[ATNO][ 16].a[  0] =         1.889380000000;     BAS[ATNO][ 16].d[  0] =         0.115575373606;
  BAS[ATNO][ 16].a[  1] =         0.795690000000;     BAS[ATNO][ 16].d[  1] =        -0.084611193866;
  BAS[ATNO][ 16].a[  2] =         0.335100000000;     BAS[ATNO][ 16].d[  2] =         1.027356912027;

  // Basis function  18 L = f
  InitBFNGauss(BAS[ATNO][ 17]);
  BAS[ATNO][ 17].l  = 3;
  BAS[ATNO][ 17].ng = 3;
  BAS[ATNO][ 17].a[  0] =         1.889380000000;     BAS[ATNO][ 17].d[  0] =         0.077697164881;
  BAS[ATNO][ 17].a[  1] =         0.795690000000;     BAS[ATNO][ 17].d[  1] =         1.264475784414;
  BAS[ATNO][ 17].a[  2] =         0.335100000000;     BAS[ATNO][ 17].d[  2] =        -0.879065245955;

  // Basis function  19 L = f
  InitBFNGauss(BAS[ATNO][ 18]);
  BAS[ATNO][ 18].l  = 3;
  BAS[ATNO][ 18].ng = 3;
  BAS[ATNO][ 18].a[  0] =         1.889380000000;     BAS[ATNO][ 18].d[  0] =         1.450685120027;
  BAS[ATNO][ 18].a[  1] =         0.795690000000;     BAS[ATNO][ 18].d[  1] =        -1.419027536903;
  BAS[ATNO][ 18].a[  2] =         0.335100000000;     BAS[ATNO][ 18].d[  2] =         0.543788651427;

  // Basis function  20 L = g
  InitBFNGauss(BAS[ATNO][ 19]);
  BAS[ATNO][ 19].l  = 4;
  BAS[ATNO][ 19].ng = 1;
  BAS[ATNO][ 19].a[  0] =         1.289500000000;     BAS[ATNO][ 19].d[  0] =         1.000000000000;

-------------------------------------------
RADIAL EXPECTATION VALUES <R**-3> TO <R**3>
-------------------------------------------
   0 :     0.000000     1.488828     1.166806     0.936002     0.956503     1.067153
   1 :     0.000000     0.244616     0.425119     2.845536     9.365152    35.155581
   2 :     0.000000     0.067217     0.204803     5.897383    37.892751   256.819459
   3 :     0.000000     0.230706     0.382638     3.712258    17.912493   104.982889
   4 :     0.000000     0.939666     0.823355     1.814177     5.190390    22.843654
   5 :     0.000000     6.714841     2.249364     0.584008     0.639285     1.878754
   6 :     0.000000    64.290946     6.390965     0.218256     0.093463     0.181624
   7 :     1.446012     1.161480     1.027382     1.071899     1.267157     1.654881
   8 :     1.446012     1.161480     1.027382     1.071899     1.267157     1.654881
   9 :     1.446012     1.161480     1.027382     1.071899     1.267157     1.654881
  10 :     0.032384     0.064562     0.220580     5.333348    31.979424   210.591477
  11 :     0.032384     0.064562     0.220580     5.333348    31.979424   210.591477
  12 :     0.032384     0.064562     0.220580     5.333348    31.979424   210.591477
  13 :     0.090546     0.132092     0.303556     4.467917    25.703438   176.080155
  14 :     0.090546     0.132092     0.303556     4.467917    25.703438   176.080155
  15 :     0.090546     0.132092     0.303556     4.467917    25.703438   176.080155
  16 :     0.495938     0.443512     0.556042     2.544264     9.097831    44.675555
  17 :     0.495938     0.443512     0.556042     2.544264     9.097831    44.675555
  18 :     0.495938     0.443512     0.556042     2.544264     9.097831    44.675555
  19 :    16.525210     4.515189     1.692091     1.152798     2.626440    10.339528
  20 :    16.525210     4.515189     1.692091     1.152798     2.626440    10.339528
  21 :    16.525210     4.515189     1.692091     1.152798     2.626440    10.339528
  22 :     0.716104     0.698190     0.779191     1.486157     2.574948    26.115526
  23 :     0.716104     0.698190     0.779191     1.486157     2.574948    26.115526
  24 :     0.716104     0.698190     0.779191     1.486157     2.574948    26.115526
  25 :     0.716104     0.698190     0.779191     1.486157     2.574948    26.115526
  26 :     0.716104     0.698190     0.779191     1.486157     2.574948    26.115526
  27 :     0.056650     0.091741     0.259980     4.339983    19.991079   480.653585
  28 :     0.056650     0.091741     0.259980     4.339983    19.991079   480.653585
  29 :     0.056650     0.091741     0.259980     4.339983    19.991079   480.653585
  30 :     0.056650     0.091741     0.259980     4.339983    19.991079   480.653585
  31 :     0.056650     0.091741     0.259980     4.339983    19.991079   480.653585
  32 :     0.215009     0.252865     0.425295     3.018322    10.969737   231.347453
  33 :     0.215009     0.252865     0.425295     3.018322    10.969737   231.347453
  34 :     0.215009     0.252865     0.425295     3.018322    10.969737   231.347453
  35 :     0.215009     0.252865     0.425295     3.018322    10.969737   231.347453
  36 :     0.215009     0.252865     0.425295     3.018322    10.969737   231.347453
  37 :     0.781334     0.681293     0.721027     1.907612     4.986643    85.540987
  38 :     0.781334     0.681293     0.721027     1.907612     4.986643    85.540987
  39 :     0.781334     0.681293     0.721027     1.907612     4.986643    85.540987
  40 :     0.781334     0.681293     0.721027     1.907612     4.986643    85.540987
  41 :     0.781334     0.681293     0.721027     1.907612     4.986643    85.540987
  42 :     0.115191     0.205901     0.429845     2.518178     6.747616   133.300810
  43 :     0.115191     0.205901     0.429845     2.518178     6.747616   133.300810
  44 :     0.115191     0.205901     0.429845     2.518178     6.747616   133.300810
  45 :     0.115191     0.205901     0.429845     2.518178     6.747616   133.300810
  46 :     0.115191     0.205901     0.429845     2.518178     6.747616   133.300810
  47 :     0.115191     0.205901     0.429845     2.518178     6.747616   133.300810
  48 :     0.115191     0.205901     0.429845     2.518178     6.747616   133.300810
  49 :     0.408402     0.484925     0.649194     1.823908     3.992778    72.005414
  50 :     0.408402     0.484925     0.649194     1.823908     3.992778    72.005414
  51 :     0.408402     0.484925     0.649194     1.823908     3.992778    72.005414
  52 :     0.408402     0.484925     0.649194     1.823908     3.992778    72.005414
  53 :     0.408402     0.484925     0.649194     1.823908     3.992778    72.005414
  54 :     0.408402     0.484925     0.649194     1.823908     3.992778    72.005414
  55 :     0.408402     0.484925     0.649194     1.823908     3.992778    72.005414
  56 :     1.297416     1.034985     0.937800     1.318457     2.221957    33.103963
  57 :     1.297416     1.034985     0.937800     1.318457     2.221957    33.103963
  58 :     1.297416     1.034985     0.937800     1.318457     2.221957    33.103963
  59 :     1.297416     1.034985     0.937800     1.318457     2.221957    33.103963
  60 :     1.297416     1.034985     0.937800     1.318457     2.221957    33.103963
  61 :     1.297416     1.034985     0.937800     1.318457     2.221957    33.103963
  62 :     1.297416     1.034985     0.937800     1.318457     2.221957    33.103963
  63 :     0.474757     0.573111     0.736343     1.427575     2.132610    23.248597
  64 :     0.474757     0.573111     0.736343     1.427575     2.132610    23.248597
  65 :     0.474757     0.573111     0.736343     1.427575     2.132610    23.248597
  66 :     0.474757     0.573111     0.736343     1.427575     2.132610    23.248597
  67 :     0.474757     0.573111     0.736343     1.427575     2.132610    23.248597
  68 :     0.474757     0.573111     0.736343     1.427575     2.132610    23.248597
  69 :     0.474757     0.573111     0.736343     1.427575     2.132610    23.248597
  70 :     0.474757     0.573111     0.736343     1.427575     2.132610    23.248597
  71 :     0.474757     0.573111     0.736343     1.427575     2.132610    23.248597
-------
TIMINGS
-------

Total SCF time: 0 days 0 hours 0 min 12 sec 

Total time                  ....      12.897 sec
Sum of individual times     ....       7.242 sec  ( 56.2%)

Fock matrix formation       ....       4.785 sec  ( 37.1%)
Diagonalization             ....       0.134 sec  (  1.0%)
Density matrix formation    ....       0.010 sec  (  0.1%)
Population analysis         ....       0.029 sec  (  0.2%)
Initial guess               ....       1.693 sec  ( 13.1%)
Orbital Transformation      ....       0.000 sec  (  0.0%)
Orbital Orthonormalization  ....       0.000 sec  (  0.0%)
DIIS solution               ....       0.528 sec  (  4.1%)


           ************************************************************
           *        Program running with 24 parallel MPI-processes    *
           *              working on a common directory               *
           ************************************************************


------------------------------------------------------------------------------- 
                              ORCA-MATRIX DRIVEN CI                            
------------------------------------------------------------------------------- 

--------------------------------
AUTOMATIC CHOICE OF INCORE LEVEL
--------------------------------

Memory available                           ...   2500.00 MB
Memory needed for S+T                      ...      4.84 MB
Memory needed for J+K                      ...      9.73 MB
Memory needed for DIIS                     ...     67.75 MB
Memory needed for 3-ext                    ...     18.18 MB
Memory needed for 4-ext                    ...     57.28 MB
Memory needed for triples                  ...      9.09 MB
 -> Final InCoreLevel    ... 5
 -> check shows that triples correction can be computed


Wavefunction type
-----------------
Correlation treatment                      ...      CCSD     
Single excitations                         ... ON
Orbital optimization                       ... OFF
Calculation of Z vector                    ... OFF
Calculation of Brueckner orbitals          ... OFF
Perturbative triple excitations            ... ON
Calculation of F12 correction              ... OFF
Frozen core treatment                      ... chemical core (0 el)
Reference Wavefunction                     ... RHF
  Internal Orbitals:     0 ...    9 ( 10 MO's/ 20 electrons)
  Virtual  Orbitals:    10 ...   71 ( 62 MO's              )
Number of AO's                             ...     72
Number of electrons                        ...     20
Number of correlated electrons             ...     20

Algorithmic settings
--------------------
Integral transformation                    ... AO direct full transformation
K(C) Formation                             ... FULL-MO TRAFO
Maximum number of iterations               ...        50
Convergence tolerance (max. residuum)      ... 1.000e-05
Level shift for amplitude update           ... 2.000e-01
Maximum number of DIIS vectors             ...         7
DIIS turned on at iteration                ...         0
Damping before turning on DIIS             ...     0.500
Damping after turning on DIIS              ...     0.000
Pair specific amplitude update             ... OFF
Natural orbital iterations                 ... OFF
Perturbative natural orbital generation    ... OFF
Printlevel                                 ... 2

Memory handling:
----------------
Maximum memory for working arrays          ...   2500 MB
Data storage in matrix containers          ... UNCOMPRESSED
Data type for integral storage             ... DOUBLE
In-Core Storage of quantities:
   Amplitudes+Sigma Vector      ... YES
   J+K operators                ... YES
   DIIS vectors                 ... YES
   3-external integrals         ... YES
   4-external integrals         ... YES


Initializing the integral package          ... done
Warning: reference  - re-canonicalizations have been set to INT 1 VIRT 1

--------------------------
CLOSED-SHELL FOCK OPERATOR
--------------------------

<ss|ss>:          406 b            0 skpd (  0.0%)    0.000 s ( 0.000 ms/b)
<ss|sp>:          980 b            0 skpd (  0.0%)    0.000 s ( 0.000 ms/b)
<ss|sd>:          784 b            0 skpd (  0.0%)    0.000 s ( 0.000 ms/b)
<ss|sf>:          588 b            0 skpd (  0.0%)    0.000 s ( 0.000 ms/b)
<ss|sg>:          196 b            0 skpd (  0.0%)    0.000 s ( 0.000 ms/b)
<ss|pp>:          420 b            0 skpd (  0.0%)    0.000 s ( 0.001 ms/b)
<ss|pd>:          560 b            0 skpd (  0.0%)    0.000 s ( 0.001 ms/b)
<ss|pf>:          420 b            0 skpd (  0.0%)    0.000 s ( 0.001 ms/b)
<ss|pg>:          140 b            0 skpd (  0.0%)    0.000 s ( 0.001 ms/b)
<ss|dd>:          280 b            0 skpd (  0.0%)    0.001 s ( 0.002 ms/b)
<ss|df>:          336 b            0 skpd (  0.0%)    0.000 s ( 0.001 ms/b)
<ss|dg>:          112 b            0 skpd (  0.0%)    0.001 s ( 0.005 ms/b)
<ss|ff>:          168 b            0 skpd (  0.0%)    0.000 s ( 0.002 ms/b)
<ss|fg>:           84 b            0 skpd (  0.0%)    0.000 s ( 0.005 ms/b)
<ss|gg>:           28 b            0 skpd (  0.0%)    0.001 s ( 0.019 ms/b)
<sp|sp>:          630 b            0 skpd (  0.0%)    0.000 s ( 0.000 ms/b)
<sp|sd>:          980 b            0 skpd (  0.0%)    0.000 s ( 0.000 ms/b)
<sp|sf>:          735 b            0 skpd (  0.0%)    0.000 s ( 0.000 ms/b)
<sp|sg>:          245 b            0 skpd (  0.0%)    0.000 s ( 0.001 ms/b)
<sp|pp>:          525 b            0 skpd (  0.0%)    0.001 s ( 0.001 ms/b)
<sp|pd>:          700 b            1 skpd (  0.1%)    0.001 s ( 0.002 ms/b)
<sp|pf>:          525 b            2 skpd (  0.4%)    0.001 s ( 0.001 ms/b)
<sp|pg>:          175 b            1 skpd (  0.6%)    0.001 s ( 0.003 ms/b)
<sp|dd>:          350 b            0 skpd (  0.0%)    0.002 s ( 0.006 ms/b)
<sp|df>: done
<sp|dg>: done
<sp|ff>: done
<sp|fg>: done
<sp|gg>: done
<sd|sd>:          406 b            0 skpd (  0.0%)    0.000 s ( 0.001 ms/b)
<sd|sf>:          588 b            0 skpd (  0.0%)    0.000 s ( 0.000 ms/b)
<sd|sg>:          196 b            0 skpd (  0.0%)    0.000 s ( 0.002 ms/b)
<sd|pp>:          420 b            0 skpd (  0.0%)    0.001 s ( 0.003 ms/b)
<sd|pd>:          560 b            0 skpd (  0.0%)    0.001 s ( 0.003 ms/b)
<sd|pf>: done
<sd|pg>: done
<sd|dd>:          280 b            0 skpd (  0.0%)    0.002 s ( 0.006 ms/b)
<sd|df>:          336 b            0 skpd (  0.0%)    0.001 s ( 0.003 ms/b)
<sd|dg>:          112 b            0 skpd (  0.0%)    0.002 s ( 0.013 ms/b)
<sd|ff>: done
<sd|fg>: done
<sd|gg>: done
<sf|sf>:          231 b            0 skpd (  0.0%)    0.000 s ( 0.001 ms/b)
<sf|sg>:          147 b            0 skpd (  0.0%)    0.000 s ( 0.002 ms/b)
<sf|pp>:          315 b            0 skpd (  0.0%)    0.001 s ( 0.002 ms/b)
<sf|pd>: done
<sf|pf>: done
<sf|pg>: done
<sf|dd>:          210 b            0 skpd (  0.0%)    0.002 s ( 0.009 ms/b)
<sf|df>: done
<sf|dg>: done
<sf|ff>: done
<sf|fg>: done
<sf|gg>: done
<sg|sg>:           28 b            0 skpd (  0.0%)    0.000 s ( 0.003 ms/b)
<sg|pp>:          105 b            0 skpd (  0.0%)    0.000 s ( 0.003 ms/b)
<sg|pd>: done
<sg|pf>: done
<sg|pg>: done
<sg|dd>:           70 b            0 skpd (  0.0%)    0.001 s ( 0.017 ms/b)
<sg|df>: done
<sg|dg>: done
<sg|ff>: done
<sg|fg>: done
<sg|gg>: done
<pp|pp>:          120 b            0 skpd (  0.0%)    0.000 s ( 0.003 ms/b)
<pp|pd>:          300 b            0 skpd (  0.0%)    0.000 s ( 0.002 ms/b)
<pp|pf>:          225 b            0 skpd (  0.0%)    0.000 s ( 0.001 ms/b)
<pp|pg>:           75 b            0 skpd (  0.0%)    0.000 s ( 0.004 ms/b)
<pp|dd>:          150 b            0 skpd (  0.0%)    0.001 s ( 0.006 ms/b)
<pp|df>:          180 b            0 skpd (  0.0%)    0.001 s ( 0.003 ms/b)
<pp|dg>:           60 b            0 skpd (  0.0%)    0.001 s ( 0.013 ms/b)
<pp|ff>:           90 b            0 skpd (  0.0%)    0.001 s ( 0.007 ms/b)
<pp|fg>:           45 b            0 skpd (  0.0%)    0.001 s ( 0.012 ms/b)
<pp|gg>:           15 b            0 skpd (  0.0%)    0.001 s ( 0.050 ms/b)
<pd|pd>:          210 b            0 skpd (  0.0%)    0.001 s ( 0.007 ms/b)
<pd|pf>:          300 b            0 skpd (  0.0%)    0.001 s ( 0.003 ms/b)
<pd|pg>:          100 b            0 skpd (  0.0%)    0.001 s ( 0.010 ms/b)
<pd|dd>:          200 b            0 skpd (  0.0%)    0.002 s ( 0.012 ms/b)
<pd|df>:          240 b            0 skpd (  0.0%)    0.001 s ( 0.005 ms/b)
<pd|dg>:           80 b            0 skpd (  0.0%)    0.002 s ( 0.023 ms/b)
<pd|ff>: done
<pd|fg>: done
<pd|gg>: done
<pf|pf>:          120 b            0 skpd (  0.0%)    0.001 s ( 0.004 ms/b)
<pf|pg>:           75 b            0 skpd (  0.0%)    0.001 s ( 0.012 ms/b)
<pf|dd>:          150 b            0 skpd (  0.0%)    0.002 s ( 0.012 ms/b)
<pf|df>: done
<pf|dg>: done
<pf|ff>: done
<pf|fg>: done
<pf|gg>: done
<pg|pg>:           15 b            0 skpd (  0.0%)    0.000 s ( 0.027 ms/b)
<pg|dd>:           50 b            0 skpd (  0.0%)    0.001 s ( 0.024 ms/b)
<pg|df>: done
<pg|dg>: done
<pg|ff>: done
<pg|fg>: done
<pg|gg>: done
<dd|dd>:           55 b            0 skpd (  0.0%)    0.002 s ( 0.044 ms/b)
<dd|df>:          120 b            0 skpd (  0.0%)    0.001 s ( 0.012 ms/b)
<dd|dg>:           40 b            0 skpd (  0.0%)    0.002 s ( 0.056 ms/b)
<dd|ff>:           60 b            0 skpd (  0.0%)    0.001 s ( 0.016 ms/b)
<dd|fg>:           30 b            0 skpd (  0.0%)    0.001 s ( 0.047 ms/b)
<dd|gg>:           10 b            0 skpd (  0.0%)    0.002 s ( 0.195 ms/b)
<df|df>:           78 b            0 skpd (  0.0%)    0.002 s ( 0.024 ms/b)
<df|dg>:           48 b            0 skpd (  0.0%)    0.003 s ( 0.061 ms/b)
<df|ff>: done
<df|fg>: done
<df|gg>: done
<dg|dg>:           10 b            0 skpd (  0.0%)    0.002 s ( 0.166 ms/b)
<dg|ff>: done
<dg|fg>: done
<dg|gg>: done
<ff|ff>: done
<ff|fg>: done
<ff|gg>: done
<fg|fg>: done
<fg|gg>: done
<gg|gg>: done
Recanonicalizing the internal orbitals
Recanonicalizing the virtual orbitals
Time needed for Fock operator              ...            0.085 sec
Reference energy                           ...   -152.554579419

------------------------------
PARTIAL COULOMB TRANSFORMATION
------------------------------

Transformation type                        ... one-operator
Dimension of the basis                     ...   72
Number of internal MOs                     ...   72 (0-71)
Pair cutoff                                ... 0.000e+00 Eh
Number of AO pairs included in the trafo   ... 2628
Total Number of distinct AO pairs          ... 2628
Memory devoted for trafo                   ... 2500.0 MB 
Max. Number of MO pairs treated together   ... 124687      
Max. Number of MOs treated per batch       ... 1731      
Number Format for Storage                  ... Double (8 Byte)
AO-integral source                         ... DIRECT
Integral package used                      ... LIBINT

Starting integral evaluation:
<ss|**>: <sp|**>:         5880 b        0 skpd     0.009 s (  0.002 ms/b)
<sd|**>:         7350 b        0 skpd     0.011 s (  0.001 ms/b)
        5880 b        0 skpd     0.015 s (  0.003 ms/b)
<sf|**>: <sg|**>:         4410 b        0 skpd     0.015 s (  0.003 ms/b)
<pp|**>:         1470 b        0 skpd     0.014 s (  0.010 ms/b)
        3150 b        0 skpd     0.013 s (  0.004 ms/b)
<pd|**>:         4200 b        0 skpd     0.030 s (  0.007 ms/b)
<pf|**>:         3150 b        0 skpd     0.040 s (  0.013 ms/b)
<pg|**>:         1050 b        0 skpd     0.031 s (  0.030 ms/b)
<dd|**>:         2100 b        0 skpd     0.028 s (  0.013 ms/b)
<df|**>:         2520 b        0 skpd     0.050 s (  0.020 ms/b)
<dg|**>:          840 b        0 skpd     0.041 s (  0.049 ms/b)
<ff|**>:         1260 b        0 skpd     0.045 s (  0.035 ms/b)
<fg|**>:          630 b        0 skpd     0.051 s (  0.082 ms/b)
<gg|**>:          210 b        0 skpd     0.038 s (  0.179 ms/b)
Closing buffer AOJ ( 0.00 GB; CompressionRatio= 1.00)
Collecting buffer AOJ 
    ... done with AO integral generation
Number of MO pairs included in the trafo   ... 2628
    ... Now sorting integrals
IBATCH = 1 of  1
Closing buffer JAO ( 0.00 GB; CompressionRatio= 1.00)
Collecting buffer JAO 
TOTAL TIME for half transformation         ...     0.912 sec
AO-integral generation                     ...     0.308 sec
Half transformation                        ...     0.129 sec
J-integral sorting                         ...     0.427 sec

-------------------------- SECOND HALF TRANSFORMATION -------------------------
Formation of (pq|rs)                       ... ok (     0.526 sec)
Integral sorting                           ... ok (     0.445 sec)

------------------
CLOSED SHELL GUESS
------------------

Initial guess performed in     0.006 sec
E(0)                                       ...   -152.554579419
E(MP2)                                     ...     -0.689498096
Initial E(tot)                             ...   -153.244077516
<T|T>                                      ...      0.149937289
Number of pairs included                   ... 55
Total number of pairs                      ... 55

------------------------------------------------
                  RHF COUPLED CLUSTER ITERATIONS
------------------------------------------------

Number of amplitudes to be optimized       ... 212040

Iter       E(tot)           E(Corr)          Delta-E          Residual     Time
  0   -153.244077516     -0.689498096      0.000000000      0.021321060    0.08
                           *** Turning on DIIS ***
  1   -153.178991737     -0.624412318      0.065085778      0.005905037    0.12
  2   -153.195298290     -0.640718871     -0.016306553      0.004275759    0.12
  3   -153.197042369     -0.642462950     -0.001744079      0.001958032    0.12
  4   -153.197773625     -0.643194206     -0.000731256      0.000644340    0.12
  5   -153.197937798     -0.643358378     -0.000164173      0.000173534    0.12
  6   -153.197958152     -0.643378733     -0.000020354      0.000044305    0.12
  7   -153.197960062     -0.643380643     -0.000001910      0.000009252    0.13
               --- The Coupled-Cluster iterations have converged ---

----------------------
COUPLED CLUSTER ENERGY
----------------------

E(0)                                       ...   -152.554579419
E(CORR)                                    ...     -0.643380643
E(TOT)                                     ...   -153.197960062
Singles Norm <S|S>**1/2                    ...      0.065755787  
T1 diagnostic                              ...      0.014703441  

------------------
LARGEST AMPLITUDES
------------------
   9-> 13  -1-> -1       0.049294
   9-> 14   9-> 14       0.039036
   9-> 15   9-> 15       0.039036
   9-> 16   9-> 16       0.039036
   9-> 11   9-> 11       0.038351
   9-> 10   9-> 10       0.038351
   9-> 12   9-> 12       0.038351
   9-> 10   9-> 15       0.035757
   9-> 15   9-> 10       0.035757
   9-> 12   9-> 14       0.035440
   9-> 14   9-> 12       0.035440
   9-> 11   9-> 16       0.035211
   9-> 16   9-> 11       0.035211
   9-> 22  -1-> -1       0.026673
   9-> 15   8-> 15       0.013940
   9-> 14   5-> 14       0.012993


        !!!!!!!!!!!!!!!!!!!!!!!!!!!!!!!!!!!!!!!!!!!!!!!!!!!!!!!!!!!!!!!!!!!!!!!!!! 
        !  Warning: Densities are linearized densities !                         !
        !!!!!!!!!!!!!!!!!!!!!!!!!!!!!!!!!!!!!!!!!!!!!!!!!!!!!!!!!!!!!!!!!!!!!!!!!! 

Trace of internal density part =     -0.277584794
Trace of external density part =      0.277584794
----------------------
RHF TRIPLES CORRECTION (Algorithm 1)
----------------------

Multiplier for the singles contribution    ...      1.000000000

10% done
20% done
30% done
40% done
50% done
60% done
70% done
80% done

Triples Correction (T)                     ...     -0.022561867
Scaling of triples based on CCSD energies (Peterson et al. Molecular Physics 113, 1551 (2015))
E(T*) = f*E(T) where f = E(F12-CCSD)/E(CCSD) 
f = CCSD (with F12)/ CCSD (without F12)    ...      1.000000000
Scaled triples correction (T)              ...     -0.022561867

Final correlation energy                   ...     -0.665942509
E(CCSD)                                    ...   -153.197960062
E(CCSD(T))                                 ...   -153.220521929

NORM  =      1.143116221 sqrt=     1.069166133
W(HF) =      0.874801689
------------------------------------------------------------------------------
                           ORCA POPULATION ANALYSIS
------------------------------------------------------------------------------
Input electron density              ... 80_Hg.mdcip
BaseName (.gbw .S,...)              ... 80_Hg

                    ********************************
                    * MULLIKEN POPULATION ANALYSIS *
                    ********************************

-----------------------
MULLIKEN ATOMIC CHARGES
-----------------------
   0 Hg:    0.000000
Sum of atomic charges:    0.0000000

--------------------------------
MULLIKEN REDUCED ORBITAL CHARGES
--------------------------------
  0 Hgs       :     3.928514  s :     3.928514
      pz      :     2.025622  p :     6.076866
      px      :     2.025622
      py      :     2.025622
      dz2     :     1.976337  d :     9.881684
      dxz     :     1.976337
      dyz     :     1.976337
      dx2y2   :     1.976337
      dxy     :     1.976337
      f0      :     0.014624  f :     0.102370
      f+1     :     0.014624
      f-1     :     0.014624
      f+2     :     0.014624
      f-2     :     0.014624
      f+3     :     0.014624
      f-3     :     0.014624
      g0      :     0.001174  g :     0.010567
      g+1     :     0.001174
      g-1     :     0.001174
      g+2     :     0.001174
      g-2     :     0.001174
      g+3     :     0.001174
      g-3     :     0.001174
      g+4     :     0.001174
      g-4     :     0.001174


                     *******************************
                     * LOEWDIN POPULATION ANALYSIS *
                     *******************************

----------------------
LOEWDIN ATOMIC CHARGES
----------------------
   0 Hg:    0.000000

-------------------------------
LOEWDIN REDUCED ORBITAL CHARGES
-------------------------------
  0 Hgs       :     3.928514  s :     3.928514
      pz      :     2.025622  p :     6.076866
      px      :     2.025622
      py      :     2.025622
      dz2     :     1.976337  d :     9.881684
      dxz     :     1.976337
      dyz     :     1.976337
      dx2y2   :     1.976337
      dxy     :     1.976337
      f0      :     0.014624  f :     0.102370
      f+1     :     0.014624
      f-1     :     0.014624
      f+2     :     0.014624
      f-2     :     0.014624
      f+3     :     0.014624
      f-3     :     0.014624
      g0      :     0.001174  g :     0.010567
      g+1     :     0.001174
      g-1     :     0.001174
      g+2     :     0.001174
      g-2     :     0.001174
      g+3     :     0.001174
      g-3     :     0.001174
      g+4     :     0.001174
      g-4     :     0.001174


                      *****************************
                      * MAYER POPULATION ANALYSIS *
                      *****************************

  NA   - Mulliken gross atomic population
  ZA   - Total nuclear charge
  QA   - Mulliken gross atomic charge
  VA   - Mayer's total valence
  BVA  - Mayer's bonded valence
  FA   - Mayer's free valence

  ATOM       NA         ZA         QA         VA         BVA        FA
  0 Hg    20.0000    20.0000     0.0000     1.0585     0.0000     1.0585





------------------------------------------------------------------------------- 
                                     TIMINGS                                   
------------------------------------------------------------------------------- 


Total execution time                   ...        3.412 sec

Fock Matrix Formation                  ...        0.085 sec (  2.5%)
Initial Guess                          ...        0.006 sec (  0.2%)
DIIS Solver                            ...        0.084 sec (  2.5%)
State Vector Update                    ...        0.005 sec (  0.1%)
Sigma-vector construction              ...        0.834 sec ( 24.4%)
  <D|H|D>(0-ext)                       ...        0.011 sec (  1.3% of sigma)
  <D|H|D>(2-ext)                       ...        0.022 sec (  2.6% of sigma)
  <D|H|D>(4-ext)                       ...        0.104 sec ( 12.4% of sigma)
  <D|H|D>(4-ext-corr)                  ...        0.057 sec (  6.8% of sigma)
  <S|H|0>                              ...        0.002 sec (  0.2% of sigma)
  <S|H|S>                              ...        0.002 sec (  0.2% of sigma)
  <S|H|D>(1-ext)                       ...        0.006 sec (  0.7% of sigma)
  <D|H|S>(1-ext)                       ...        0.006 sec (  0.7% of sigma)
  <S|H|D>(3-ext)                       ...        0.093 sec ( 11.1% of sigma)
  Fock-dressing                        ...        0.269 sec ( 32.3% of sigma)
  (ik|jl)-dressing                     ...        0.015 sec (  1.8% of sigma)
  (ij|ab),(ia|jb)-dressing             ...        0.193 sec ( 23.1% of sigma)
Total Time for computing (T)           ...        0.123 sec (  3.6% of ALL)
  I/O of integral and amplitudes       ...        0.047 sec ( 38.4% of (T))
  N**6 sorting step                    ...        0.023 sec ( 18.9% of (T))
  External N**7 contributions          ...        0.030 sec ( 24.1% of (T))
  Internal N**7 contributions          ...        0.011 sec (  8.7% of (T))
  N**6 triples energy contributions    ...        0.012 sec (  9.7% of (T))


-------------------------   --------------------
FINAL SINGLE POINT ENERGY      -153.220521928590
-------------------------   --------------------


                            ***************************************
                            *     ORCA property calculations      *
                            ***************************************

                                    ---------------------
                                    Active property flags
                                    ---------------------
   (+) Dipole Moment


------------------------------------------------------------------------------
                       ORCA ELECTRIC PROPERTIES CALCULATION
------------------------------------------------------------------------------

Dipole Moment Calculation                       ... on
Quadrupole Moment Calculation                   ... off
Polarizability Calculation                      ... off
GBWName                                         ... 80_Hg.gbw
Electron density file                           ... 80_Hg.scfp
The origin for moment calculation is the CENTER OF MASS  = ( 0.000000,  0.000000  0.000000)

-------------
DIPOLE MOMENT
-------------
                                X             Y             Z
Electronic contribution:     -0.00000      -0.00000      -0.00000
Nuclear contribution   :      0.00000       0.00000       0.00000
                        -----------------------------------------
Total Dipole Moment    :     -0.00000      -0.00000      -0.00000
                        -----------------------------------------
Magnitude (a.u.)       :      0.00000
Magnitude (Debye)      :      0.00000



--------------------
Rotational spectrum 
--------------------
 
Rotational constants in cm-1:     0.000000     0.000000     0.000000 
Rotational constants in MHz :     0.000000     0.000000     0.000000 

 Dipole components along the rotational axes: 
x,y,z [a.u.] :    -0.000000    -0.000000    -0.000000 
x,y,z [Debye]:    -0.000000    -0.000000    -0.000000 

 

                           *** MDCI DENSITY ***

------------------------------------------------------------------------------
                       ORCA ELECTRIC PROPERTIES CALCULATION
------------------------------------------------------------------------------

Dipole Moment Calculation                       ... on
Quadrupole Moment Calculation                   ... off
Polarizability Calculation                      ... off
GBWName                                         ... 80_Hg.gbw
Electron density file                           ... 80_Hg.mdcip
The origin for moment calculation is the CENTER OF MASS  = ( 0.000000,  0.000000  0.000000)

-------------
DIPOLE MOMENT
-------------
                                X             Y             Z
Electronic contribution:     -0.00000      -0.00000      -0.00000
Nuclear contribution   :      0.00000       0.00000       0.00000
                        -----------------------------------------
Total Dipole Moment    :     -0.00000      -0.00000      -0.00000
                        -----------------------------------------
Magnitude (a.u.)       :      0.00000
Magnitude (Debye)      :      0.00000



--------------------
Rotational spectrum 
--------------------
 
Rotational constants in cm-1:     0.000000     0.000000     0.000000 
Rotational constants in MHz :     0.000000     0.000000     0.000000 

 Dipole components along the rotational axes: 
x,y,z [a.u.] :    -0.000000    -0.000000    -0.000000 
x,y,z [Debye]:    -0.000000    -0.000000    -0.000000 

 

Timings for individual modules:

Sum of individual times         ...       18.043 sec (=   0.301 min)
GTO integral calculation        ...        0.930 sec (=   0.015 min)   5.2 %
SCF iterations                  ...       13.278 sec (=   0.221 min)  73.6 %
MDCI module                     ...        3.835 sec (=   0.064 min)  21.3 %
                             ****ORCA TERMINATED NORMALLY****
TOTAL RUN TIME: 0 days 0 hours 0 minutes 18 seconds 812 msec
