
                                 *****************
                                 * O   R   C   A *
                                 *****************

           --- An Ab Initio, DFT and Semiempirical electronic structure package ---

                  #######################################################
                  #                        -***-                        #
                  #          Department of theory and spectroscopy      #
                  #               Directorship: Frank Neese             #
                  #        Max Planck Institute fuer Kohlenforschung    #
                  #                Kaiser Wilhelm Platz 1               #
                  #                 D-45470 Muelheim/Ruhr               #
                  #                      Germany                        #
                  #                                                     #
                  #                  All rights reserved                #
                  #                        -***-                        #
                  #######################################################


                         Program Version 4.2.0 -  RELEASE  -


 With contributions from (in alphabetic order):
   Daniel Aravena         : Magnetic Suceptibility
   Michael Atanasov       : Ab Initio Ligand Field Theory (pilot matlab implementation)
   Alexander A. Auer      : GIAO ZORA, VPT2
   Ute Becker             : Parallelization
   Giovanni Bistoni       : ED, misc. LED, open-shell LED, HFLED
   Martin Brehm           : Molecular dynamics
   Dmytro Bykov           : SCF Hessian
   Vijay G. Chilkuri      : MRCI spin determinant printing, contributions to CSF-ICE
   Dipayan Datta          : RHF DLPNO-CCSD density
   Achintya Kumar Dutta   : EOM-CC, STEOM-CC
   Dmitry Ganyushin       : Spin-Orbit,Spin-Spin,Magnetic field MRCI
   Miquel Garcia          : C-PCM Hessian, Gaussian charge scheme
   Yang Guo               : DLPNO-NEVPT2, CIM, IAO-localization
   Andreas Hansen         : Spin unrestricted coupled pair/coupled cluster methods
   Benjamin Helmich-Paris : CASSCF linear response (MC-RPA)
   Lee Huntington         : MR-EOM, pCC
   Robert Izsak           : Overlap fitted RIJCOSX, COSX-SCS-MP3, EOM
   Christian Kollmar      : KDIIS, OOCD, Brueckner-CCSD(T), CCSD density
   Simone Kossmann        : Meta GGA functionals, TD-DFT gradient, OOMP2, MP2 Hessian
   Martin Krupicka        : AUTO-CI
   Lucas Lang             : DCDCAS
   Dagmar Lenk            : GEPOL surface, SMD
   Dimitrios Liakos       : Extrapolation schemes; Compound Job, initial MDCI parallelization
   Dimitrios Manganas     : Further ROCIS development; embedding schemes
   Dimitrios Pantazis     : SARC Basis sets
   Taras Petrenko         : DFT Hessian,TD-DFT gradient, ASA, ECA, R-Raman, ABS, FL, XAS/XES, NRVS
   Peter Pinski           : DLPNO-MP2, DLPNO-MP2 Gradient
   Christoph Reimann      : Effective Core Potentials
   Marius Retegan         : Local ZFS, SOC
   Christoph Riplinger    : Optimizer, TS searches, QM/MM, DLPNO-CCSD(T), (RO)-DLPNO pert. Triples
   Tobias Risthaus        : Range-separated hybrids, TD-DFT gradient, RPA, STAB
   Michael Roemelt        : Original ROCIS implementation
   Masaaki Saitow         : Open-shell DLPNO-CCSD energy and density
   Barbara Sandhoefer     : DKH picture change effects
   Avijit Sen             : IP-ROCIS
   Kantharuban Sivalingam : CASSCF convergence, NEVPT2, FIC-MRCI
   Bernardo de Souza      : ESD, SOC TD-DFT
   Georgi Stoychev        : AutoAux, RI-MP2 NMR
   Willem Van den Heuvel  : Paramagnetic NMR
   Boris Wezisla          : Elementary symmetry handling
   Frank Wennmohs         : Technical directorship


 We gratefully acknowledge several colleagues who have allowed us to
 interface, adapt or use parts of their codes:
   Stefan Grimme, W. Hujo, H. Kruse,             : VdW corrections, initial TS optimization,
                  C. Bannwarth                     DFT functionals, gCP, sTDA/sTD-DF
   Ed Valeev, F. Pavosevic, A. Kumar             : LibInt (2-el integral package), F12 methods
   Garnet Chan, S. Sharma, J. Yang, R. Olivares  : DMRG
   Ulf Ekstrom                                   : XCFun DFT Library
   Mihaly Kallay                                 : mrcc  (arbitrary order and MRCC methods)
   Andreas Klamt, Michael Diedenhofen            : otool_cosmo (COSMO solvation model)
   Jiri Pittner, Ondrej Demel                    : Mk-CCSD
   Frank Weinhold                                : gennbo (NPA and NBO analysis)
   Christopher J. Cramer and Donald G. Truhlar   : smd solvation model
   Lars Goerigk                                  : TD-DFT with DH, B97 family of functionals
   V. Asgeirsson, H. Jonsson                     : NEB implementation
   FAccTs GmbH                                   : IRC, NEB, NEB-TS, Multilevel, MM, QM/MM, CI optimization
   S Lehtola, MJT Oliveira, MAL Marques          : LibXC Library


 Your calculation uses the libint2 library for the computation of 2-el integrals
 For citations please refer to: http://libint.valeyev.net

 Your ORCA version has been built with support for libXC version: 4.2.3
 For citations please refer to: https://tddft.org/programs/libxc/

 This ORCA versions uses:
   CBLAS   interface :  Fast vector & matrix operations
   LAPACKE interface :  Fast linear algebra routines
   SCALAPACK package :  Parallel linear algebra routines


----- Orbital basis set information -----
Your calculation utilizes the basis: def2-SVP
   F. Weigend and R. Ahlrichs, Phys. Chem. Chem. Phys. 7, 3297 (2005).

----- AuxJ basis set information -----
Your calculation utilizes the auxiliary basis: def2/J
   F. Weigend, Phys. Chem. Chem. Phys. 8, 1057 (2006).

================================================================================
                                        WARNINGS
                       Please study these warnings very carefully!
================================================================================


INFO   : the flag for use of LIBINT has been found!

================================================================================
                                       INPUT FILE
================================================================================
NAME = 82_Pb_atom82.inp
|  1> # input to generate an atomic fitting density for Pb
|  2> # this file is use internally by ORCA
|  3> #
|  4> # atomic ground state (S=3): 1s2 2s2 2p6 3s2 3p6 4s2 3d10 4p6 5s2 4d10 5p6 6s2 4f14 5d10 6p2 
|  5> #
|  6> ! RHF AllowRHF def2-SVP def2/J  NoMulliken NoLoewdin NoMayer NoPrintMOs 
|  7> 
|  8> %output print[p_atomdensfit] 2 end
|  9> 
| 10> %scf
| 11>   guess hcore
| 12>   maxiter 1000
| 13>   maxdisk 500000
| 14>   SCFMode Conventional
| 15>   lshift 1.000000
| 16>   hftyp rohf
| 17>   rohf_case sahf
| 18>   rohf_numop   2
| 19>   rohf_norb[1] 3
| 20>   rohf_nel[1]  2
| 21> end
| 22> 
| 23> %basis
| 24>   NewECP 82
| 25>     N_core 60
| 26>     lmax f
| 27>     s 4
| 28>       1      12.2963030000    281.2854990000  2
| 29>       2       8.6326340000     62.5202170000  2
| 30>       3       3.8875120000    -12.2098920000  2
| 31>       4       3.8119630000    -16.1902910000  2
| 32>     p 6
| 33>       1      10.2417900000     72.2768970000  2
| 34>       2       8.9241760000    144.5910830000  2
| 35>       3       6.5813420000      4.7586930000  2
| 36>       4       6.2554030000      9.9406210000  2
| 37>       5       3.8875120000    -12.2098920000  2
| 38>       6       3.8119630000    -16.1902910000  2
| 39>     d 6
| 40>       1       7.7543360000     35.8485070000  2
| 41>       2       7.7202810000     53.7243420000  2
| 42>       3       4.9702640000     10.1152560000  2
| 43>       4       4.5637890000     14.8337310000  2
| 44>       5       3.8875120000    -12.2098920000  2
| 45>       6       3.8119630000    -16.1902910000  2
| 46>     f 2
| 47>       1       3.8875120000     12.2098920000  2
| 48>       2       3.8119630000     16.1902910000  2
| 49>   end
| 50>   NewGTO 82
| 51>     s 9 
| 52>      1    9368.3300000000      0.0000341361
| 53>      2    1366.9300000000      0.0002511440
| 54>      3     299.6820000000      0.0009241123
| 55>      4      34.8597000000      0.0567487835
| 56>      5      21.7889000000     -0.4960361570
| 57>      6      13.6200000000      1.7048871659
| 58>      7       8.5129500000     -1.4796549163
| 59>      8       5.3033200000     -1.4907515784
| 60>      9       1.9281600000      1.8658460662
| 61>     s 1 
| 62>      1       1.0373400312      1.0000000000
| 63>     s 3 
| 64>      1      13.5599442130      0.3521198601
| 65>      2      11.0396200450     -0.5903682976
| 66>      3       2.1371722788      1.1586522628
| 67>     s 1 
| 68>      1       0.5111168569      1.0000000000
| 69>     s 1 
| 70>      1       0.2467398756      1.0000000000
| 71>     s 1 
| 72>      1       0.1157797674      1.0000000000
| 73>     s 1 
| 74>      1       0.0528741678      1.0000000000
| 75>     p 7 
| 76>      1      59.0901000000      0.0007547721
| 77>      2      20.9197000000     -0.0222236107
| 78>      3      13.0777000000      0.1339414763
| 79>      4       6.8991000000     -0.3924435394
| 80>      5       2.1962700000      0.4592545737
| 81>      6       1.3048600000      0.4593304726
| 82>      7       0.7795720000      0.2750775330
| 83>     p 3 
| 84>      1       9.1373183134     -0.0614234096
| 85>      2       3.9570574249      0.3028554391
| 86>      3       1.2246639098      0.8025637712
| 87>     p 1 
| 88>      1       0.4260156424      1.0000000000
| 89>     p 1 
| 90>      1       0.2037858629      1.0000000000
| 91>     p 1 
| 92>      1       0.0881686479      1.0000000000
| 93>     p 1 
| 94>      1       0.0370947014      1.0000000000
| 95>   end
| 96>   NewAuxGTO 82
| 97>     S 1
| 98>      1 1310.72 1.0
| 99>     S 1
|100>      1  655.36 1.0
|101>     S 1
|102>      1  327.68 1.0
|103>     S 1
|104>      1  163.84 1.0
|105>     S 1
|106>      1   81.82 1.0
|107>     S 1
|108>      1   40.96 1.0
|109>     S 1
|110>      1   20.48 1.0
|111>     S 1
|112>      1   10.24 1.0
|113>     S 1
|114>      1    5.12 1.0
|115>     S 1
|116>      1    2.56 1.0
|117>     S 1
|118>      1    1.28 1.0
|119>     S 1
|120>      1    0.64 1.0
|121>     S 1
|122>      1    0.32 1.0
|123>     S 1
|124>      1    0.16 1.0
|125>     S 1
|126>      1    0.08 1.0
|127>     S 1
|128>      1    0.04 1.0
|129>     S 1
|130>      1    0.02 1.0
|131>     S 1
|132>      1    0.01 1.0
|133>   end
|134> end
|135> 
|136> * xyz 0 3
|137> 82  0.0 0.0 0.0
|138> *
|139> 
|140> 
|141>                          ****END OF INPUT****
================================================================================

                       ****************************
                       * Single Point Calculation *
                       ****************************

---------------------------------
CARTESIAN COORDINATES (ANGSTROEM)
---------------------------------
  Pb     0.000000    0.000000    0.000000

----------------------------
CARTESIAN COORDINATES (A.U.)
----------------------------
  NO LB      ZA    FRAG     MASS         X           Y           Z
   0 Pb   22.0000*   0   207.200    0.000000    0.000000    0.000000
* core charge reduced due to ECP

--------------------------------
INTERNAL COORDINATES (ANGSTROEM)
--------------------------------
 Pb     0   0   0     0.000000000000     0.00000000     0.00000000

---------------------------
INTERNAL COORDINATES (A.U.)
---------------------------
 Pb     0   0   0     0.000000000000     0.00000000     0.00000000

---------------------
BASIS SET INFORMATION
---------------------
There are 1 groups of distinct atoms

 Group   1 Type Pb  : 17s14p contracted to 7s6p pattern {9131111/731111}

Atom   0Pb   basis set group =>   1
---------------------------------
AUXILIARY/J BASIS SET INFORMATION
---------------------------------
There are 1 groups of distinct atoms

 Group   1 Type Pb  : 18s contracted to 18s pattern {111111111111111111}

Atom   0Pb   basis set group =>   1
-------------------------
ECP PARAMETER INFORMATION
-------------------------

 Group 1, Type Pb ECP (replacing 60 core electrons, lmax=3)

Atom   0Pb   ECP group =>   1

------------------------------------------------------------------------------
                           ORCA GTO INTEGRAL CALCULATION
------------------------------------------------------------------------------

                         BASIS SET STATISTICS AND STARTUP INFO

 # of primitive gaussian shells          ...   31
 # of primitive gaussian functions       ...   59
 # of contracted shells                  ...   13
 # of contracted basis functions         ...   25
 Highest angular momentum                ...    1
 Maximum contraction depth               ...    9
 Integral package used                   ... LIBINT
 Integral threshhold            Thresh   ...  1.000e-10
 Primitive cut-off              TCut     ...  1.000e-11
 Storage cut-off                TCutStore... -1.000e+00
 Buffer length                           ... 1048576 integrals/buffer
 Generate file with integrals 4 distinct ...false


------------------------------ INTEGRAL EVALUATION ----------------------------


 * One electron integrals 

   ECP integrals                         ... done
 Pre-screening matrix                    ... done
 Shell pair data                         ... done (   0.000 sec)
 Statistics run                          ... done
 Maximum amount of storage needed        ...     0 MB
 Maximum amount of storage dedicated     ... 500000 MB
 Beginning two electron integral evaluation:
 Starting repulsion integrals
  <ss|ss>  ...          406 b.         0 skpd (  0.0%)     0.000 s. (  0.001 ms/b)
  <ss|sp>  ...         1176 b.         0 skpd (  0.0%)     0.001 s. (  0.001 ms/b)
  <ss|pp>  ...          588 b.         0 skpd (  0.0%)     0.002 s. (  0.004 ms/b)
  <sp|sp>  ...          903 b.         0 skpd (  0.0%)     0.002 s. (  0.003 ms/b)
  <sp|pp>  ...          882 b.         0 skpd (  0.0%)     0.004 s. (  0.005 ms/b)
  <pp|pp>  ...          231 b.         0 skpd (  0.0%)     0.003 s. (  0.013 ms/b)


                                      INTEGRAL STATISTICS

Integral type statistics:
 Number of integrals retained            ...      52975 
 One   Center Integrals retained         ...      52975 (100.0%)
 Two   Center Integrals retained         ...          0 (  0.0%)
 Three Center Integrals retained         ...          0 (  0.0%)
 Four  Center Integrals retained         ...          0 (  0.0%)

Storage statistics:
 Number of char integrals                ...          0 (  0.0%)
 Number of short int integrals           ...          0 (  0.0%)
 Number of double/float integrals        ...      52975 (100.0%)
 Amount of memory used                   ...          0 MB
 Amount of memory estimated              ...          0 MB ( 95.8%)

Prescreening statistics:
 Total number of shell quadruples        ...       4186 
 Number of skipped shell quadruples      ...          0 (  0.0%)
 # of negligible batches done            ...          0 (  0.0%)

Timings:
 Total evaluation time               ...     0.194 sec (   0.003 min)
 One electron matrix time            ...     0.019 sec (   0.000 min) =  9.7%
 Schwartz matrix evaluation time     ...     0.077 sec (   0.001 min) = 39.9%
 Statistics run                      ...     0.001 sec (   0.000 min) =  0.3%
 Repulsion integral time             ...     0.013 sec (   0.000 min) =  6.8%

-------------------------------------------------------------------------------
                                 ORCA SCF
-------------------------------------------------------------------------------

------------
SCF SETTINGS
------------
Hamiltonian:
 Ab initio Hamiltonian  Method          .... Hartree-Fock(GTOs)


General Settings:
 Integral files         IntName         .... 82_Pb_atom82
 Hartree-Fock type      HFTyp           .... ROHF
 Total Charge           Charge          ....    0
 Multiplicity           Mult            ....    3
 Number of Electrons    NEL             ....   22
 Basis Dimension        Dim             ....   25
 Nuclear Repulsion      ENuc            ....      0.0000000000 Eh

Convergence Acceleration:
 DIIS                   CNVDIIS         .... on
   Start iteration      DIISMaxIt       ....    12
   Startup error        DIISStart       ....  0.200000
   # of expansion vecs  DIISMaxEq       ....     5
   Bias factor          DIISBfac        ....   1.050
   Max. coefficient     DIISMaxC        ....  10.000
 Newton-Raphson         CNVNR           .... off
 SOSCF                  CNVSOSCF        .... off
 Level Shifting         CNVShift        .... on
   Level shift para.    LevelShift      ....    1.0000
   Turn off err/grad.   ShiftErr        ....    0.0010
 Zerner damping         CNVZerner       .... off
 Static damping         CNVDamp         .... on
   Fraction old density DampFac         ....    0.7000
   Max. Damping (<1)    DampMax         ....    0.9800
   Min. Damping (>=0)   DampMin         ....    0.0000
   Turn off err/grad.   DampErr         ....    0.1000
 Fernandez-Rico         CNVRico         .... off

SCF Procedure:
 Maximum # iterations   MaxIter         ....  1000
 SCF integral mode      SCFMode         .... Conventional
 Integral Threshold     Thresh          ....  1.000e-10 Eh
 Primitive CutOff       TCut            ....  1.000e-11 Eh
 Integral Buffer length BufferLength    .... 1048576
 Integral index format  IndFormat       ....     0
 Integral value format  ValFormat       ....     0
 Integral Storage       Thresh          ....  1.000e-10 Eh

Convergence Tolerance:
 Convergence Check Mode ConvCheckMode   .... Total+1el-Energy
 Convergence forced     ConvForced      .... 0
 Energy Change          TolE            ....  1.000e-06 Eh
 1-El. energy change                    ....  1.000e-03 Eh
 DIIS Error             TolErr          ....  1.000e-06


Diagonalization of the overlap matrix:
Smallest eigenvalue                        ... 1.197e-03
Time for diagonalization                   ...    0.003 sec
Threshold for overlap eigenvalues          ... 1.000e-08
Number of eigenvalues below threshold      ... 0
Time for construction of square roots      ...    0.017 sec
Total time needed                          ...    0.020 sec

--------------------
INITIAL GUESS: HCORE
--------------------
AVERAGE-CONFIGURATION (SAHF) CASE FOUND

-------------------
FINAL ROHF SETTINGS
-------------------
Number of operators             ... 2
  operator   0:  10 orbitals  20 electrons n(mue)= 2.000
  operator   1:   3 orbitals   2 electrons n(mue)= 0.667
Vector coupling coefficients a and b (Zerner convention):
   1.000    1.000           1.000    1.000 
   1.000    0.750           1.000    1.500 

                      -----------------
                      INTIAL GUESS DONE 
                      -----------------

 InCore treatment chosen:
   Memory dedicated               ...    1024 MB
   Memory needed                  ...      0 MB
   Number of tiny    integrals    ...       0
   Number of small   integrals    ...       0
   Number of regular integrals    ...   52975

--------------
SCF ITERATIONS
--------------
ITER       Energy         Delta-E        Max-DP      RMS-DP      [F,P]     Damp
  0   -167.7465095883   0.00000000000012.59615644  0.61880590  2.3595371 0.7000
  1   -170.6579057877  -2.911396199395 8.81730951  0.50338129  0.5203598 0.7000
  2   -171.7983503258  -1.140444538091 6.17211665  0.39011078  0.3548215 0.7000
  3   -172.5612510049  -0.762900679099 4.32048166  0.28877326  0.2636558 0.7000
                            ****Activating DIIS****
  4   -173.0807835957  -0.519532590723 3.70635905  0.21931139  0.1827129 0.7000
  5   -173.5260499938  -0.445266398123 8.22193705  0.52077591  0.0811456 0.0000
  6   -174.2901587088  -0.764108715004 0.26348651  0.01470416  0.0674260 0.0000
  7   -174.3041434998  -0.013984791044 0.66309031  0.03772070  0.0645500 0.0000
  8   -174.3341193409  -0.029975841093 1.28804158  0.09165556  0.0558587 0.0000
  9   -174.3710960238  -0.036976682883 0.14914980  0.01010107  0.0333852 0.0000
 10   -174.3749382486  -0.003842224836 0.33046653  0.01499230  0.0258470 0.0000
 11   -174.3785834711  -0.003645222452 0.10097554  0.00750978  0.0210669 0.0000
 12   -174.3804220137  -0.001838542624 0.06630155  0.00442248  0.0205622 0.0000
 13   -174.3814056072  -0.000983593450 0.06626240  0.00337699  0.0202638 0.0000
 14   -174.3819830599  -0.000577452686 0.05777374  0.00335978  0.0201046 0.0000
 15   -174.3823682474  -0.000385187535 0.05356261  0.00386316  0.0200949 0.0000
 16   -174.3826791046  -0.000310857242 0.04332930  0.00313178  0.0201557 0.0000
 17   -174.3828621590  -0.000183054379 0.02382738  0.00168977  0.0202045 0.0000
 18   -174.3829397804  -0.000077621437 0.00790354  0.00049401  0.0202380 0.0000
 19   -174.3829608876  -0.000021107194 0.00312404  0.00022463  0.0202562 0.0000
 20   -174.3829574621   0.000003425536 0.00469470  0.00034449  0.0202622 0.0000
 21   -174.3829706791  -0.000013217005 0.00876695  0.00057962  0.0202676 0.0000
 22   -174.3829926406  -0.000021961489 0.00907023  0.00060178  0.0202828 0.0000
 23   -174.3830138812  -0.000021240559 0.00693148  0.00045401  0.0202974 0.0000
 24   -174.3830289512  -0.000015070076 0.00511300  0.00033278  0.0203085 0.0000
 25   -174.3830395226  -0.000010571341 0.00480268  0.00031617  0.0203164 0.0000
 26   -174.3830491403  -0.000009617727 0.00523613  0.00034559  0.0203234 0.0000
 27   -174.3830591236  -0.000009983327 0.00514733  0.00034065  0.0203307 0.0000
 28   -174.3830684953  -0.000009371721 0.00467252  0.00031015  0.0203375 0.0000
 29   -174.3830766671  -0.000008171793 0.00417164  0.00027818  0.0203433 0.0000
 30   -174.3830837203  -0.000007053191 0.00383137  0.00025706  0.0203481 0.0000
 31   -174.3830899988  -0.000006278518 0.00362922  0.00024365  0.0203521 0.0000
 32   -174.3830957275  -0.000005728700 0.00350490  0.00022975  0.0203556 0.0000
 33   -174.3831009340  -0.000005206431 0.00334920  0.00021414  0.0203585 0.0000
 34   -174.3831056201  -0.000004686113 0.00318408  0.00019849  0.0203608 0.0000
 35   -174.3831098208  -0.000004200746 0.00302764  0.00018407  0.0203626 0.0000
 36   -174.3831135904  -0.000003769589 0.00288165  0.00017093  0.0203639 0.0000
 37   -174.3831169782  -0.000003387806 0.00274021  0.00015865  0.0203648 0.0000
 38   -174.3831200211  -0.000003042891 0.00260054  0.00014701  0.0203653 0.0000
 39   -174.3831227493  -0.000002728135 0.00246301  0.00013603  0.0203655 0.0000
 40   -174.3831251903  -0.000002441088 0.00232866  0.00012574  0.0203653 0.0000
 41   -174.3831273705  -0.000002180177 0.00219804  0.00011613  0.0203649 0.0000
 42   -174.3831293140  -0.000001943499 0.00207133  0.00010717  0.0203643 0.0000
 43   -174.3831310431  -0.000001729036 0.00194866  0.00009885  0.0203635 0.0000
 44   -174.3831325781  -0.000001534994 0.00183029  0.00009112  0.0203625 0.0000
 45   -174.3831339379  -0.000001359818 0.00171646  0.00008397  0.0203614 0.0000
 46   -174.3831351400  -0.000001202108 0.00160741  0.00007736  0.0203602 0.0000
 47   -174.3831362005  -0.000001060546 0.00150331  0.00007126  0.0203589 0.0000
                 **** Energy Check signals convergence ****

               *****************************************************
               *                     SUCCESS                       *
               *           SCF CONVERGED AFTER  48 CYCLES          *
               *****************************************************


----------------
TOTAL SCF ENERGY
----------------

Total Energy       :         -174.38313713 Eh           -4745.20640 eV

Components:
Nuclear Repulsion  :            0.00000000 Eh               0.00000 eV
Electronic Energy  :         -174.38313713 Eh           -4745.20640 eV
One Electron Energy:         -275.43045713 Eh           -7494.84377 eV
Two Electron Energy:          101.04732000 Eh            2749.63737 eV

Virial components:
Potential Energy   :         -221.88618721 Eh           -6037.83011 eV
Kinetic Energy     :           47.50305007 Eh            1292.62371 eV
Virial Ratio       :            4.67098822


---------------
SCF CONVERGENCE
---------------

  Last Energy change         ...   -9.3387e-07  Tolerance :   1.0000e-06
  Last MAX-Density change    ...    1.4043e-03  Tolerance :   1.0000e-05
  Last RMS-Density change    ...    6.5652e-05  Tolerance :   1.0000e-06
  Last DIIS Error            ...    2.0358e-02  Tolerance :   1.0000e-06

             **** THE GBW FILE WAS UPDATED (82_Pb_atom82.gbw) ****
             **** DENSITY FILE WAS UPDATED (82_Pb_atom82.scfp) ****
             **** ENERGY FILE WAS UPDATED (82_Pb_atom82.en.tmp) ****
             **** THE GBW FILE WAS UPDATED (82_Pb_atom82.gbw) ****
             **** DENSITY FILE WAS UPDATED (82_Pb_atom82.scfp) ****
----------------
ORBITAL ENERGIES
----------------

  NO   OCC          E(Eh)            E(eV) 
   0   2.0000      -9.275806      -252.4075 
   1   2.0000      -6.650103      -180.9585 
   2   2.0000      -6.647700      -180.8931 
   3   2.0000      -6.642019      -180.7385 
   4   2.0000      -2.308850       -62.8270 
   5   2.0000      -1.455982       -39.6193 
   6   2.0000      -1.451487       -39.4970 
   7   2.0000      -1.441443       -39.2236 
   8   2.0000      -0.422807       -11.5052 
   9   2.0000      -0.213315        -5.8046 
  10   0.6667      -0.245675        -6.6852 
  11   0.6667      -0.245663        -6.6848 
  12   0.6667       0.016383         0.4458 
  13   0.0000       0.077309         2.1037 
  14   0.0000       0.094529         2.5723 
  15   0.0000       0.086059         2.3418 
  16   0.0000       0.735355        20.0100 
  17   0.0000       0.735966        20.0266 
  18   0.0000       0.761135        20.7115 
  19   0.0000       1.029487        28.0138 
  20   0.0000      10.223304       278.1903 
  21   0.0000      31.359599       853.3381 
  22   0.0000      31.360046       853.3502 
  23   0.0000      31.364213       853.4636 
  24   0.0000      77.074595      2097.3063 
CleanUpVectors: The p-vectors have cracked symmetry
CleanUpVectors: The p-vectors have cracked symmetry
CleanUpVectors: The p-vectors have cracked symmetry
CleanUpVectors: The p-vectors have cracked symmetry
CleanUpVectors: The p-vectors have cracked symmetry
CleanUpVectors: The p-vectors have cracked symmetry
CleanUpVectors: The p-vectors have cracked symmetry
CleanUpVectors: The p-vectors have cracked symmetry
CleanUpVectors: The p-vectors have cracked symmetry
CleanUpVectors: The p-vectors have cracked symmetry
CleanUpVectors: The p-vectors have cracked symmetry
CleanUpVectors: The p-vectors have cracked symmetry
CleanUpVectors: The p-vectors have cracked symmetry
CleanUpVectors: The p-vectors have cracked symmetry
CleanUpVectors: The p-vectors have cracked symmetry
CleanUpVectors: The p-vectors have cracked symmetry
CleanUpVectors: The p-vectors have cracked symmetry
--------------------------
ATOM BASIS FOR ELEMENT Pb
--------------------------
 NewGTO Pb
 S 17
    1       9368.330000000000         0.000014974230
    2       1366.930000000000         0.000110167474
    3        299.682000000000         0.000405373481
    4         34.859700000000         0.024893567490
    5         21.788900000000        -0.217592497851
    6         13.620000000000         0.747870194031
    7          8.512950000000        -0.649069235481
    8          5.303320000000        -0.653936925850
    9          1.928160000000         0.818476839683
   10          1.037340031200         0.710015258237
   11         13.559944213000         0.024745785120
   12         11.039620045000        -0.041489074289
   13          2.137172278800         0.081426136874
   14          0.511116856900        -0.154947673307
   15          0.246739875600         0.103729609144
   16          0.115779767400        -0.046765060327
   17          0.052874167800         0.012128815900
 P 31
    1         59.090100000000        -0.000085336252
    2         20.919700000000         0.002512652027
    3         13.077700000000        -0.015143728282
    4          6.899100000000         0.044370560119
    5          2.196270000000        -0.051924367779
    6          1.304860000000        -0.051932949081
    7          0.779572000000        -0.031100892205
    8         59.090100000000         0.000030151205
    9         20.919700000000        -0.000887776110
   10         13.077700000000         0.005350617611
   11          6.899100000000        -0.015677110415
   12          2.196270000000         0.018346039462
   13          1.304860000000         0.018349071428
   14          0.779572000000         0.010988640211
   15         59.090100000000        -0.000780443598
   16         20.919700000000         0.022979485724
   17         13.077700000000        -0.138497127404
   18          6.899100000000         0.405791427545
   19          2.196270000000        -0.474874855510
   20          1.304860000000        -0.474953335902
   21          0.779572000000        -0.284433539083
   22          9.137318313400         0.000335653047
   23          3.957057424900        -0.001654977340
   24          1.224663909800        -0.004385672780
   25          9.137318313400        -0.000118593722
   26          3.957057424900         0.000584740477
   27          1.224663909800         0.001549556198
   28          9.137318313400         0.003069718500
   29          3.957057424900        -0.015135612797
   30          1.224663909800        -0.040109216865
   31          0.426015642400         0.020291288114
 S 17
    1       9368.330000000000         0.000009610685
    2       1366.930000000000         0.000070707136
    3        299.682000000000         0.000260174777
    4         34.859700000000         0.015977064810
    5         21.788900000000        -0.139654127185
    6         13.620000000000         0.479994302317
    7          8.512950000000        -0.416582365933
    8          5.303320000000        -0.419706522586
    9          1.928160000000         0.525310706004
   10          1.037340031200         1.286752578384
   11         13.559944213000         0.093849715828
   12         11.039620045000        -0.157349537024
   13          2.137172278800         0.308812986511
   14          0.511116856900        -1.613790573084
   15          0.246739875600        -0.344526801674
   16          0.115779767400        -0.090194040916
   17          0.052874167800         0.022562783688
 P 31
    1         59.090100000000        -0.000053829054
    2         20.919700000000         0.001584949871
    3         13.077700000000        -0.009552476796
    4          6.899100000000         0.027988401409
    5          2.196270000000        -0.032753250002
    6          1.304860000000        -0.032758662981
    7          0.779572000000        -0.019618058750
    8         59.090100000000         0.000019019008
    9         20.919700000000        -0.000559998207
   10         13.077700000000         0.003375103516
   11          6.899100000000        -0.009888927660
   12          2.196270000000         0.011572455145
   13          1.304860000000         0.011574367672
   14          0.779572000000         0.006931498551
   15         59.090100000000        -0.000492294184
   16         20.919700000000         0.014495175830
   17         13.077700000000        -0.087362277720
   18          6.899100000000         0.255968221535
   19          2.196270000000        -0.299545194811
   20          1.304860000000        -0.299594699274
   21          0.779572000000        -0.179417164095
   22          9.137318313400         0.001726109769
   23          3.957057424900        -0.008510789868
   24          1.224663909800        -0.022553504842
   25          9.137318313400        -0.000609873154
   26          3.957057424900         0.003007052246
   27          1.224663909800         0.007968657252
   28          9.137318313400         0.015786155176
   29          3.957057424900        -0.077835518881
   30          1.224663909800        -0.206263317417
   31          0.426015642400         0.136276578130
 S 17
    1       9368.330000000000        -0.000003096007
    2       1366.930000000000        -0.000022777748
    3        299.682000000000        -0.000083813257
    4         34.859700000000        -0.005146885718
    5         21.788900000000         0.044988478247
    6         13.620000000000        -0.154626387803
    7          8.512950000000         0.134198731434
    8          5.303320000000         0.135205153919
    9          1.928160000000        -0.169224710692
   10          1.037340031200        -0.372449557043
   11         13.559944213000        -0.061225770150
   12         11.039620045000         0.102651846114
   13          2.137172278800        -0.201463720636
   14          0.511116856900         0.073003736231
   15          0.246739875600         3.379208410463
   16          0.115779767400        -5.947425416748
   17          0.052874167800         3.313748502526
 S 17
    1       9368.330000000000        -0.000010329902
    2       1366.930000000000        -0.000075998516
    3        299.682000000000        -0.000279645000
    4         34.859700000000        -0.017172711099
    5         21.788900000000         0.150105166907
    6         13.620000000000        -0.515914755373
    7          8.512950000000         0.447757376234
    8          5.303320000000         0.451115329668
    9          1.928160000000        -0.564622419630
   10          1.037340031200        -3.714962875200
   11         13.559944213000        -0.055218101487
   12         11.039620045000         0.092579318197
   13          2.137172278800        -0.181695455115
   14          0.511116856900        10.850689338114
   15          0.246739875600       -12.724652019975
   16          0.115779767400         7.892475200883
   17          0.052874167800        -2.270316119500
 S 17
    1       9368.330000000000         0.000013599289
    2       1366.930000000000         0.000100051848
    3        299.682000000000         0.000368151910
    4         34.859700000000         0.022607829202
    5         21.788900000000        -0.197613059242
    6         13.620000000000         0.679200424731
    7          8.512950000000        -0.589471413538
    8          5.303320000000        -0.593892150442
    9          1.928160000000         0.743323937204
   10          1.037340031200        12.136706571053
   11         13.559944213000        -2.034709433607
   12         11.039620045000         3.411417760101
   13          2.137172278800        -6.695222157364
   14          0.511116856900       -12.584351574668
   15          0.246739875600         8.407119634518
   16          0.115779767400        -3.852809757338
   17          0.052874167800         0.988911602630
 P 31
    1         59.090100000000        -0.000197937409
    2         20.919700000000         0.005828095555
    3         13.077700000000        -0.035125872805
    4          6.899100000000         0.102917499708
    5          2.196270000000        -0.120438554109
    6          1.304860000000        -0.120458458437
    7          0.779572000000        -0.072138509314
    8         59.090100000000        -0.000458379410
    9         20.919700000000         0.013496584665
   10         13.077700000000        -0.081343778895
   11          6.899100000000         0.238334244027
   12          2.196270000000        -0.278909143991
   13          1.304860000000        -0.278955238028
   14          0.779572000000        -0.167056886646
   15         59.090100000000         0.000003934359
   16         20.919700000000        -0.000115843788
   17         13.077700000000         0.000698189337
   18          6.899100000000        -0.002045668766
   19          2.196270000000         0.002393930955
   20          1.304860000000         0.002394326589
   21          0.779572000000         0.001433881465
   22          9.137318313400         0.006383774671
   23          3.957057424900        -0.031475961586
   24          1.224663909800        -0.083410971611
   25          9.137318313400         0.014783415012
   26          3.957057424900        -0.072891389035
   27          1.224663909800        -0.193161424625
   28          9.137318313400        -0.000126888901
   29          3.957057424900         0.000625640845
   30          1.224663909800         0.001657941748
   31          0.426015642400         0.507395173818
 P 31
    1         59.090100000000        -0.000183973390
    2         20.919700000000         0.005416937110
    3         13.077700000000        -0.032647825026
    4          6.899100000000         0.095656911966
    5          2.196270000000        -0.111941897154
    6          1.304860000000        -0.111960397279
    7          0.779572000000        -0.067049307012
    8         59.090100000000         0.000079642465
    9         20.919700000000        -0.002345003401
   10         13.077700000000         0.014133311718
   11          6.899100000000        -0.041410077200
   12          2.196270000000         0.048459881339
   13          1.304860000000         0.048467890081
   14          0.779572000000         0.029025785200
   15         59.090100000000         0.000023193112
   16         20.919700000000        -0.000682901097
   17         13.077700000000         0.004115837985
   18          6.899100000000        -0.012059252078
   19          2.196270000000         0.014112263590
   20          1.304860000000         0.014114595859
   21          0.779572000000         0.008452755565
   22          9.137318313400         0.007305363139
   23          3.957057424900        -0.036019963327
   24          1.224663909800        -0.095452529075
   25          9.137318313400        -0.003162506978
   26          3.957057424900         0.015593117439
   27          1.224663909800         0.041321599419
   28          9.137318313400        -0.000920970726
   29          3.957057424900         0.004540955888
   30          1.224663909800         0.012033485986
   31          0.426015642400         0.723639551716
 P 31
    1         59.090100000000        -0.000056390010
    2         20.919700000000         0.001660354998
    3         13.077700000000        -0.010006942736
    4          6.899100000000         0.029319969695
    5          2.196270000000        -0.034311509379
    6          1.304860000000        -0.034317179885
    7          0.779572000000        -0.020551401976
    8         59.090100000000        -0.000130586833
    9         20.919700000000         0.003845016197
   10         13.077700000000        -0.023173873625
   11          6.899100000000         0.067898587042
   12          2.196270000000        -0.079457892706
   13          1.304860000000        -0.079471024348
   14          0.779572000000        -0.047592516993
   15         59.090100000000         0.000001120852
   16         20.919700000000        -0.000033002515
   17         13.077700000000         0.000198905825
   18          6.899100000000        -0.000582786663
   19          2.196270000000         0.000682002412
   20          1.304860000000         0.000682115123
   21          0.779572000000         0.000408495749
   22          9.137318313400         0.002217714455
   23          3.957057424900        -0.010934705340
   24          1.224663909800        -0.028976855692
   25          9.137318313400         0.005135737843
   26          3.957057424900        -0.025322367315
   27          1.224663909800        -0.067104010642
   28          9.137318313400        -0.000044081028
   29          3.957057424900         0.000217346761
   30          1.224663909800         0.000575966660
   31          0.426015642400         0.160039525610
 P 31
    1         59.090100000000        -0.000190284980
    2         20.919700000000         0.005602776410
    3         13.077700000000        -0.033767876601
    4          6.899100000000         0.098938621384
    5          2.196270000000        -0.115782296876
    6          1.304860000000        -0.115801431686
    7          0.779572000000        -0.069349573012
    8         59.090100000000        -0.000440658071
    9         20.919700000000         0.012974795190
   10         13.077700000000        -0.078198959019
   11          6.899100000000         0.229120038859
   12          2.196270000000        -0.268126278581
   13          1.304860000000        -0.268170590583
   14          0.779572000000        -0.160598324912
   15         59.090100000000         0.000003782253
   16         20.919700000000        -0.000111365169
   17         13.077700000000         0.000671196741
   18          6.899100000000        -0.001966581466
   19          2.196270000000         0.002301379542
   20          1.304860000000         0.002301759880
   21          0.779572000000         0.001378446385
   22          9.137318313400         0.009225033522
   23          3.957057424900        -0.045485126861
   24          1.224663909800        -0.120535114230
   25          9.137318313400         0.021363144234
   26          3.957057424900        -0.105333527880
   27          1.224663909800        -0.279132755947
   28          9.137318313400        -0.000183363986
   29          3.957057424900         0.000904097977
   30          1.224663909800         0.002395850259
   31          0.426015642400         1.443084260673
 P 31
    1         59.090100000000        -0.001170998539
    2         20.919700000000         0.034479037646
    3         13.077700000000        -0.207804810211
    4          6.899100000000         0.608860358092
    5          2.196270000000        -0.712514989102
    6          1.304860000000        -0.712632743190
    7          0.779572000000        -0.426771722377
    8         59.090100000000        -0.002711774501
    9         20.919700000000         0.079845851248
   10         13.077700000000        -0.481230135683
   11          6.899100000000         1.409986383085
   12          2.196270000000        -1.650027660735
   13          1.304860000000        -1.650300353249
   14          0.779572000000        -0.988309239122
   15         59.090100000000         0.000023275683
   16         20.919700000000        -0.000685332335
   17         13.077700000000         0.004130491030
   18          6.899100000000        -0.012102184955
   19          2.196270000000         0.014162505518
   20          1.304860000000         0.014164846091
   21          0.779572000000         0.008482848734
   22          9.137318313400        -0.085877343125
   23          3.957057424900         0.423428471820
   24          1.224663909800         1.122081056847
   25          9.137318313400        -0.198872997417
   26          3.957057424900         0.980567007757
   27          1.224663909800         2.598492396236
   28          9.137318313400         0.001706965277
   29          3.957057424900        -0.008416395669
   30          1.224663909800        -0.022303361196
   31          0.426015642400         0.435448505702
 end
  // -----------------------------------------------
  // The basis set
  // -----------------------------------------------
  BAS[ATNO] = new BFNGauss[NSH];
  // Basis function   1 L = s
  InitBFNGauss(BAS[ATNO][  0]);
  BAS[ATNO][  0].l  = 0;
  BAS[ATNO][  0].ng = 17;
  BAS[ATNO][  0].a[  0] =      9368.330000000000;     BAS[ATNO][  0].d[  0] =         0.000014974230;
  BAS[ATNO][  0].a[  1] =      1366.930000000000;     BAS[ATNO][  0].d[  1] =         0.000110167474;
  BAS[ATNO][  0].a[  2] =       299.682000000000;     BAS[ATNO][  0].d[  2] =         0.000405373481;
  BAS[ATNO][  0].a[  3] =        34.859700000000;     BAS[ATNO][  0].d[  3] =         0.024893567490;
  BAS[ATNO][  0].a[  4] =        21.788900000000;     BAS[ATNO][  0].d[  4] =        -0.217592497851;
  BAS[ATNO][  0].a[  5] =        13.620000000000;     BAS[ATNO][  0].d[  5] =         0.747870194031;
  BAS[ATNO][  0].a[  6] =         8.512950000000;     BAS[ATNO][  0].d[  6] =        -0.649069235481;
  BAS[ATNO][  0].a[  7] =         5.303320000000;     BAS[ATNO][  0].d[  7] =        -0.653936925850;
  BAS[ATNO][  0].a[  8] =         1.928160000000;     BAS[ATNO][  0].d[  8] =         0.818476839683;
  BAS[ATNO][  0].a[  9] =         1.037340031200;     BAS[ATNO][  0].d[  9] =         0.710015258237;
  BAS[ATNO][  0].a[ 10] =        13.559944213000;     BAS[ATNO][  0].d[ 10] =         0.024745785120;
  BAS[ATNO][  0].a[ 11] =        11.039620045000;     BAS[ATNO][  0].d[ 11] =        -0.041489074289;
  BAS[ATNO][  0].a[ 12] =         2.137172278800;     BAS[ATNO][  0].d[ 12] =         0.081426136874;
  BAS[ATNO][  0].a[ 13] =         0.511116856900;     BAS[ATNO][  0].d[ 13] =        -0.154947673307;
  BAS[ATNO][  0].a[ 14] =         0.246739875600;     BAS[ATNO][  0].d[ 14] =         0.103729609144;
  BAS[ATNO][  0].a[ 15] =         0.115779767400;     BAS[ATNO][  0].d[ 15] =        -0.046765060327;
  BAS[ATNO][  0].a[ 16] =         0.052874167800;     BAS[ATNO][  0].d[ 16] =         0.012128815900;

  // Basis function   2 L = p
  InitBFNGauss(BAS[ATNO][  1]);
  BAS[ATNO][  1].l  = 1;
  BAS[ATNO][  1].ng = 31;
  BAS[ATNO][  1].a[  0] =        59.090100000000;     BAS[ATNO][  1].d[  0] =         0.000085336252;
  BAS[ATNO][  1].a[  1] =        20.919700000000;     BAS[ATNO][  1].d[  1] =        -0.002512652027;
  BAS[ATNO][  1].a[  2] =        13.077700000000;     BAS[ATNO][  1].d[  2] =         0.015143728282;
  BAS[ATNO][  1].a[  3] =         6.899100000000;     BAS[ATNO][  1].d[  3] =        -0.044370560119;
  BAS[ATNO][  1].a[  4] =         2.196270000000;     BAS[ATNO][  1].d[  4] =         0.051924367779;
  BAS[ATNO][  1].a[  5] =         1.304860000000;     BAS[ATNO][  1].d[  5] =         0.051932949081;
  BAS[ATNO][  1].a[  6] =         0.779572000000;     BAS[ATNO][  1].d[  6] =         0.031100892205;
  BAS[ATNO][  1].a[  7] =        59.090100000000;     BAS[ATNO][  1].d[  7] =        -0.000030151205;
  BAS[ATNO][  1].a[  8] =        20.919700000000;     BAS[ATNO][  1].d[  8] =         0.000887776110;
  BAS[ATNO][  1].a[  9] =        13.077700000000;     BAS[ATNO][  1].d[  9] =        -0.005350617611;
  BAS[ATNO][  1].a[ 10] =         6.899100000000;     BAS[ATNO][  1].d[ 10] =         0.015677110415;
  BAS[ATNO][  1].a[ 11] =         2.196270000000;     BAS[ATNO][  1].d[ 11] =        -0.018346039462;
  BAS[ATNO][  1].a[ 12] =         1.304860000000;     BAS[ATNO][  1].d[ 12] =        -0.018349071428;
  BAS[ATNO][  1].a[ 13] =         0.779572000000;     BAS[ATNO][  1].d[ 13] =        -0.010988640211;
  BAS[ATNO][  1].a[ 14] =        59.090100000000;     BAS[ATNO][  1].d[ 14] =         0.000780443598;
  BAS[ATNO][  1].a[ 15] =        20.919700000000;     BAS[ATNO][  1].d[ 15] =        -0.022979485724;
  BAS[ATNO][  1].a[ 16] =        13.077700000000;     BAS[ATNO][  1].d[ 16] =         0.138497127404;
  BAS[ATNO][  1].a[ 17] =         6.899100000000;     BAS[ATNO][  1].d[ 17] =        -0.405791427545;
  BAS[ATNO][  1].a[ 18] =         2.196270000000;     BAS[ATNO][  1].d[ 18] =         0.474874855510;
  BAS[ATNO][  1].a[ 19] =         1.304860000000;     BAS[ATNO][  1].d[ 19] =         0.474953335902;
  BAS[ATNO][  1].a[ 20] =         0.779572000000;     BAS[ATNO][  1].d[ 20] =         0.284433539083;
  BAS[ATNO][  1].a[ 21] =         9.137318313400;     BAS[ATNO][  1].d[ 21] =        -0.000335653047;
  BAS[ATNO][  1].a[ 22] =         3.957057424900;     BAS[ATNO][  1].d[ 22] =         0.001654977340;
  BAS[ATNO][  1].a[ 23] =         1.224663909800;     BAS[ATNO][  1].d[ 23] =         0.004385672780;
  BAS[ATNO][  1].a[ 24] =         9.137318313400;     BAS[ATNO][  1].d[ 24] =         0.000118593722;
  BAS[ATNO][  1].a[ 25] =         3.957057424900;     BAS[ATNO][  1].d[ 25] =        -0.000584740477;
  BAS[ATNO][  1].a[ 26] =         1.224663909800;     BAS[ATNO][  1].d[ 26] =        -0.001549556198;
  BAS[ATNO][  1].a[ 27] =         9.137318313400;     BAS[ATNO][  1].d[ 27] =        -0.003069718500;
  BAS[ATNO][  1].a[ 28] =         3.957057424900;     BAS[ATNO][  1].d[ 28] =         0.015135612797;
  BAS[ATNO][  1].a[ 29] =         1.224663909800;     BAS[ATNO][  1].d[ 29] =         0.040109216865;
  BAS[ATNO][  1].a[ 30] =         0.426015642400;     BAS[ATNO][  1].d[ 30] =        -0.020291288114;

  // Basis function   3 L = s
  InitBFNGauss(BAS[ATNO][  2]);
  BAS[ATNO][  2].l  = 0;
  BAS[ATNO][  2].ng = 17;
  BAS[ATNO][  2].a[  0] =      9368.330000000000;     BAS[ATNO][  2].d[  0] =        -0.000009610685;
  BAS[ATNO][  2].a[  1] =      1366.930000000000;     BAS[ATNO][  2].d[  1] =        -0.000070707136;
  BAS[ATNO][  2].a[  2] =       299.682000000000;     BAS[ATNO][  2].d[  2] =        -0.000260174777;
  BAS[ATNO][  2].a[  3] =        34.859700000000;     BAS[ATNO][  2].d[  3] =        -0.015977064810;
  BAS[ATNO][  2].a[  4] =        21.788900000000;     BAS[ATNO][  2].d[  4] =         0.139654127185;
  BAS[ATNO][  2].a[  5] =        13.620000000000;     BAS[ATNO][  2].d[  5] =        -0.479994302317;
  BAS[ATNO][  2].a[  6] =         8.512950000000;     BAS[ATNO][  2].d[  6] =         0.416582365933;
  BAS[ATNO][  2].a[  7] =         5.303320000000;     BAS[ATNO][  2].d[  7] =         0.419706522586;
  BAS[ATNO][  2].a[  8] =         1.928160000000;     BAS[ATNO][  2].d[  8] =        -0.525310706004;
  BAS[ATNO][  2].a[  9] =         1.037340031200;     BAS[ATNO][  2].d[  9] =        -1.286752578384;
  BAS[ATNO][  2].a[ 10] =        13.559944213000;     BAS[ATNO][  2].d[ 10] =        -0.093849715828;
  BAS[ATNO][  2].a[ 11] =        11.039620045000;     BAS[ATNO][  2].d[ 11] =         0.157349537024;
  BAS[ATNO][  2].a[ 12] =         2.137172278800;     BAS[ATNO][  2].d[ 12] =        -0.308812986511;
  BAS[ATNO][  2].a[ 13] =         0.511116856900;     BAS[ATNO][  2].d[ 13] =         1.613790573084;
  BAS[ATNO][  2].a[ 14] =         0.246739875600;     BAS[ATNO][  2].d[ 14] =         0.344526801674;
  BAS[ATNO][  2].a[ 15] =         0.115779767400;     BAS[ATNO][  2].d[ 15] =         0.090194040916;
  BAS[ATNO][  2].a[ 16] =         0.052874167800;     BAS[ATNO][  2].d[ 16] =        -0.022562783688;

  // Basis function   4 L = p
  InitBFNGauss(BAS[ATNO][  3]);
  BAS[ATNO][  3].l  = 1;
  BAS[ATNO][  3].ng = 31;
  BAS[ATNO][  3].a[  0] =        59.090100000000;     BAS[ATNO][  3].d[  0] =         0.000053829054;
  BAS[ATNO][  3].a[  1] =        20.919700000000;     BAS[ATNO][  3].d[  1] =        -0.001584949871;
  BAS[ATNO][  3].a[  2] =        13.077700000000;     BAS[ATNO][  3].d[  2] =         0.009552476796;
  BAS[ATNO][  3].a[  3] =         6.899100000000;     BAS[ATNO][  3].d[  3] =        -0.027988401409;
  BAS[ATNO][  3].a[  4] =         2.196270000000;     BAS[ATNO][  3].d[  4] =         0.032753250002;
  BAS[ATNO][  3].a[  5] =         1.304860000000;     BAS[ATNO][  3].d[  5] =         0.032758662981;
  BAS[ATNO][  3].a[  6] =         0.779572000000;     BAS[ATNO][  3].d[  6] =         0.019618058750;
  BAS[ATNO][  3].a[  7] =        59.090100000000;     BAS[ATNO][  3].d[  7] =        -0.000019019008;
  BAS[ATNO][  3].a[  8] =        20.919700000000;     BAS[ATNO][  3].d[  8] =         0.000559998207;
  BAS[ATNO][  3].a[  9] =        13.077700000000;     BAS[ATNO][  3].d[  9] =        -0.003375103516;
  BAS[ATNO][  3].a[ 10] =         6.899100000000;     BAS[ATNO][  3].d[ 10] =         0.009888927660;
  BAS[ATNO][  3].a[ 11] =         2.196270000000;     BAS[ATNO][  3].d[ 11] =        -0.011572455145;
  BAS[ATNO][  3].a[ 12] =         1.304860000000;     BAS[ATNO][  3].d[ 12] =        -0.011574367672;
  BAS[ATNO][  3].a[ 13] =         0.779572000000;     BAS[ATNO][  3].d[ 13] =        -0.006931498551;
  BAS[ATNO][  3].a[ 14] =        59.090100000000;     BAS[ATNO][  3].d[ 14] =         0.000492294184;
  BAS[ATNO][  3].a[ 15] =        20.919700000000;     BAS[ATNO][  3].d[ 15] =        -0.014495175830;
  BAS[ATNO][  3].a[ 16] =        13.077700000000;     BAS[ATNO][  3].d[ 16] =         0.087362277720;
  BAS[ATNO][  3].a[ 17] =         6.899100000000;     BAS[ATNO][  3].d[ 17] =        -0.255968221535;
  BAS[ATNO][  3].a[ 18] =         2.196270000000;     BAS[ATNO][  3].d[ 18] =         0.299545194811;
  BAS[ATNO][  3].a[ 19] =         1.304860000000;     BAS[ATNO][  3].d[ 19] =         0.299594699274;
  BAS[ATNO][  3].a[ 20] =         0.779572000000;     BAS[ATNO][  3].d[ 20] =         0.179417164095;
  BAS[ATNO][  3].a[ 21] =         9.137318313400;     BAS[ATNO][  3].d[ 21] =        -0.001726109769;
  BAS[ATNO][  3].a[ 22] =         3.957057424900;     BAS[ATNO][  3].d[ 22] =         0.008510789868;
  BAS[ATNO][  3].a[ 23] =         1.224663909800;     BAS[ATNO][  3].d[ 23] =         0.022553504842;
  BAS[ATNO][  3].a[ 24] =         9.137318313400;     BAS[ATNO][  3].d[ 24] =         0.000609873154;
  BAS[ATNO][  3].a[ 25] =         3.957057424900;     BAS[ATNO][  3].d[ 25] =        -0.003007052246;
  BAS[ATNO][  3].a[ 26] =         1.224663909800;     BAS[ATNO][  3].d[ 26] =        -0.007968657252;
  BAS[ATNO][  3].a[ 27] =         9.137318313400;     BAS[ATNO][  3].d[ 27] =        -0.015786155176;
  BAS[ATNO][  3].a[ 28] =         3.957057424900;     BAS[ATNO][  3].d[ 28] =         0.077835518881;
  BAS[ATNO][  3].a[ 29] =         1.224663909800;     BAS[ATNO][  3].d[ 29] =         0.206263317417;
  BAS[ATNO][  3].a[ 30] =         0.426015642400;     BAS[ATNO][  3].d[ 30] =        -0.136276578130;

  // Basis function   5 L = s
  InitBFNGauss(BAS[ATNO][  4]);
  BAS[ATNO][  4].l  = 0;
  BAS[ATNO][  4].ng = 17;
  BAS[ATNO][  4].a[  0] =      9368.330000000000;     BAS[ATNO][  4].d[  0] =         0.000003096007;
  BAS[ATNO][  4].a[  1] =      1366.930000000000;     BAS[ATNO][  4].d[  1] =         0.000022777748;
  BAS[ATNO][  4].a[  2] =       299.682000000000;     BAS[ATNO][  4].d[  2] =         0.000083813257;
  BAS[ATNO][  4].a[  3] =        34.859700000000;     BAS[ATNO][  4].d[  3] =         0.005146885718;
  BAS[ATNO][  4].a[  4] =        21.788900000000;     BAS[ATNO][  4].d[  4] =        -0.044988478247;
  BAS[ATNO][  4].a[  5] =        13.620000000000;     BAS[ATNO][  4].d[  5] =         0.154626387803;
  BAS[ATNO][  4].a[  6] =         8.512950000000;     BAS[ATNO][  4].d[  6] =        -0.134198731434;
  BAS[ATNO][  4].a[  7] =         5.303320000000;     BAS[ATNO][  4].d[  7] =        -0.135205153919;
  BAS[ATNO][  4].a[  8] =         1.928160000000;     BAS[ATNO][  4].d[  8] =         0.169224710692;
  BAS[ATNO][  4].a[  9] =         1.037340031200;     BAS[ATNO][  4].d[  9] =         0.372449557043;
  BAS[ATNO][  4].a[ 10] =        13.559944213000;     BAS[ATNO][  4].d[ 10] =         0.061225770150;
  BAS[ATNO][  4].a[ 11] =        11.039620045000;     BAS[ATNO][  4].d[ 11] =        -0.102651846114;
  BAS[ATNO][  4].a[ 12] =         2.137172278800;     BAS[ATNO][  4].d[ 12] =         0.201463720636;
  BAS[ATNO][  4].a[ 13] =         0.511116856900;     BAS[ATNO][  4].d[ 13] =        -0.073003736231;
  BAS[ATNO][  4].a[ 14] =         0.246739875600;     BAS[ATNO][  4].d[ 14] =        -3.379208410463;
  BAS[ATNO][  4].a[ 15] =         0.115779767400;     BAS[ATNO][  4].d[ 15] =         5.947425416748;
  BAS[ATNO][  4].a[ 16] =         0.052874167800;     BAS[ATNO][  4].d[ 16] =        -3.313748502526;

  // Basis function   6 L = s
  InitBFNGauss(BAS[ATNO][  5]);
  BAS[ATNO][  5].l  = 0;
  BAS[ATNO][  5].ng = 17;
  BAS[ATNO][  5].a[  0] =      9368.330000000000;     BAS[ATNO][  5].d[  0] =         0.000010329902;
  BAS[ATNO][  5].a[  1] =      1366.930000000000;     BAS[ATNO][  5].d[  1] =         0.000075998516;
  BAS[ATNO][  5].a[  2] =       299.682000000000;     BAS[ATNO][  5].d[  2] =         0.000279645000;
  BAS[ATNO][  5].a[  3] =        34.859700000000;     BAS[ATNO][  5].d[  3] =         0.017172711099;
  BAS[ATNO][  5].a[  4] =        21.788900000000;     BAS[ATNO][  5].d[  4] =        -0.150105166907;
  BAS[ATNO][  5].a[  5] =        13.620000000000;     BAS[ATNO][  5].d[  5] =         0.515914755373;
  BAS[ATNO][  5].a[  6] =         8.512950000000;     BAS[ATNO][  5].d[  6] =        -0.447757376234;
  BAS[ATNO][  5].a[  7] =         5.303320000000;     BAS[ATNO][  5].d[  7] =        -0.451115329668;
  BAS[ATNO][  5].a[  8] =         1.928160000000;     BAS[ATNO][  5].d[  8] =         0.564622419630;
  BAS[ATNO][  5].a[  9] =         1.037340031200;     BAS[ATNO][  5].d[  9] =         3.714962875200;
  BAS[ATNO][  5].a[ 10] =        13.559944213000;     BAS[ATNO][  5].d[ 10] =         0.055218101487;
  BAS[ATNO][  5].a[ 11] =        11.039620045000;     BAS[ATNO][  5].d[ 11] =        -0.092579318197;
  BAS[ATNO][  5].a[ 12] =         2.137172278800;     BAS[ATNO][  5].d[ 12] =         0.181695455115;
  BAS[ATNO][  5].a[ 13] =         0.511116856900;     BAS[ATNO][  5].d[ 13] =       -10.850689338114;
  BAS[ATNO][  5].a[ 14] =         0.246739875600;     BAS[ATNO][  5].d[ 14] =        12.724652019975;
  BAS[ATNO][  5].a[ 15] =         0.115779767400;     BAS[ATNO][  5].d[ 15] =        -7.892475200883;
  BAS[ATNO][  5].a[ 16] =         0.052874167800;     BAS[ATNO][  5].d[ 16] =         2.270316119500;

  // Basis function   7 L = s
  InitBFNGauss(BAS[ATNO][  6]);
  BAS[ATNO][  6].l  = 0;
  BAS[ATNO][  6].ng = 17;
  BAS[ATNO][  6].a[  0] =      9368.330000000000;     BAS[ATNO][  6].d[  0] =        -0.000013599289;
  BAS[ATNO][  6].a[  1] =      1366.930000000000;     BAS[ATNO][  6].d[  1] =        -0.000100051848;
  BAS[ATNO][  6].a[  2] =       299.682000000000;     BAS[ATNO][  6].d[  2] =        -0.000368151910;
  BAS[ATNO][  6].a[  3] =        34.859700000000;     BAS[ATNO][  6].d[  3] =        -0.022607829202;
  BAS[ATNO][  6].a[  4] =        21.788900000000;     BAS[ATNO][  6].d[  4] =         0.197613059242;
  BAS[ATNO][  6].a[  5] =        13.620000000000;     BAS[ATNO][  6].d[  5] =        -0.679200424731;
  BAS[ATNO][  6].a[  6] =         8.512950000000;     BAS[ATNO][  6].d[  6] =         0.589471413538;
  BAS[ATNO][  6].a[  7] =         5.303320000000;     BAS[ATNO][  6].d[  7] =         0.593892150442;
  BAS[ATNO][  6].a[  8] =         1.928160000000;     BAS[ATNO][  6].d[  8] =        -0.743323937204;
  BAS[ATNO][  6].a[  9] =         1.037340031200;     BAS[ATNO][  6].d[  9] =       -12.136706571053;
  BAS[ATNO][  6].a[ 10] =        13.559944213000;     BAS[ATNO][  6].d[ 10] =         2.034709433607;
  BAS[ATNO][  6].a[ 11] =        11.039620045000;     BAS[ATNO][  6].d[ 11] =        -3.411417760101;
  BAS[ATNO][  6].a[ 12] =         2.137172278800;     BAS[ATNO][  6].d[ 12] =         6.695222157364;
  BAS[ATNO][  6].a[ 13] =         0.511116856900;     BAS[ATNO][  6].d[ 13] =        12.584351574668;
  BAS[ATNO][  6].a[ 14] =         0.246739875600;     BAS[ATNO][  6].d[ 14] =        -8.407119634518;
  BAS[ATNO][  6].a[ 15] =         0.115779767400;     BAS[ATNO][  6].d[ 15] =         3.852809757338;
  BAS[ATNO][  6].a[ 16] =         0.052874167800;     BAS[ATNO][  6].d[ 16] =        -0.988911602630;

  // Basis function   8 L = p
  InitBFNGauss(BAS[ATNO][  7]);
  BAS[ATNO][  7].l  = 1;
  BAS[ATNO][  7].ng = 31;
  BAS[ATNO][  7].a[  0] =        59.090100000000;     BAS[ATNO][  7].d[  0] =        -0.000197937409;
  BAS[ATNO][  7].a[  1] =        20.919700000000;     BAS[ATNO][  7].d[  1] =         0.005828095555;
  BAS[ATNO][  7].a[  2] =        13.077700000000;     BAS[ATNO][  7].d[  2] =        -0.035125872805;
  BAS[ATNO][  7].a[  3] =         6.899100000000;     BAS[ATNO][  7].d[  3] =         0.102917499708;
  BAS[ATNO][  7].a[  4] =         2.196270000000;     BAS[ATNO][  7].d[  4] =        -0.120438554109;
  BAS[ATNO][  7].a[  5] =         1.304860000000;     BAS[ATNO][  7].d[  5] =        -0.120458458437;
  BAS[ATNO][  7].a[  6] =         0.779572000000;     BAS[ATNO][  7].d[  6] =        -0.072138509314;
  BAS[ATNO][  7].a[  7] =        59.090100000000;     BAS[ATNO][  7].d[  7] =        -0.000458379410;
  BAS[ATNO][  7].a[  8] =        20.919700000000;     BAS[ATNO][  7].d[  8] =         0.013496584665;
  BAS[ATNO][  7].a[  9] =        13.077700000000;     BAS[ATNO][  7].d[  9] =        -0.081343778895;
  BAS[ATNO][  7].a[ 10] =         6.899100000000;     BAS[ATNO][  7].d[ 10] =         0.238334244027;
  BAS[ATNO][  7].a[ 11] =         2.196270000000;     BAS[ATNO][  7].d[ 11] =        -0.278909143991;
  BAS[ATNO][  7].a[ 12] =         1.304860000000;     BAS[ATNO][  7].d[ 12] =        -0.278955238028;
  BAS[ATNO][  7].a[ 13] =         0.779572000000;     BAS[ATNO][  7].d[ 13] =        -0.167056886646;
  BAS[ATNO][  7].a[ 14] =        59.090100000000;     BAS[ATNO][  7].d[ 14] =         0.000003934359;
  BAS[ATNO][  7].a[ 15] =        20.919700000000;     BAS[ATNO][  7].d[ 15] =        -0.000115843788;
  BAS[ATNO][  7].a[ 16] =        13.077700000000;     BAS[ATNO][  7].d[ 16] =         0.000698189337;
  BAS[ATNO][  7].a[ 17] =         6.899100000000;     BAS[ATNO][  7].d[ 17] =        -0.002045668766;
  BAS[ATNO][  7].a[ 18] =         2.196270000000;     BAS[ATNO][  7].d[ 18] =         0.002393930955;
  BAS[ATNO][  7].a[ 19] =         1.304860000000;     BAS[ATNO][  7].d[ 19] =         0.002394326589;
  BAS[ATNO][  7].a[ 20] =         0.779572000000;     BAS[ATNO][  7].d[ 20] =         0.001433881465;
  BAS[ATNO][  7].a[ 21] =         9.137318313400;     BAS[ATNO][  7].d[ 21] =         0.006383774671;
  BAS[ATNO][  7].a[ 22] =         3.957057424900;     BAS[ATNO][  7].d[ 22] =        -0.031475961586;
  BAS[ATNO][  7].a[ 23] =         1.224663909800;     BAS[ATNO][  7].d[ 23] =        -0.083410971611;
  BAS[ATNO][  7].a[ 24] =         9.137318313400;     BAS[ATNO][  7].d[ 24] =         0.014783415012;
  BAS[ATNO][  7].a[ 25] =         3.957057424900;     BAS[ATNO][  7].d[ 25] =        -0.072891389035;
  BAS[ATNO][  7].a[ 26] =         1.224663909800;     BAS[ATNO][  7].d[ 26] =        -0.193161424625;
  BAS[ATNO][  7].a[ 27] =         9.137318313400;     BAS[ATNO][  7].d[ 27] =        -0.000126888901;
  BAS[ATNO][  7].a[ 28] =         3.957057424900;     BAS[ATNO][  7].d[ 28] =         0.000625640845;
  BAS[ATNO][  7].a[ 29] =         1.224663909800;     BAS[ATNO][  7].d[ 29] =         0.001657941748;
  BAS[ATNO][  7].a[ 30] =         0.426015642400;     BAS[ATNO][  7].d[ 30] =         0.507395173818;

  // Basis function   9 L = p
  InitBFNGauss(BAS[ATNO][  8]);
  BAS[ATNO][  8].l  = 1;
  BAS[ATNO][  8].ng = 31;
  BAS[ATNO][  8].a[  0] =        59.090100000000;     BAS[ATNO][  8].d[  0] =        -0.000183973390;
  BAS[ATNO][  8].a[  1] =        20.919700000000;     BAS[ATNO][  8].d[  1] =         0.005416937110;
  BAS[ATNO][  8].a[  2] =        13.077700000000;     BAS[ATNO][  8].d[  2] =        -0.032647825026;
  BAS[ATNO][  8].a[  3] =         6.899100000000;     BAS[ATNO][  8].d[  3] =         0.095656911966;
  BAS[ATNO][  8].a[  4] =         2.196270000000;     BAS[ATNO][  8].d[  4] =        -0.111941897154;
  BAS[ATNO][  8].a[  5] =         1.304860000000;     BAS[ATNO][  8].d[  5] =        -0.111960397279;
  BAS[ATNO][  8].a[  6] =         0.779572000000;     BAS[ATNO][  8].d[  6] =        -0.067049307012;
  BAS[ATNO][  8].a[  7] =        59.090100000000;     BAS[ATNO][  8].d[  7] =         0.000079642465;
  BAS[ATNO][  8].a[  8] =        20.919700000000;     BAS[ATNO][  8].d[  8] =        -0.002345003401;
  BAS[ATNO][  8].a[  9] =        13.077700000000;     BAS[ATNO][  8].d[  9] =         0.014133311718;
  BAS[ATNO][  8].a[ 10] =         6.899100000000;     BAS[ATNO][  8].d[ 10] =        -0.041410077200;
  BAS[ATNO][  8].a[ 11] =         2.196270000000;     BAS[ATNO][  8].d[ 11] =         0.048459881339;
  BAS[ATNO][  8].a[ 12] =         1.304860000000;     BAS[ATNO][  8].d[ 12] =         0.048467890081;
  BAS[ATNO][  8].a[ 13] =         0.779572000000;     BAS[ATNO][  8].d[ 13] =         0.029025785200;
  BAS[ATNO][  8].a[ 14] =        59.090100000000;     BAS[ATNO][  8].d[ 14] =         0.000023193112;
  BAS[ATNO][  8].a[ 15] =        20.919700000000;     BAS[ATNO][  8].d[ 15] =        -0.000682901097;
  BAS[ATNO][  8].a[ 16] =        13.077700000000;     BAS[ATNO][  8].d[ 16] =         0.004115837985;
  BAS[ATNO][  8].a[ 17] =         6.899100000000;     BAS[ATNO][  8].d[ 17] =        -0.012059252078;
  BAS[ATNO][  8].a[ 18] =         2.196270000000;     BAS[ATNO][  8].d[ 18] =         0.014112263590;
  BAS[ATNO][  8].a[ 19] =         1.304860000000;     BAS[ATNO][  8].d[ 19] =         0.014114595859;
  BAS[ATNO][  8].a[ 20] =         0.779572000000;     BAS[ATNO][  8].d[ 20] =         0.008452755565;
  BAS[ATNO][  8].a[ 21] =         9.137318313400;     BAS[ATNO][  8].d[ 21] =         0.007305363139;
  BAS[ATNO][  8].a[ 22] =         3.957057424900;     BAS[ATNO][  8].d[ 22] =        -0.036019963327;
  BAS[ATNO][  8].a[ 23] =         1.224663909800;     BAS[ATNO][  8].d[ 23] =        -0.095452529075;
  BAS[ATNO][  8].a[ 24] =         9.137318313400;     BAS[ATNO][  8].d[ 24] =        -0.003162506978;
  BAS[ATNO][  8].a[ 25] =         3.957057424900;     BAS[ATNO][  8].d[ 25] =         0.015593117439;
  BAS[ATNO][  8].a[ 26] =         1.224663909800;     BAS[ATNO][  8].d[ 26] =         0.041321599419;
  BAS[ATNO][  8].a[ 27] =         9.137318313400;     BAS[ATNO][  8].d[ 27] =        -0.000920970726;
  BAS[ATNO][  8].a[ 28] =         3.957057424900;     BAS[ATNO][  8].d[ 28] =         0.004540955888;
  BAS[ATNO][  8].a[ 29] =         1.224663909800;     BAS[ATNO][  8].d[ 29] =         0.012033485986;
  BAS[ATNO][  8].a[ 30] =         0.426015642400;     BAS[ATNO][  8].d[ 30] =         0.723639551716;

  // Basis function  10 L = p
  InitBFNGauss(BAS[ATNO][  9]);
  BAS[ATNO][  9].l  = 1;
  BAS[ATNO][  9].ng = 31;
  BAS[ATNO][  9].a[  0] =        59.090100000000;     BAS[ATNO][  9].d[  0] =        -0.000056390010;
  BAS[ATNO][  9].a[  1] =        20.919700000000;     BAS[ATNO][  9].d[  1] =         0.001660354998;
  BAS[ATNO][  9].a[  2] =        13.077700000000;     BAS[ATNO][  9].d[  2] =        -0.010006942736;
  BAS[ATNO][  9].a[  3] =         6.899100000000;     BAS[ATNO][  9].d[  3] =         0.029319969695;
  BAS[ATNO][  9].a[  4] =         2.196270000000;     BAS[ATNO][  9].d[  4] =        -0.034311509379;
  BAS[ATNO][  9].a[  5] =         1.304860000000;     BAS[ATNO][  9].d[  5] =        -0.034317179885;
  BAS[ATNO][  9].a[  6] =         0.779572000000;     BAS[ATNO][  9].d[  6] =        -0.020551401976;
  BAS[ATNO][  9].a[  7] =        59.090100000000;     BAS[ATNO][  9].d[  7] =        -0.000130586833;
  BAS[ATNO][  9].a[  8] =        20.919700000000;     BAS[ATNO][  9].d[  8] =         0.003845016197;
  BAS[ATNO][  9].a[  9] =        13.077700000000;     BAS[ATNO][  9].d[  9] =        -0.023173873625;
  BAS[ATNO][  9].a[ 10] =         6.899100000000;     BAS[ATNO][  9].d[ 10] =         0.067898587042;
  BAS[ATNO][  9].a[ 11] =         2.196270000000;     BAS[ATNO][  9].d[ 11] =        -0.079457892706;
  BAS[ATNO][  9].a[ 12] =         1.304860000000;     BAS[ATNO][  9].d[ 12] =        -0.079471024348;
  BAS[ATNO][  9].a[ 13] =         0.779572000000;     BAS[ATNO][  9].d[ 13] =        -0.047592516993;
  BAS[ATNO][  9].a[ 14] =        59.090100000000;     BAS[ATNO][  9].d[ 14] =         0.000001120852;
  BAS[ATNO][  9].a[ 15] =        20.919700000000;     BAS[ATNO][  9].d[ 15] =        -0.000033002515;
  BAS[ATNO][  9].a[ 16] =        13.077700000000;     BAS[ATNO][  9].d[ 16] =         0.000198905825;
  BAS[ATNO][  9].a[ 17] =         6.899100000000;     BAS[ATNO][  9].d[ 17] =        -0.000582786663;
  BAS[ATNO][  9].a[ 18] =         2.196270000000;     BAS[ATNO][  9].d[ 18] =         0.000682002412;
  BAS[ATNO][  9].a[ 19] =         1.304860000000;     BAS[ATNO][  9].d[ 19] =         0.000682115123;
  BAS[ATNO][  9].a[ 20] =         0.779572000000;     BAS[ATNO][  9].d[ 20] =         0.000408495749;
  BAS[ATNO][  9].a[ 21] =         9.137318313400;     BAS[ATNO][  9].d[ 21] =         0.002217714455;
  BAS[ATNO][  9].a[ 22] =         3.957057424900;     BAS[ATNO][  9].d[ 22] =        -0.010934705340;
  BAS[ATNO][  9].a[ 23] =         1.224663909800;     BAS[ATNO][  9].d[ 23] =        -0.028976855692;
  BAS[ATNO][  9].a[ 24] =         9.137318313400;     BAS[ATNO][  9].d[ 24] =         0.005135737843;
  BAS[ATNO][  9].a[ 25] =         3.957057424900;     BAS[ATNO][  9].d[ 25] =        -0.025322367315;
  BAS[ATNO][  9].a[ 26] =         1.224663909800;     BAS[ATNO][  9].d[ 26] =        -0.067104010642;
  BAS[ATNO][  9].a[ 27] =         9.137318313400;     BAS[ATNO][  9].d[ 27] =        -0.000044081028;
  BAS[ATNO][  9].a[ 28] =         3.957057424900;     BAS[ATNO][  9].d[ 28] =         0.000217346761;
  BAS[ATNO][  9].a[ 29] =         1.224663909800;     BAS[ATNO][  9].d[ 29] =         0.000575966660;
  BAS[ATNO][  9].a[ 30] =         0.426015642400;     BAS[ATNO][  9].d[ 30] =         0.160039525610;

  // Basis function  11 L = p
  InitBFNGauss(BAS[ATNO][ 10]);
  BAS[ATNO][ 10].l  = 1;
  BAS[ATNO][ 10].ng = 31;
  BAS[ATNO][ 10].a[  0] =        59.090100000000;     BAS[ATNO][ 10].d[  0] =        -0.000190284980;
  BAS[ATNO][ 10].a[  1] =        20.919700000000;     BAS[ATNO][ 10].d[  1] =         0.005602776410;
  BAS[ATNO][ 10].a[  2] =        13.077700000000;     BAS[ATNO][ 10].d[  2] =        -0.033767876601;
  BAS[ATNO][ 10].a[  3] =         6.899100000000;     BAS[ATNO][ 10].d[  3] =         0.098938621384;
  BAS[ATNO][ 10].a[  4] =         2.196270000000;     BAS[ATNO][ 10].d[  4] =        -0.115782296876;
  BAS[ATNO][ 10].a[  5] =         1.304860000000;     BAS[ATNO][ 10].d[  5] =        -0.115801431686;
  BAS[ATNO][ 10].a[  6] =         0.779572000000;     BAS[ATNO][ 10].d[  6] =        -0.069349573012;
  BAS[ATNO][ 10].a[  7] =        59.090100000000;     BAS[ATNO][ 10].d[  7] =        -0.000440658071;
  BAS[ATNO][ 10].a[  8] =        20.919700000000;     BAS[ATNO][ 10].d[  8] =         0.012974795190;
  BAS[ATNO][ 10].a[  9] =        13.077700000000;     BAS[ATNO][ 10].d[  9] =        -0.078198959019;
  BAS[ATNO][ 10].a[ 10] =         6.899100000000;     BAS[ATNO][ 10].d[ 10] =         0.229120038859;
  BAS[ATNO][ 10].a[ 11] =         2.196270000000;     BAS[ATNO][ 10].d[ 11] =        -0.268126278581;
  BAS[ATNO][ 10].a[ 12] =         1.304860000000;     BAS[ATNO][ 10].d[ 12] =        -0.268170590583;
  BAS[ATNO][ 10].a[ 13] =         0.779572000000;     BAS[ATNO][ 10].d[ 13] =        -0.160598324912;
  BAS[ATNO][ 10].a[ 14] =        59.090100000000;     BAS[ATNO][ 10].d[ 14] =         0.000003782253;
  BAS[ATNO][ 10].a[ 15] =        20.919700000000;     BAS[ATNO][ 10].d[ 15] =        -0.000111365169;
  BAS[ATNO][ 10].a[ 16] =        13.077700000000;     BAS[ATNO][ 10].d[ 16] =         0.000671196741;
  BAS[ATNO][ 10].a[ 17] =         6.899100000000;     BAS[ATNO][ 10].d[ 17] =        -0.001966581466;
  BAS[ATNO][ 10].a[ 18] =         2.196270000000;     BAS[ATNO][ 10].d[ 18] =         0.002301379542;
  BAS[ATNO][ 10].a[ 19] =         1.304860000000;     BAS[ATNO][ 10].d[ 19] =         0.002301759880;
  BAS[ATNO][ 10].a[ 20] =         0.779572000000;     BAS[ATNO][ 10].d[ 20] =         0.001378446385;
  BAS[ATNO][ 10].a[ 21] =         9.137318313400;     BAS[ATNO][ 10].d[ 21] =         0.009225033522;
  BAS[ATNO][ 10].a[ 22] =         3.957057424900;     BAS[ATNO][ 10].d[ 22] =        -0.045485126861;
  BAS[ATNO][ 10].a[ 23] =         1.224663909800;     BAS[ATNO][ 10].d[ 23] =        -0.120535114230;
  BAS[ATNO][ 10].a[ 24] =         9.137318313400;     BAS[ATNO][ 10].d[ 24] =         0.021363144234;
  BAS[ATNO][ 10].a[ 25] =         3.957057424900;     BAS[ATNO][ 10].d[ 25] =        -0.105333527880;
  BAS[ATNO][ 10].a[ 26] =         1.224663909800;     BAS[ATNO][ 10].d[ 26] =        -0.279132755947;
  BAS[ATNO][ 10].a[ 27] =         9.137318313400;     BAS[ATNO][ 10].d[ 27] =        -0.000183363986;
  BAS[ATNO][ 10].a[ 28] =         3.957057424900;     BAS[ATNO][ 10].d[ 28] =         0.000904097977;
  BAS[ATNO][ 10].a[ 29] =         1.224663909800;     BAS[ATNO][ 10].d[ 29] =         0.002395850259;
  BAS[ATNO][ 10].a[ 30] =         0.426015642400;     BAS[ATNO][ 10].d[ 30] =         1.443084260673;

  // Basis function  12 L = p
  InitBFNGauss(BAS[ATNO][ 11]);
  BAS[ATNO][ 11].l  = 1;
  BAS[ATNO][ 11].ng = 31;
  BAS[ATNO][ 11].a[  0] =        59.090100000000;     BAS[ATNO][ 11].d[  0] =        -0.001170998539;
  BAS[ATNO][ 11].a[  1] =        20.919700000000;     BAS[ATNO][ 11].d[  1] =         0.034479037646;
  BAS[ATNO][ 11].a[  2] =        13.077700000000;     BAS[ATNO][ 11].d[  2] =        -0.207804810211;
  BAS[ATNO][ 11].a[  3] =         6.899100000000;     BAS[ATNO][ 11].d[  3] =         0.608860358092;
  BAS[ATNO][ 11].a[  4] =         2.196270000000;     BAS[ATNO][ 11].d[  4] =        -0.712514989102;
  BAS[ATNO][ 11].a[  5] =         1.304860000000;     BAS[ATNO][ 11].d[  5] =        -0.712632743190;
  BAS[ATNO][ 11].a[  6] =         0.779572000000;     BAS[ATNO][ 11].d[  6] =        -0.426771722377;
  BAS[ATNO][ 11].a[  7] =        59.090100000000;     BAS[ATNO][ 11].d[  7] =        -0.002711774501;
  BAS[ATNO][ 11].a[  8] =        20.919700000000;     BAS[ATNO][ 11].d[  8] =         0.079845851248;
  BAS[ATNO][ 11].a[  9] =        13.077700000000;     BAS[ATNO][ 11].d[  9] =        -0.481230135683;
  BAS[ATNO][ 11].a[ 10] =         6.899100000000;     BAS[ATNO][ 11].d[ 10] =         1.409986383085;
  BAS[ATNO][ 11].a[ 11] =         2.196270000000;     BAS[ATNO][ 11].d[ 11] =        -1.650027660735;
  BAS[ATNO][ 11].a[ 12] =         1.304860000000;     BAS[ATNO][ 11].d[ 12] =        -1.650300353249;
  BAS[ATNO][ 11].a[ 13] =         0.779572000000;     BAS[ATNO][ 11].d[ 13] =        -0.988309239122;
  BAS[ATNO][ 11].a[ 14] =        59.090100000000;     BAS[ATNO][ 11].d[ 14] =         0.000023275683;
  BAS[ATNO][ 11].a[ 15] =        20.919700000000;     BAS[ATNO][ 11].d[ 15] =        -0.000685332335;
  BAS[ATNO][ 11].a[ 16] =        13.077700000000;     BAS[ATNO][ 11].d[ 16] =         0.004130491030;
  BAS[ATNO][ 11].a[ 17] =         6.899100000000;     BAS[ATNO][ 11].d[ 17] =        -0.012102184955;
  BAS[ATNO][ 11].a[ 18] =         2.196270000000;     BAS[ATNO][ 11].d[ 18] =         0.014162505518;
  BAS[ATNO][ 11].a[ 19] =         1.304860000000;     BAS[ATNO][ 11].d[ 19] =         0.014164846091;
  BAS[ATNO][ 11].a[ 20] =         0.779572000000;     BAS[ATNO][ 11].d[ 20] =         0.008482848734;
  BAS[ATNO][ 11].a[ 21] =         9.137318313400;     BAS[ATNO][ 11].d[ 21] =        -0.085877343125;
  BAS[ATNO][ 11].a[ 22] =         3.957057424900;     BAS[ATNO][ 11].d[ 22] =         0.423428471820;
  BAS[ATNO][ 11].a[ 23] =         1.224663909800;     BAS[ATNO][ 11].d[ 23] =         1.122081056847;
  BAS[ATNO][ 11].a[ 24] =         9.137318313400;     BAS[ATNO][ 11].d[ 24] =        -0.198872997417;
  BAS[ATNO][ 11].a[ 25] =         3.957057424900;     BAS[ATNO][ 11].d[ 25] =         0.980567007757;
  BAS[ATNO][ 11].a[ 26] =         1.224663909800;     BAS[ATNO][ 11].d[ 26] =         2.598492396236;
  BAS[ATNO][ 11].a[ 27] =         9.137318313400;     BAS[ATNO][ 11].d[ 27] =         0.001706965277;
  BAS[ATNO][ 11].a[ 28] =         3.957057424900;     BAS[ATNO][ 11].d[ 28] =        -0.008416395669;
  BAS[ATNO][ 11].a[ 29] =         1.224663909800;     BAS[ATNO][ 11].d[ 29] =        -0.022303361196;
  BAS[ATNO][ 11].a[ 30] =         0.426015642400;     BAS[ATNO][ 11].d[ 30] =         0.435448505702;

-------------------------------------------
RADIAL EXPECTATION VALUES <R**-3> TO <R**3>
-------------------------------------------
   0 :     0.000000     1.727028     1.264520     0.851668     0.779916     0.767718
   1 :     1.894072     1.403985     1.137218     0.951269     0.978411     1.102092
   2 :     1.894494     1.404200     1.137310     0.951179     0.978229     1.101938
   3 :     1.895524     1.404723     1.137536     0.950959     0.977761     1.101325
   4 :     0.000000     0.577835     0.676897     1.709920     3.215114     6.507302
   5 :     0.440311     0.431834     0.584164     1.976778     4.300364    10.159166
   6 :     0.441475     0.432680     0.584768     1.974630     4.291038    10.129354
   7 :     0.000000     0.149721     0.319388     3.742683    15.539911    70.046034
   8 :     0.000000     0.094882     0.238928     5.256686    30.903215   194.135551
   9 :     0.000000     0.338277     0.454785     3.220302    13.712509    71.634227
  10 :     0.000000     2.924417     1.310484     1.345323     3.416814    14.173386
  11 :     0.445476     0.435610     0.586881     1.966715     4.254146     9.988815
  12 :     0.068753     0.095447     0.256424     4.639189    24.006666   136.102040
  13 :     0.072308     0.098924     0.260771     4.561605    23.163628   128.577360
  14 :     0.067149     0.093069     0.252068     4.742961    25.170622   146.594970
  15 :     0.046020     0.065018     0.199166     6.384915    46.272632   361.599562
  16 :     0.034364     0.053496     0.184453     6.650011    49.158567   387.585124
  17 :     0.036825     0.056291     0.188619     6.564442    48.219273   379.191673
  18 :     0.259803     0.245715     0.385432     3.773753    18.773436   115.666389
  19 :     0.251897     0.239053     0.378747     3.859703    19.661712   123.662943
  20 :     0.255024     0.242158     0.382668     3.792026    18.916254   116.704862
  21 :    23.051113     6.723385     2.385717     0.531161     0.506073     1.468760
  22 :    23.050935     6.723320     2.385695     0.531188     0.506246     1.470123
  23 :    23.050367     6.723111     2.385626     0.531245     0.506380     1.470175
  24 :     0.000000    23.954134     3.863267     0.470288     0.696437     2.651724
Making the total density                ... o.k.
o.k.
Initializing the integrals              ... done
Making exponents                        ... done
Making rho(0)                           ... done (         0.010394369)
Integral calculation                    ... Two index integrals                     ... done
Solving the equation system             ... done
atomic density will be written to file 82_Pb_atom82.adf

-------
TIMINGS
-------

Total SCF time: 0 days 0 hours 0 min 0 sec 

Total time                  ....       0.895 sec
Sum of individual times     ....       0.458 sec  ( 51.2%)

Fock matrix formation       ....       0.275 sec  ( 30.7%)
Diagonalization             ....       0.099 sec  ( 11.0%)
Density matrix formation    ....       0.001 sec  (  0.1%)
Population analysis         ....       0.000 sec  (  0.0%)
Initial guess               ....       0.000 sec  (  0.0%)
Orbital Transformation      ....       0.000 sec  (  0.0%)
Orbital Orthonormalization  ....       0.000 sec  (  0.0%)
DIIS solution               ....       0.084 sec  (  9.3%)

-------------------------   --------------------
FINAL SINGLE POINT ENERGY      -174.383137134398
-------------------------   --------------------


                            ***************************************
                            *     ORCA property calculations      *
                            ***************************************

                                    ---------------------
                                    Active property flags
                                    ---------------------
   (+) Dipole Moment


------------------------------------------------------------------------------
                       ORCA ELECTRIC PROPERTIES CALCULATION
------------------------------------------------------------------------------

Dipole Moment Calculation                       ... on
Quadrupole Moment Calculation                   ... off
Polarizability Calculation                      ... off
GBWName                                         ... 82_Pb_atom82.gbw
Electron density file                           ... 82_Pb_atom82.scfp
The origin for moment calculation is the CENTER OF MASS  = ( 0.000000,  0.000000  0.000000)

-------------
DIPOLE MOMENT
-------------
                                X             Y             Z
Electronic contribution:      0.00000       0.00000      -0.00000
Nuclear contribution   :      0.00000       0.00000       0.00000
                        -----------------------------------------
Total Dipole Moment    :      0.00000       0.00000      -0.00000
                        -----------------------------------------
Magnitude (a.u.)       :      0.00000
Magnitude (Debye)      :      0.00000



--------------------
Rotational spectrum 
--------------------
 
Rotational constants in cm-1:     0.000000     0.000000     0.000000 
Rotational constants in MHz :     0.000000     0.000000     0.000000 

 Dipole components along the rotational axes: 
x,y,z [a.u.] :     0.000000     0.000000    -0.000000 
x,y,z [Debye]:     0.000000     0.000000    -0.000000 

 

Timings for individual modules:

Sum of individual times         ...        1.404 sec (=   0.023 min)
GTO integral calculation        ...        0.373 sec (=   0.006 min)  26.6 %
SCF iterations                  ...        1.031 sec (=   0.017 min)  73.4 %
                             ****ORCA TERMINATED NORMALLY****
TOTAL RUN TIME: 0 days 0 hours 0 minutes 1 seconds 752 msec
