
                                 *****************
                                 * O   R   C   A *
                                 *****************

           --- An Ab Initio, DFT and Semiempirical electronic structure package ---

                  #######################################################
                  #                        -***-                        #
                  #          Department of theory and spectroscopy      #
                  #               Directorship: Frank Neese             #
                  #        Max Planck Institute fuer Kohlenforschung    #
                  #                Kaiser Wilhelm Platz 1               #
                  #                 D-45470 Muelheim/Ruhr               #
                  #                      Germany                        #
                  #                                                     #
                  #                  All rights reserved                #
                  #                        -***-                        #
                  #######################################################


                         Program Version 4.2.0 -  RELEASE  -


 With contributions from (in alphabetic order):
   Daniel Aravena         : Magnetic Suceptibility
   Michael Atanasov       : Ab Initio Ligand Field Theory (pilot matlab implementation)
   Alexander A. Auer      : GIAO ZORA, VPT2
   Ute Becker             : Parallelization
   Giovanni Bistoni       : ED, misc. LED, open-shell LED, HFLED
   Martin Brehm           : Molecular dynamics
   Dmytro Bykov           : SCF Hessian
   Vijay G. Chilkuri      : MRCI spin determinant printing, contributions to CSF-ICE
   Dipayan Datta          : RHF DLPNO-CCSD density
   Achintya Kumar Dutta   : EOM-CC, STEOM-CC
   Dmitry Ganyushin       : Spin-Orbit,Spin-Spin,Magnetic field MRCI
   Miquel Garcia          : C-PCM Hessian, Gaussian charge scheme
   Yang Guo               : DLPNO-NEVPT2, CIM, IAO-localization
   Andreas Hansen         : Spin unrestricted coupled pair/coupled cluster methods
   Benjamin Helmich-Paris : CASSCF linear response (MC-RPA)
   Lee Huntington         : MR-EOM, pCC
   Robert Izsak           : Overlap fitted RIJCOSX, COSX-SCS-MP3, EOM
   Christian Kollmar      : KDIIS, OOCD, Brueckner-CCSD(T), CCSD density
   Simone Kossmann        : Meta GGA functionals, TD-DFT gradient, OOMP2, MP2 Hessian
   Martin Krupicka        : AUTO-CI
   Lucas Lang             : DCDCAS
   Dagmar Lenk            : GEPOL surface, SMD
   Dimitrios Liakos       : Extrapolation schemes; Compound Job, initial MDCI parallelization
   Dimitrios Manganas     : Further ROCIS development; embedding schemes
   Dimitrios Pantazis     : SARC Basis sets
   Taras Petrenko         : DFT Hessian,TD-DFT gradient, ASA, ECA, R-Raman, ABS, FL, XAS/XES, NRVS
   Peter Pinski           : DLPNO-MP2, DLPNO-MP2 Gradient
   Christoph Reimann      : Effective Core Potentials
   Marius Retegan         : Local ZFS, SOC
   Christoph Riplinger    : Optimizer, TS searches, QM/MM, DLPNO-CCSD(T), (RO)-DLPNO pert. Triples
   Tobias Risthaus        : Range-separated hybrids, TD-DFT gradient, RPA, STAB
   Michael Roemelt        : Original ROCIS implementation
   Masaaki Saitow         : Open-shell DLPNO-CCSD energy and density
   Barbara Sandhoefer     : DKH picture change effects
   Avijit Sen             : IP-ROCIS
   Kantharuban Sivalingam : CASSCF convergence, NEVPT2, FIC-MRCI
   Bernardo de Souza      : ESD, SOC TD-DFT
   Georgi Stoychev        : AutoAux, RI-MP2 NMR
   Willem Van den Heuvel  : Paramagnetic NMR
   Boris Wezisla          : Elementary symmetry handling
   Frank Wennmohs         : Technical directorship


 We gratefully acknowledge several colleagues who have allowed us to
 interface, adapt or use parts of their codes:
   Stefan Grimme, W. Hujo, H. Kruse,             : VdW corrections, initial TS optimization,
                  C. Bannwarth                     DFT functionals, gCP, sTDA/sTD-DF
   Ed Valeev, F. Pavosevic, A. Kumar             : LibInt (2-el integral package), F12 methods
   Garnet Chan, S. Sharma, J. Yang, R. Olivares  : DMRG
   Ulf Ekstrom                                   : XCFun DFT Library
   Mihaly Kallay                                 : mrcc  (arbitrary order and MRCC methods)
   Andreas Klamt, Michael Diedenhofen            : otool_cosmo (COSMO solvation model)
   Jiri Pittner, Ondrej Demel                    : Mk-CCSD
   Frank Weinhold                                : gennbo (NPA and NBO analysis)
   Christopher J. Cramer and Donald G. Truhlar   : smd solvation model
   Lars Goerigk                                  : TD-DFT with DH, B97 family of functionals
   V. Asgeirsson, H. Jonsson                     : NEB implementation
   FAccTs GmbH                                   : IRC, NEB, NEB-TS, Multilevel, MM, QM/MM, CI optimization
   S Lehtola, MJT Oliveira, MAL Marques          : LibXC Library


 Your calculation uses the libint2 library for the computation of 2-el integrals
 For citations please refer to: http://libint.valeyev.net

 Your ORCA version has been built with support for libXC version: 4.2.3
 For citations please refer to: https://tddft.org/programs/libxc/

 This ORCA versions uses:
   CBLAS   interface :  Fast vector & matrix operations
   LAPACKE interface :  Fast linear algebra routines
   SCALAPACK package :  Parallel linear algebra routines


----- Orbital basis set information -----
Your calculation utilizes the basis: def2-SVP
   F. Weigend and R. Ahlrichs, Phys. Chem. Chem. Phys. 7, 3297 (2005).

----- AuxJ basis set information -----
Your calculation utilizes the auxiliary basis: def2/J
   F. Weigend, Phys. Chem. Chem. Phys. 8, 1057 (2006).

================================================================================
                                        WARNINGS
                       Please study these warnings very carefully!
================================================================================


INFO   : the flag for use of LIBINT has been found!

================================================================================
                                       INPUT FILE
================================================================================
NAME = 85_At_atom85.inp
|  1> # input to generate an atomic fitting density for At
|  2> # this file is use internally by ORCA
|  3> #
|  4> # atomic ground state (S=2): 1s2 2s2 2p6 3s2 3p6 4s2 3d10 4p6 5s2 4d10 5p6 6s2 4f14 5d10 6p5 
|  5> #
|  6> ! RHF AllowRHF def2-SVP def2/J  NoMulliken NoLoewdin NoMayer NoPrintMOs 
|  7> 
|  8> %output print[p_atomdensfit] 2 end
|  9> 
| 10> %scf
| 11>   guess hcore
| 12>   maxiter 1000
| 13>   maxdisk 500000
| 14>   SCFMode Conventional
| 15>   lshift 1.000000
| 16>   hftyp rohf
| 17>   rohf_case sahf
| 18>   rohf_numop   2
| 19>   rohf_norb[1] 3
| 20>   rohf_nel[1]  5
| 21> end
| 22> 
| 23> %basis
| 24>   NewECP 85
| 25>     N_core 60
| 26>     lmax f
| 27>     s 7
| 28>       1      30.2008320000     49.9571580000  2
| 29>       2      13.6123060000    283.2103710000  2
| 30>       3       8.5293400000     62.2810520000  2
| 31>       4       5.8121630000    -19.8701980000  2
| 32>       5       5.7537150000    -26.4164520000  2
| 33>       6       2.5134720000     -0.9949700000  2
| 34>       7       2.5362610000     -1.4907010000  2
| 35>     p 8
| 36>       1      10.8540650000     71.9823710000  2
| 37>       2       9.4682290000    143.9035320000  2
| 38>       3       7.0311140000      4.8717590000  2
| 39>       4       6.1438580000      8.9830590000  2
| 40>       5       5.8121630000    -19.8701980000  2
| 41>       6       5.7537150000    -26.4164520000  2
| 42>       7       2.5134720000     -0.9949700000  2
| 43>       8       2.5362610000     -1.4907010000  2
| 44>     d 8
| 45>       1       8.3135150000     36.3632370000  2
| 46>       2       7.9989650000     54.5489700000  2
| 47>       3       5.1799660000      9.7762850000  2
| 48>       4       4.9422260000     14.2647550000  2
| 49>       5       5.8121630000    -19.8701980000  2
| 50>       6       5.7537150000    -26.4164520000  2
| 51>       7       2.5134720000     -0.9949700000  2
| 52>       8       2.5362610000     -1.4907010000  2
| 53>     f 4
| 54>       1       5.8121630000     19.8701980000  2
| 55>       2       5.7537150000     26.4164520000  2
| 56>       3       2.5134720000      0.9949700000  2
| 57>       4       2.5362610000      1.4907010000  2
| 58>   end
| 59>   NewGTO 85
| 60>     s 9 
| 61>      1    9090.2800000000      0.0000868503
| 62>      2    1373.0700000000      0.0006005080
| 63>      3     307.9500000000      0.0020223720
| 64>      4      48.0176000000      0.0210053728
| 65>      5      23.9099000000     -0.3655977072
| 66>      6      14.9334000000      1.5692986229
| 67>      7       9.3317100000     -1.5295732817
| 68>      8       5.8320600000     -1.5366503430
| 69>      9       2.2878700000      1.9482365409
| 70>     s 1 
| 71>      1       1.2537238008      1.0000000000
| 72>     s 3 
| 73>      1      14.8057808760      0.3597476959
| 74>      2      11.8557836280     -0.6388515448
| 75>      3       2.5818782360      1.1943198423
| 76>     s 1 
| 77>      1       0.6146069198      1.0000000000
| 78>     s 1 
| 79>      1       0.3148671664      1.0000000000
| 80>     s 1 
| 81>      1       0.1544166915      1.0000000000
| 82>     s 1 
| 83>      1       0.0728664246      1.0000000000
| 84>     p 7 
| 85>      1     124.6020000000      0.0005140380
| 86>      2      20.8899000000     -0.0177101479
| 87>      3      13.0585000000      0.1880368689
| 88>      4       8.1606100000     -0.4490967942
| 89>      5       5.0980800000     -0.0180209871
| 90>      6       2.3787600000      0.6460315736
| 91>      7       1.2375500000      0.5502810067
| 92>     p 3 
| 93>      1       8.7977584321     -0.4996091715
| 94>      2       8.0996431502      0.5992471358
| 95>      3       0.6762971977      0.9653695793
| 96>     p 1 
| 97>      1       0.6078501793      1.0000000000
| 98>     p 1 
| 99>      1       0.2611656142      1.0000000000
|100>     p 1 
|101>      1       0.1194861126      1.0000000000
|102>     p 1 
|103>      1       0.0528990861      1.0000000000
|104>   end
|105>   NewAuxGTO 85
|106>     S 1
|107>      1 1310.72 1.0
|108>     S 1
|109>      1  655.36 1.0
|110>     S 1
|111>      1  327.68 1.0
|112>     S 1
|113>      1  163.84 1.0
|114>     S 1
|115>      1   81.82 1.0
|116>     S 1
|117>      1   40.96 1.0
|118>     S 1
|119>      1   20.48 1.0
|120>     S 1
|121>      1   10.24 1.0
|122>     S 1
|123>      1    5.12 1.0
|124>     S 1
|125>      1    2.56 1.0
|126>     S 1
|127>      1    1.28 1.0
|128>     S 1
|129>      1    0.64 1.0
|130>     S 1
|131>      1    0.32 1.0
|132>     S 1
|133>      1    0.16 1.0
|134>     S 1
|135>      1    0.08 1.0
|136>     S 1
|137>      1    0.04 1.0
|138>     S 1
|139>      1    0.02 1.0
|140>     S 1
|141>      1    0.01 1.0
|142>   end
|143> end
|144> 
|145> * xyz 0 2
|146> 85  0.0 0.0 0.0
|147> *
|148> 
|149> 
|150>                          ****END OF INPUT****
================================================================================

                       ****************************
                       * Single Point Calculation *
                       ****************************

---------------------------------
CARTESIAN COORDINATES (ANGSTROEM)
---------------------------------
  At     0.000000    0.000000    0.000000

----------------------------
CARTESIAN COORDINATES (A.U.)
----------------------------
  NO LB      ZA    FRAG     MASS         X           Y           Z
   0 At   25.0000*   0   210.000    0.000000    0.000000    0.000000
* core charge reduced due to ECP

--------------------------------
INTERNAL COORDINATES (ANGSTROEM)
--------------------------------
 At     0   0   0     0.000000000000     0.00000000     0.00000000

---------------------------
INTERNAL COORDINATES (A.U.)
---------------------------
 At     0   0   0     0.000000000000     0.00000000     0.00000000

---------------------
BASIS SET INFORMATION
---------------------
There are 1 groups of distinct atoms

 Group   1 Type At  : 17s14p contracted to 7s6p pattern {9131111/731111}

Atom   0At   basis set group =>   1
---------------------------------
AUXILIARY/J BASIS SET INFORMATION
---------------------------------
There are 1 groups of distinct atoms

 Group   1 Type At  : 18s contracted to 18s pattern {111111111111111111}

Atom   0At   basis set group =>   1
-------------------------
ECP PARAMETER INFORMATION
-------------------------

 Group 1, Type At ECP (replacing 60 core electrons, lmax=3)

Atom   0At   ECP group =>   1

------------------------------------------------------------------------------
                           ORCA GTO INTEGRAL CALCULATION
------------------------------------------------------------------------------

                         BASIS SET STATISTICS AND STARTUP INFO

 # of primitive gaussian shells          ...   31
 # of primitive gaussian functions       ...   59
 # of contracted shells                  ...   13
 # of contracted basis functions         ...   25
 Highest angular momentum                ...    1
 Maximum contraction depth               ...    9
 Integral package used                   ... LIBINT
 Integral threshhold            Thresh   ...  1.000e-10
 Primitive cut-off              TCut     ...  1.000e-11
 Storage cut-off                TCutStore... -1.000e+00
 Buffer length                           ... 1048576 integrals/buffer
 Generate file with integrals 4 distinct ...false


------------------------------ INTEGRAL EVALUATION ----------------------------


 * One electron integrals 

   ECP integrals                         ... done
 Pre-screening matrix                    ... done
 Shell pair data                         ... done (   0.000 sec)
 Statistics run                          ... done
 Maximum amount of storage needed        ...     0 MB
 Maximum amount of storage dedicated     ... 500000 MB
 Beginning two electron integral evaluation:
 Starting repulsion integrals
  <ss|ss>  ...          406 b.         0 skpd (  0.0%)     0.000 s. (  0.001 ms/b)
  <ss|sp>  ...         1176 b.         0 skpd (  0.0%)     0.001 s. (  0.001 ms/b)
  <ss|pp>  ...          588 b.         0 skpd (  0.0%)     0.003 s. (  0.005 ms/b)
  <sp|sp>  ...          903 b.         0 skpd (  0.0%)     0.003 s. (  0.003 ms/b)
  <sp|pp>  ...          882 b.         0 skpd (  0.0%)     0.005 s. (  0.006 ms/b)
  <pp|pp>  ...          231 b.         0 skpd (  0.0%)     0.004 s. (  0.016 ms/b)


                                      INTEGRAL STATISTICS

Integral type statistics:
 Number of integrals retained            ...      52975 
 One   Center Integrals retained         ...      52975 (100.0%)
 Two   Center Integrals retained         ...          0 (  0.0%)
 Three Center Integrals retained         ...          0 (  0.0%)
 Four  Center Integrals retained         ...          0 (  0.0%)

Storage statistics:
 Number of char integrals                ...          0 (  0.0%)
 Number of short int integrals           ...          0 (  0.0%)
 Number of double/float integrals        ...      52975 (100.0%)
 Amount of memory used                   ...          0 MB
 Amount of memory estimated              ...          0 MB ( 95.8%)

Prescreening statistics:
 Total number of shell quadruples        ...       4186 
 Number of skipped shell quadruples      ...          0 (  0.0%)
 # of negligible batches done            ...          0 (  0.0%)

Timings:
 Total evaluation time               ...     0.232 sec (   0.004 min)
 One electron matrix time            ...     0.024 sec (   0.000 min) = 10.4%
 Schwartz matrix evaluation time     ...     0.088 sec (   0.001 min) = 38.1%
 Statistics run                      ...     0.001 sec (   0.000 min) =  0.3%
 Repulsion integral time             ...     0.016 sec (   0.000 min) =  7.0%

-------------------------------------------------------------------------------
                                 ORCA SCF
-------------------------------------------------------------------------------

------------
SCF SETTINGS
------------
Hamiltonian:
 Ab initio Hamiltonian  Method          .... Hartree-Fock(GTOs)


General Settings:
 Integral files         IntName         .... 85_At_atom85
 Hartree-Fock type      HFTyp           .... ROHF
 Total Charge           Charge          ....    0
 Multiplicity           Mult            ....    2
 Number of Electrons    NEL             ....   25
 Basis Dimension        Dim             ....   25
 Nuclear Repulsion      ENuc            ....      0.0000000000 Eh

Convergence Acceleration:
 DIIS                   CNVDIIS         .... on
   Start iteration      DIISMaxIt       ....    12
   Startup error        DIISStart       ....  0.200000
   # of expansion vecs  DIISMaxEq       ....     5
   Bias factor          DIISBfac        ....   1.050
   Max. coefficient     DIISMaxC        ....  10.000
 Newton-Raphson         CNVNR           .... off
 SOSCF                  CNVSOSCF        .... off
 Level Shifting         CNVShift        .... on
   Level shift para.    LevelShift      ....    1.0000
   Turn off err/grad.   ShiftErr        ....    0.0010
 Zerner damping         CNVZerner       .... off
 Static damping         CNVDamp         .... on
   Fraction old density DampFac         ....    0.7000
   Max. Damping (<1)    DampMax         ....    0.9800
   Min. Damping (>=0)   DampMin         ....    0.0000
   Turn off err/grad.   DampErr         ....    0.1000
 Fernandez-Rico         CNVRico         .... off

SCF Procedure:
 Maximum # iterations   MaxIter         ....  1000
 SCF integral mode      SCFMode         .... Conventional
 Integral Threshold     Thresh          ....  1.000e-10 Eh
 Primitive CutOff       TCut            ....  1.000e-11 Eh
 Integral Buffer length BufferLength    .... 1048576
 Integral index format  IndFormat       ....     0
 Integral value format  ValFormat       ....     0
 Integral Storage       Thresh          ....  1.000e-10 Eh

Convergence Tolerance:
 Convergence Check Mode ConvCheckMode   .... Total+1el-Energy
 Convergence forced     ConvForced      .... 0
 Energy Change          TolE            ....  1.000e-06 Eh
 1-El. energy change                    ....  1.000e-03 Eh
 DIIS Error             TolErr          ....  1.000e-06


Diagonalization of the overlap matrix:
Smallest eigenvalue                        ... 8.841e-04
Time for diagonalization                   ...    0.001 sec
Threshold for overlap eigenvalues          ... 1.000e-08
Number of eigenvalues below threshold      ... 0
Time for construction of square roots      ...    0.002 sec
Total time needed                          ...    0.002 sec

--------------------
INITIAL GUESS: HCORE
--------------------
AVERAGE-CONFIGURATION (SAHF) CASE FOUND

-------------------
FINAL ROHF SETTINGS
-------------------
Number of operators             ... 2
  operator   0:  10 orbitals  20 electrons n(mue)= 2.000
  operator   1:   3 orbitals   5 electrons n(mue)= 1.667
Vector coupling coefficients a and b (Zerner convention):
   1.000    1.000           1.000    1.000 
   1.000    0.960           1.000    0.960 

                      -----------------
                      INTIAL GUESS DONE 
                      -----------------

 InCore treatment chosen:
   Memory dedicated               ...    1024 MB
   Memory needed                  ...      0 MB
   Number of tiny    integrals    ...       0
   Number of small   integrals    ...       0
   Number of regular integrals    ...   52975

--------------
SCF ITERATIONS
--------------
ITER       Energy         Delta-E        Max-DP      RMS-DP      [F,P]     Damp
  0   -222.5391476617   0.00000000000018.34079054  1.18852216  2.6505941 0.7000
  1   -226.0304347308  -3.49128706911515.12178680  1.02879622  0.8420424 0.7000
  2   -228.2279786598  -2.19754392903510.61367685  0.73850704  0.4935287 0.7000
  3   -229.5295589431  -1.301580283286 7.78862593  0.54159220  0.2838506 0.7000
                            ****Activating DIIS****
  4   -230.2769135987  -0.747354655546 6.78262252  0.42700691  0.1403524 0.7000
  5   -230.7889468492  -0.51203325051017.80159693  1.02649927  0.0728182 0.0000
  6   -231.7436787462  -0.954731896975 6.09449775  0.30364052  0.0693570 0.0000
  7   -231.7872207544  -0.043542008238 4.73550172  0.23484076  0.0297761 0.0000
  8   -231.7958185357  -0.008597781290 1.32726521  0.07980917  0.0404705 0.0000
  9   -231.8055748626  -0.009756326919 2.22742503  0.13378661  0.0248616 0.0000
 10   -231.8154750761  -0.009900213520 0.92336068  0.06344253  0.0142968 0.0000
 11   -231.8185629868  -0.003087910657 0.20877635  0.01328779  0.0145389 0.0000
 12   -231.8198528825  -0.001289895701 0.26470423  0.01678129  0.0114151 0.0000
 13   -231.8209977175  -0.001144835025 0.16885240  0.01043848  0.0064993 0.0000
 14   -231.8213867538  -0.000389036337 0.16429026  0.01014530  0.0051399 0.0000
 15   -231.8215583382  -0.000171584317 0.12800144  0.00761333  0.0043724 0.0000
 16   -231.8216709473  -0.000112609127 0.11134721  0.00619555  0.0037550 0.0000
 17   -231.8217678691  -0.000096921775 0.12936949  0.00733832  0.0030764 0.0000
 18   -231.8218624286  -0.000094559509 0.04959549  0.00312221  0.0021175 0.0000
 19   -231.8218917469  -0.000029318306 0.03932552  0.00201686  0.0016865 0.0000
 20   -231.8219057350  -0.000013988128 0.06518205  0.00366434  0.0014482 0.0000
 21   -231.8219266310  -0.000020895953 0.08201656  0.00516216  0.0009854 0.0000
 22   -231.8219427339  -0.000016102975 0.03641245  0.00198233  0.0003435 0.0000
 23   -231.8219444585  -0.000001724555 0.02213860  0.00114607  0.0002177 0.0000
                 **** Energy Check signals convergence ****

               *****************************************************
               *                     SUCCESS                       *
               *           SCF CONVERGED AFTER  24 CYCLES          *
               *****************************************************


----------------
TOTAL SCF ENERGY
----------------

Total Energy       :         -231.82194465 Eh           -6308.19582 eV

Components:
Nuclear Repulsion  :            0.00000000 Eh               0.00000 eV
Electronic Energy  :         -231.82194465 Eh           -6308.19582 eV
One Electron Energy:         -366.57341897 Eh           -9974.96985 eV
Two Electron Energy:          134.75147431 Eh            3666.77403 eV

Virial components:
Potential Energy   :         -295.05056839 Eh           -8028.73414 eV
Kinetic Energy     :           63.22862374 Eh            1720.53832 eV
Virial Ratio       :            4.66640820


---------------
SCF CONVERGENCE
---------------

  Last Energy change         ...   -1.9426e-07  Tolerance :   1.0000e-06
  Last MAX-Density change    ...    9.7960e-03  Tolerance :   1.0000e-05
  Last RMS-Density change    ...    5.0329e-04  Tolerance :   1.0000e-06
  Last DIIS Error            ...    7.7782e-05  Tolerance :   1.0000e-06

             **** THE GBW FILE WAS UPDATED (85_At_atom85.gbw) ****
             **** DENSITY FILE WAS UPDATED (85_At_atom85.scfp) ****
             **** ENERGY FILE WAS UPDATED (85_At_atom85.en.tmp) ****
             **** THE GBW FILE WAS UPDATED (85_At_atom85.gbw) ****
             **** DENSITY FILE WAS UPDATED (85_At_atom85.scfp) ****
----------------
ORBITAL ENERGIES
----------------

  NO   OCC          E(Eh)            E(eV) 
   0   2.0000     -11.673059      -317.6401 
   1   2.0000      -8.606536      -234.1957 
   2   2.0000      -8.606536      -234.1957 
   3   2.0000      -8.603615      -234.1163 
   4   2.0000      -3.191590       -86.8476 
   5   2.0000      -2.104415       -57.2641 
   6   2.0000      -2.104415       -57.2641 
   7   2.0000      -2.099560       -57.1319 
   8   2.0000      -0.660599       -17.9758 
   9   2.0000      -0.334453        -9.1009 
  10   1.6667      -0.341570        -9.2946 
  11   1.6667      -0.341570        -9.2946 
  12   1.6667       0.023135         0.6295 
  13   0.0000       0.153698         4.1823 
  14   0.0000       0.153698         4.1823 
  15   0.0000       0.157822         4.2946 
  16   0.0000       0.972601        26.4658 
  17   0.0000       0.972601        26.4658 
  18   0.0000       0.979656        26.6578 
  19   0.0000       1.247082        33.9348 
  20   0.0000      11.441579       311.3412 
  21   0.0000      30.830619       838.9438 
  22   0.0000      30.830619       838.9438 
  23   0.0000      30.832265       838.9886 
  24   0.0000      81.656988      2221.9996 
CleanUpVectors: The p-vectors have cracked symmetry
CleanUpVectors: The p-vectors have cracked symmetry
CleanUpVectors: The p-vectors have cracked symmetry
CleanUpVectors: The p-vectors have cracked symmetry
CleanUpVectors: The p-vectors have cracked symmetry
CleanUpVectors: The p-vectors have cracked symmetry
CleanUpVectors: The p-vectors have cracked symmetry
CleanUpVectors: The p-vectors have cracked symmetry
CleanUpVectors: The p-vectors have cracked symmetry
CleanUpVectors: The p-vectors have cracked symmetry
CleanUpVectors: The p-vectors have cracked symmetry
CleanUpVectors: The p-vectors have cracked symmetry
CleanUpVectors: The p-vectors have cracked symmetry
CleanUpVectors: The p-vectors have cracked symmetry
CleanUpVectors: The p-vectors have cracked symmetry
CleanUpVectors: The p-vectors have cracked symmetry
CleanUpVectors: The p-vectors have cracked symmetry
--------------------------
ATOM BASIS FOR ELEMENT At
--------------------------
 NewGTO At
 S 17
    1       9090.280000000001         0.000037323231
    2       1373.070000000000         0.000258063576
    3        307.950000000000         0.000869098412
    4         48.017600000000         0.009026893247
    5         23.909900000000        -0.157112730427
    6         14.933400000000         0.674393702813
    7          9.331710000000        -0.657322050830
    8          5.832060000000        -0.660363362092
    9          2.287870000000         0.837239283588
   10          1.253723800800         0.734257846978
   11         14.805780876000         0.028731089887
   12         11.855783628000        -0.051021594766
   13          2.581878236000         0.095383823536
   14          0.614606919800        -0.179384671665
   15          0.314867166400         0.129282015173
   16          0.154416691500        -0.057963006449
   17          0.072866424600         0.014491126544
 P 31
    1        124.602000000000        -0.000524539970
    2         20.889900000000         0.018071972199
    3         13.058500000000        -0.191878525596
    4          8.160610000000         0.458271993281
    5          5.098080000000         0.018389161949
    6          2.378760000000        -0.659230216692
    7          1.237550000000        -0.561523433393
    8        124.602000000000        -0.000077936509
    9         20.889900000000         0.002685146050
   10         13.058500000000        -0.028509443204
   11          8.160610000000         0.068090367715
   12          5.098080000000         0.002732274321
   13          2.378760000000        -0.097948878661
   14          1.237550000000        -0.083431537648
   15        124.602000000000        -0.000071428286
   16         20.889900000000         0.002460918265
   17         13.058500000000        -0.026128712638
   18          8.160610000000         0.062404363308
   19          5.098080000000         0.002504111008
   20          2.378760000000        -0.089769487442
   21          1.237550000000        -0.076464442203
   22          8.797758432100         0.086340080297
   23          8.099643150200        -0.103559039294
   24          0.676297197700        -0.166830578276
   25          8.797758432100         0.012828468469
   26          8.099643150200        -0.015386873231
   27          0.676297197700        -0.024787801977
   28          8.797758432100         0.011757204930
   29          8.099643150200        -0.014101965659
   30          0.676297197700        -0.022717853524
   31          0.607850179300         0.287174172516
 S 17
    1       9090.280000000001         0.000025536308
    2       1373.070000000000         0.000176565394
    3        307.950000000000         0.000594631393
    4         48.017600000000         0.006176140735
    5         23.909900000000        -0.107495492395
    6         14.933400000000         0.461415716950
    7          9.331710000000        -0.449735405426
    8          5.832060000000        -0.451816250503
    9          2.287870000000         0.572833587687
   10          1.253723800800         1.409782603810
   11         14.805780876000         0.120249164923
   12         11.855783628000        -0.213542339945
   13          2.581878236000         0.399213018804
   14          0.614606919800        -1.999102565484
   15          0.314867166400        -0.024362764411
   16          0.154416691500        -0.185577300750
   17          0.072866424600         0.048242790147
 P 31
    1        124.602000000000         0.000478372614
    2         20.889900000000        -0.016481368592
    3         13.058500000000         0.174990348062
    4          8.160610000000        -0.417937209816
    5          5.098080000000        -0.016770640904
    6          2.378760000000         0.601208106605
    7          1.237550000000         0.512100980290
    8        124.602000000000         0.000007252576
    9         20.889900000000        -0.000249872965
   10         13.058500000000         0.002653017363
   11          8.160610000000        -0.006336319040
   12          5.098080000000        -0.000254258603
   13          2.378760000000         0.009114877267
   14          1.237550000000         0.007763929881
   15        124.602000000000         0.000034262676
   16         20.889900000000        -0.001180451748
   17         13.058500000000         0.012533404684
   18          8.160610000000        -0.029934086315
   19          5.098080000000        -0.001201170416
   20          2.378760000000         0.043060572100
   21          1.237550000000         0.036678416245
   22          8.797758432100        -0.506283538221
   23          8.099643150200         0.607252583596
   24          0.676297197700         0.978266121159
   25          8.797758432100        -0.007675732018
   26          8.099643150200         0.009206517192
   27          0.676297197700         0.014831429468
   28          8.797758432100        -0.036261751232
   29          8.099643150200         0.043493498127
   30          0.676297197700         0.070066751230
   31          0.607850179300        -2.269459665090
 S 17
    1       9090.280000000001         0.000008627231
    2       1373.070000000000         0.000059651161
    3        307.950000000000         0.000200891308
    4         48.017600000000         0.002086558167
    5         23.909900000000        -0.036316464796
    6         14.933400000000         0.155885491267
    7          9.331710000000        -0.151939394433
    8          5.832060000000        -0.152642390766
    9          2.287870000000         0.193527099209
   10          1.253723800800         0.564843730635
   11         14.805780876000         0.077686889766
   12         11.855783628000        -0.137958880914
   13          2.581878236000         0.257911294475
   14          0.614606919800        -0.711239340743
   15          0.314867166400        -2.889425048596
   16          0.154416691500         6.016405614322
   17          0.072866424600        -3.478097255418
 S 17
    1       9090.280000000001        -0.000024784464
    2       1373.070000000000        -0.000171366929
    3        307.950000000000        -0.000577124167
    4         48.017600000000        -0.005994301875
    5         23.909900000000         0.104330594020
    6         14.933400000000        -0.447830646355
    7          9.331710000000         0.436494228311
    8          5.832060000000         0.438513808835
    9          2.287870000000        -0.555968135467
   10          1.253723800800        -3.783486136746
   11         14.805780876000        -0.080747697475
   12         11.855783628000         0.143394361823
   13          2.581878236000        -0.268072814401
   14          0.614606919800        12.479850630315
   15          0.314867166400       -15.755277412587
   16          0.154416691500        10.012750577618
   17          0.072866424600        -2.887933146743
 S 17
    1       9090.280000000001         0.000047701040
    2       1373.070000000000         0.000329818738
    3        307.950000000000         0.001110753198
    4         48.017600000000         0.011536841394
    5         23.909900000000        -0.200798281563
    6         14.933400000000         0.861910401875
    7          9.331710000000        -0.840091938328
    8          5.832060000000        -0.843978893086
    9          2.287870000000         1.070035565833
   10          1.253723800800        12.668203336066
   11         14.805780876000        -2.106519311313
   12         11.855783628000         3.740824837853
   13          2.581878236000        -6.993395205478
   14          0.614606919800       -14.502984295199
   15          0.314867166400        10.609346246572
   16          0.154416691500        -4.832960853550
   17          0.072866424600         1.192530568607
 P 31
    1        124.602000000000        -0.000027815256
    2         20.889900000000         0.000958318830
    3         13.058500000000        -0.010174916278
    4          8.160610000000         0.024301203847
    5          5.098080000000         0.000975138738
    6          2.378760000000        -0.034957597481
    7          1.237550000000        -0.029776411432
    8        124.602000000000        -0.000209326976
    9         20.889900000000         0.007211940956
   10         13.058500000000        -0.076572528007
   11          8.160610000000         0.182881564945
   12          5.098080000000         0.007338521150
   13          2.378760000000        -0.263077507365
   14          1.237550000000        -0.224085882964
   15        124.602000000000         0.000432663713
   16         20.889900000000        -0.014906560098
   17         13.058500000000         0.158269874574
   18          8.160610000000        -0.378002961363
   19          5.098080000000        -0.015168192199
   20          2.378760000000         0.543762171338
   21          1.237550000000         0.463169305150
   22          8.797758432100         0.029482966385
   23          8.099643150200        -0.035362807909
   24          0.676297197700        -0.056968447498
   25          8.797758432100         0.221877527788
   26          8.099643150200        -0.266126966056
   27          0.676297197700        -0.428722745448
   28          8.797758432100        -0.458604794797
   29          8.099643150200         0.550065181793
   30          0.676297197700         0.886138892305
   31          0.607850179300         0.132303317339
 P 31
    1        124.602000000000         0.000024145811
    2         20.889900000000        -0.000831895462
    3         13.058500000000         0.008832620640
    4          8.160610000000        -0.021095339637
    5          5.098080000000        -0.000846496453
    6          2.378760000000         0.030345920160
    7          1.237550000000         0.025848246707
    8        124.602000000000         0.000217469253
    9         20.889900000000        -0.007492466770
   10         13.058500000000         0.079551000910
   11          8.160610000000        -0.189995183887
   12          5.098080000000        -0.007623970605
   13          2.378760000000         0.273310540641
   14          1.237550000000         0.232802243097
   15        124.602000000000         0.000106766067
   16         20.889900000000        -0.003678410625
   17         13.058500000000         0.039055394702
   18          8.160610000000        -0.093277731434
   19          5.098080000000        -0.003742972153
   20          2.378760000000         0.134181228631
   21          1.237550000000         0.114293766108
   22          8.797758432100        -0.030802560563
   23          8.099643150200         0.036945571149
   24          0.676297197700         0.059518232706
   25          8.797758432100        -0.277423272584
   26          8.099643150200         0.332750299601
   27          0.676297197700         0.536050983888
   28          8.797758432100        -0.136200365632
   29          8.099643150200         0.163363051872
   30          0.676297197700         0.263173090429
   31          0.607850179300        -0.158559769123
 P 31
    1        124.602000000000        -0.000009058773
    2         20.889900000000         0.000312101863
    3         13.058500000000        -0.003313730490
    4          8.160610000000         0.007914329507
    5          5.098080000000         0.000317579711
    6          2.378760000000        -0.011384865828
    7          1.237550000000        -0.009697475611
    8        124.602000000000        -0.000068172864
    9         20.889900000000         0.002348759241
   10         13.058500000000        -0.024937868165
   11          8.160610000000         0.059560216635
   12          5.098080000000         0.002389983428
   13          2.378760000000        -0.085678145499
   14          1.237550000000        -0.072979492155
   15        124.602000000000         0.000140908377
   16         20.889900000000        -0.004854715394
   17         13.058500000000         0.051544768982
   18          8.160610000000        -0.123106657980
   19          5.098080000000        -0.004939922805
   20          2.378760000000         0.177090527037
   21          1.237550000000         0.150843329455
   22          8.797758432100         0.011498926525
   23          8.099643150200        -0.013792178323
   24          0.676297197700        -0.022218795201
   25          8.797758432100         0.086536522682
   26          8.099643150200        -0.103794658540
   27          0.676297197700        -0.167210153979
   28          8.797758432100        -0.178864730563
   29          8.099643150200         0.214536048575
   30          0.676297197700         0.345611288873
   31          0.607850179300         0.054729839977
 P 31
    1        124.602000000000        -0.000029637937
    2         20.889900000000         0.001021115664
    3         13.058500000000        -0.010841659440
    4          8.160610000000         0.025893616112
    5          5.098080000000         0.001039037749
    6          2.378760000000        -0.037248303214
    7          1.237550000000        -0.031727603771
    8        124.602000000000        -0.000223043780
    9         20.889900000000         0.007684525904
   10         13.058500000000        -0.081590181976
   11          8.160610000000         0.194865450471
   12          5.098080000000         0.007819400660
   13          2.378760000000        -0.280316482402
   14          1.237550000000        -0.238769810075
   15        124.602000000000         0.000461015353
   16         20.889900000000        -0.015883358994
   17         13.058500000000         0.168641002307
   18          8.160610000000        -0.402772785730
   19          5.098080000000        -0.016162135356
   20          2.378760000000         0.579393885525
   21          1.237550000000         0.493519920127
   22          8.797758432100         0.043973658507
   23          8.099643150200        -0.052743405074
   24          0.676297197700        -0.084968080322
   25          8.797758432100         0.330928933872
   26          8.099643150200        -0.396926692079
   27          0.676297197700        -0.639437271960
   28          8.797758432100        -0.684006160414
   29          8.099643150200         0.820418751055
   30          0.676297197700         1.321670571689
   31          0.607850179300         0.286813030658
 P 31
    1        124.602000000000         0.000054200140
    2         20.889900000000        -0.001867357080
    3         13.058500000000         0.019826597750
    4          8.160610000000        -0.047352742798
    5          5.098080000000        -0.001900131950
    6          2.378760000000         0.068117535772
    7          1.237550000000         0.058021600940
    8        124.602000000000         0.000407889530
    9         20.889900000000        -0.014053015338
   10         13.058500000000         0.149207393278
   11          8.160610000000        -0.356358635326
   12          5.098080000000        -0.014299666471
   13          2.378760000000         0.512626527107
   14          1.237550000000         0.436648382099
   15        124.602000000000        -0.000843078148
   16         20.889900000000         0.029046565993
   17         13.058500000000        -0.308400887016
   18          8.160610000000         0.736567517304
   19          5.098080000000         0.029556376040
   20          2.378760000000        -1.059561943911
   21          1.237550000000        -0.902520615064
   22          8.797758432100         0.296903885548
   23          8.099643150200        -0.356115966584
   24          0.676297197700        -0.573692388840
   25          8.797758432100         2.234385111108
   26          8.099643150200        -2.679992591181
   27          0.676297197700        -4.317389547171
   28          8.797758432100        -4.618312370867
   29          8.099643150200         5.539350793267
   30          0.676297197700         8.923731838538
   31          0.607850179300         0.520692684683
 end
  // -----------------------------------------------
  // The basis set
  // -----------------------------------------------
  BAS[ATNO] = new BFNGauss[NSH];
  // Basis function   1 L = s
  InitBFNGauss(BAS[ATNO][  0]);
  BAS[ATNO][  0].l  = 0;
  BAS[ATNO][  0].ng = 17;
  BAS[ATNO][  0].a[  0] =      9090.280000000001;     BAS[ATNO][  0].d[  0] =         0.000037323231;
  BAS[ATNO][  0].a[  1] =      1373.070000000000;     BAS[ATNO][  0].d[  1] =         0.000258063576;
  BAS[ATNO][  0].a[  2] =       307.950000000000;     BAS[ATNO][  0].d[  2] =         0.000869098412;
  BAS[ATNO][  0].a[  3] =        48.017600000000;     BAS[ATNO][  0].d[  3] =         0.009026893247;
  BAS[ATNO][  0].a[  4] =        23.909900000000;     BAS[ATNO][  0].d[  4] =        -0.157112730427;
  BAS[ATNO][  0].a[  5] =        14.933400000000;     BAS[ATNO][  0].d[  5] =         0.674393702813;
  BAS[ATNO][  0].a[  6] =         9.331710000000;     BAS[ATNO][  0].d[  6] =        -0.657322050830;
  BAS[ATNO][  0].a[  7] =         5.832060000000;     BAS[ATNO][  0].d[  7] =        -0.660363362092;
  BAS[ATNO][  0].a[  8] =         2.287870000000;     BAS[ATNO][  0].d[  8] =         0.837239283588;
  BAS[ATNO][  0].a[  9] =         1.253723800800;     BAS[ATNO][  0].d[  9] =         0.734257846978;
  BAS[ATNO][  0].a[ 10] =        14.805780876000;     BAS[ATNO][  0].d[ 10] =         0.028731089887;
  BAS[ATNO][  0].a[ 11] =        11.855783628000;     BAS[ATNO][  0].d[ 11] =        -0.051021594766;
  BAS[ATNO][  0].a[ 12] =         2.581878236000;     BAS[ATNO][  0].d[ 12] =         0.095383823536;
  BAS[ATNO][  0].a[ 13] =         0.614606919800;     BAS[ATNO][  0].d[ 13] =        -0.179384671665;
  BAS[ATNO][  0].a[ 14] =         0.314867166400;     BAS[ATNO][  0].d[ 14] =         0.129282015173;
  BAS[ATNO][  0].a[ 15] =         0.154416691500;     BAS[ATNO][  0].d[ 15] =        -0.057963006449;
  BAS[ATNO][  0].a[ 16] =         0.072866424600;     BAS[ATNO][  0].d[ 16] =         0.014491126544;

  // Basis function   2 L = p
  InitBFNGauss(BAS[ATNO][  1]);
  BAS[ATNO][  1].l  = 1;
  BAS[ATNO][  1].ng = 31;
  BAS[ATNO][  1].a[  0] =       124.602000000000;     BAS[ATNO][  1].d[  0] =         0.000524539970;
  BAS[ATNO][  1].a[  1] =        20.889900000000;     BAS[ATNO][  1].d[  1] =        -0.018071972199;
  BAS[ATNO][  1].a[  2] =        13.058500000000;     BAS[ATNO][  1].d[  2] =         0.191878525596;
  BAS[ATNO][  1].a[  3] =         8.160610000000;     BAS[ATNO][  1].d[  3] =        -0.458271993281;
  BAS[ATNO][  1].a[  4] =         5.098080000000;     BAS[ATNO][  1].d[  4] =        -0.018389161949;
  BAS[ATNO][  1].a[  5] =         2.378760000000;     BAS[ATNO][  1].d[  5] =         0.659230216692;
  BAS[ATNO][  1].a[  6] =         1.237550000000;     BAS[ATNO][  1].d[  6] =         0.561523433393;
  BAS[ATNO][  1].a[  7] =       124.602000000000;     BAS[ATNO][  1].d[  7] =         0.000077936509;
  BAS[ATNO][  1].a[  8] =        20.889900000000;     BAS[ATNO][  1].d[  8] =        -0.002685146050;
  BAS[ATNO][  1].a[  9] =        13.058500000000;     BAS[ATNO][  1].d[  9] =         0.028509443204;
  BAS[ATNO][  1].a[ 10] =         8.160610000000;     BAS[ATNO][  1].d[ 10] =        -0.068090367715;
  BAS[ATNO][  1].a[ 11] =         5.098080000000;     BAS[ATNO][  1].d[ 11] =        -0.002732274321;
  BAS[ATNO][  1].a[ 12] =         2.378760000000;     BAS[ATNO][  1].d[ 12] =         0.097948878661;
  BAS[ATNO][  1].a[ 13] =         1.237550000000;     BAS[ATNO][  1].d[ 13] =         0.083431537648;
  BAS[ATNO][  1].a[ 14] =       124.602000000000;     BAS[ATNO][  1].d[ 14] =         0.000071428286;
  BAS[ATNO][  1].a[ 15] =        20.889900000000;     BAS[ATNO][  1].d[ 15] =        -0.002460918265;
  BAS[ATNO][  1].a[ 16] =        13.058500000000;     BAS[ATNO][  1].d[ 16] =         0.026128712638;
  BAS[ATNO][  1].a[ 17] =         8.160610000000;     BAS[ATNO][  1].d[ 17] =        -0.062404363308;
  BAS[ATNO][  1].a[ 18] =         5.098080000000;     BAS[ATNO][  1].d[ 18] =        -0.002504111008;
  BAS[ATNO][  1].a[ 19] =         2.378760000000;     BAS[ATNO][  1].d[ 19] =         0.089769487442;
  BAS[ATNO][  1].a[ 20] =         1.237550000000;     BAS[ATNO][  1].d[ 20] =         0.076464442203;
  BAS[ATNO][  1].a[ 21] =         8.797758432100;     BAS[ATNO][  1].d[ 21] =        -0.086340080297;
  BAS[ATNO][  1].a[ 22] =         8.099643150200;     BAS[ATNO][  1].d[ 22] =         0.103559039294;
  BAS[ATNO][  1].a[ 23] =         0.676297197700;     BAS[ATNO][  1].d[ 23] =         0.166830578276;
  BAS[ATNO][  1].a[ 24] =         8.797758432100;     BAS[ATNO][  1].d[ 24] =        -0.012828468469;
  BAS[ATNO][  1].a[ 25] =         8.099643150200;     BAS[ATNO][  1].d[ 25] =         0.015386873231;
  BAS[ATNO][  1].a[ 26] =         0.676297197700;     BAS[ATNO][  1].d[ 26] =         0.024787801977;
  BAS[ATNO][  1].a[ 27] =         8.797758432100;     BAS[ATNO][  1].d[ 27] =        -0.011757204930;
  BAS[ATNO][  1].a[ 28] =         8.099643150200;     BAS[ATNO][  1].d[ 28] =         0.014101965659;
  BAS[ATNO][  1].a[ 29] =         0.676297197700;     BAS[ATNO][  1].d[ 29] =         0.022717853524;
  BAS[ATNO][  1].a[ 30] =         0.607850179300;     BAS[ATNO][  1].d[ 30] =        -0.287174172516;

  // Basis function   3 L = s
  InitBFNGauss(BAS[ATNO][  2]);
  BAS[ATNO][  2].l  = 0;
  BAS[ATNO][  2].ng = 17;
  BAS[ATNO][  2].a[  0] =      9090.280000000001;     BAS[ATNO][  2].d[  0] =        -0.000025536308;
  BAS[ATNO][  2].a[  1] =      1373.070000000000;     BAS[ATNO][  2].d[  1] =        -0.000176565394;
  BAS[ATNO][  2].a[  2] =       307.950000000000;     BAS[ATNO][  2].d[  2] =        -0.000594631393;
  BAS[ATNO][  2].a[  3] =        48.017600000000;     BAS[ATNO][  2].d[  3] =        -0.006176140735;
  BAS[ATNO][  2].a[  4] =        23.909900000000;     BAS[ATNO][  2].d[  4] =         0.107495492395;
  BAS[ATNO][  2].a[  5] =        14.933400000000;     BAS[ATNO][  2].d[  5] =        -0.461415716950;
  BAS[ATNO][  2].a[  6] =         9.331710000000;     BAS[ATNO][  2].d[  6] =         0.449735405426;
  BAS[ATNO][  2].a[  7] =         5.832060000000;     BAS[ATNO][  2].d[  7] =         0.451816250503;
  BAS[ATNO][  2].a[  8] =         2.287870000000;     BAS[ATNO][  2].d[  8] =        -0.572833587687;
  BAS[ATNO][  2].a[  9] =         1.253723800800;     BAS[ATNO][  2].d[  9] =        -1.409782603810;
  BAS[ATNO][  2].a[ 10] =        14.805780876000;     BAS[ATNO][  2].d[ 10] =        -0.120249164923;
  BAS[ATNO][  2].a[ 11] =        11.855783628000;     BAS[ATNO][  2].d[ 11] =         0.213542339945;
  BAS[ATNO][  2].a[ 12] =         2.581878236000;     BAS[ATNO][  2].d[ 12] =        -0.399213018804;
  BAS[ATNO][  2].a[ 13] =         0.614606919800;     BAS[ATNO][  2].d[ 13] =         1.999102565484;
  BAS[ATNO][  2].a[ 14] =         0.314867166400;     BAS[ATNO][  2].d[ 14] =         0.024362764411;
  BAS[ATNO][  2].a[ 15] =         0.154416691500;     BAS[ATNO][  2].d[ 15] =         0.185577300750;
  BAS[ATNO][  2].a[ 16] =         0.072866424600;     BAS[ATNO][  2].d[ 16] =        -0.048242790147;

  // Basis function   4 L = p
  InitBFNGauss(BAS[ATNO][  3]);
  BAS[ATNO][  3].l  = 1;
  BAS[ATNO][  3].ng = 31;
  BAS[ATNO][  3].a[  0] =       124.602000000000;     BAS[ATNO][  3].d[  0] =        -0.000478372614;
  BAS[ATNO][  3].a[  1] =        20.889900000000;     BAS[ATNO][  3].d[  1] =         0.016481368592;
  BAS[ATNO][  3].a[  2] =        13.058500000000;     BAS[ATNO][  3].d[  2] =        -0.174990348062;
  BAS[ATNO][  3].a[  3] =         8.160610000000;     BAS[ATNO][  3].d[  3] =         0.417937209816;
  BAS[ATNO][  3].a[  4] =         5.098080000000;     BAS[ATNO][  3].d[  4] =         0.016770640904;
  BAS[ATNO][  3].a[  5] =         2.378760000000;     BAS[ATNO][  3].d[  5] =        -0.601208106605;
  BAS[ATNO][  3].a[  6] =         1.237550000000;     BAS[ATNO][  3].d[  6] =        -0.512100980290;
  BAS[ATNO][  3].a[  7] =       124.602000000000;     BAS[ATNO][  3].d[  7] =        -0.000007252576;
  BAS[ATNO][  3].a[  8] =        20.889900000000;     BAS[ATNO][  3].d[  8] =         0.000249872965;
  BAS[ATNO][  3].a[  9] =        13.058500000000;     BAS[ATNO][  3].d[  9] =        -0.002653017363;
  BAS[ATNO][  3].a[ 10] =         8.160610000000;     BAS[ATNO][  3].d[ 10] =         0.006336319040;
  BAS[ATNO][  3].a[ 11] =         5.098080000000;     BAS[ATNO][  3].d[ 11] =         0.000254258603;
  BAS[ATNO][  3].a[ 12] =         2.378760000000;     BAS[ATNO][  3].d[ 12] =        -0.009114877267;
  BAS[ATNO][  3].a[ 13] =         1.237550000000;     BAS[ATNO][  3].d[ 13] =        -0.007763929881;
  BAS[ATNO][  3].a[ 14] =       124.602000000000;     BAS[ATNO][  3].d[ 14] =        -0.000034262676;
  BAS[ATNO][  3].a[ 15] =        20.889900000000;     BAS[ATNO][  3].d[ 15] =         0.001180451748;
  BAS[ATNO][  3].a[ 16] =        13.058500000000;     BAS[ATNO][  3].d[ 16] =        -0.012533404684;
  BAS[ATNO][  3].a[ 17] =         8.160610000000;     BAS[ATNO][  3].d[ 17] =         0.029934086315;
  BAS[ATNO][  3].a[ 18] =         5.098080000000;     BAS[ATNO][  3].d[ 18] =         0.001201170416;
  BAS[ATNO][  3].a[ 19] =         2.378760000000;     BAS[ATNO][  3].d[ 19] =        -0.043060572100;
  BAS[ATNO][  3].a[ 20] =         1.237550000000;     BAS[ATNO][  3].d[ 20] =        -0.036678416245;
  BAS[ATNO][  3].a[ 21] =         8.797758432100;     BAS[ATNO][  3].d[ 21] =         0.506283538221;
  BAS[ATNO][  3].a[ 22] =         8.099643150200;     BAS[ATNO][  3].d[ 22] =        -0.607252583596;
  BAS[ATNO][  3].a[ 23] =         0.676297197700;     BAS[ATNO][  3].d[ 23] =        -0.978266121159;
  BAS[ATNO][  3].a[ 24] =         8.797758432100;     BAS[ATNO][  3].d[ 24] =         0.007675732018;
  BAS[ATNO][  3].a[ 25] =         8.099643150200;     BAS[ATNO][  3].d[ 25] =        -0.009206517192;
  BAS[ATNO][  3].a[ 26] =         0.676297197700;     BAS[ATNO][  3].d[ 26] =        -0.014831429468;
  BAS[ATNO][  3].a[ 27] =         8.797758432100;     BAS[ATNO][  3].d[ 27] =         0.036261751232;
  BAS[ATNO][  3].a[ 28] =         8.099643150200;     BAS[ATNO][  3].d[ 28] =        -0.043493498127;
  BAS[ATNO][  3].a[ 29] =         0.676297197700;     BAS[ATNO][  3].d[ 29] =        -0.070066751230;
  BAS[ATNO][  3].a[ 30] =         0.607850179300;     BAS[ATNO][  3].d[ 30] =         2.269459665090;

  // Basis function   5 L = s
  InitBFNGauss(BAS[ATNO][  4]);
  BAS[ATNO][  4].l  = 0;
  BAS[ATNO][  4].ng = 17;
  BAS[ATNO][  4].a[  0] =      9090.280000000001;     BAS[ATNO][  4].d[  0] =         0.000008627231;
  BAS[ATNO][  4].a[  1] =      1373.070000000000;     BAS[ATNO][  4].d[  1] =         0.000059651161;
  BAS[ATNO][  4].a[  2] =       307.950000000000;     BAS[ATNO][  4].d[  2] =         0.000200891308;
  BAS[ATNO][  4].a[  3] =        48.017600000000;     BAS[ATNO][  4].d[  3] =         0.002086558167;
  BAS[ATNO][  4].a[  4] =        23.909900000000;     BAS[ATNO][  4].d[  4] =        -0.036316464796;
  BAS[ATNO][  4].a[  5] =        14.933400000000;     BAS[ATNO][  4].d[  5] =         0.155885491267;
  BAS[ATNO][  4].a[  6] =         9.331710000000;     BAS[ATNO][  4].d[  6] =        -0.151939394433;
  BAS[ATNO][  4].a[  7] =         5.832060000000;     BAS[ATNO][  4].d[  7] =        -0.152642390766;
  BAS[ATNO][  4].a[  8] =         2.287870000000;     BAS[ATNO][  4].d[  8] =         0.193527099209;
  BAS[ATNO][  4].a[  9] =         1.253723800800;     BAS[ATNO][  4].d[  9] =         0.564843730635;
  BAS[ATNO][  4].a[ 10] =        14.805780876000;     BAS[ATNO][  4].d[ 10] =         0.077686889766;
  BAS[ATNO][  4].a[ 11] =        11.855783628000;     BAS[ATNO][  4].d[ 11] =        -0.137958880914;
  BAS[ATNO][  4].a[ 12] =         2.581878236000;     BAS[ATNO][  4].d[ 12] =         0.257911294475;
  BAS[ATNO][  4].a[ 13] =         0.614606919800;     BAS[ATNO][  4].d[ 13] =        -0.711239340743;
  BAS[ATNO][  4].a[ 14] =         0.314867166400;     BAS[ATNO][  4].d[ 14] =        -2.889425048596;
  BAS[ATNO][  4].a[ 15] =         0.154416691500;     BAS[ATNO][  4].d[ 15] =         6.016405614322;
  BAS[ATNO][  4].a[ 16] =         0.072866424600;     BAS[ATNO][  4].d[ 16] =        -3.478097255418;

  // Basis function   6 L = s
  InitBFNGauss(BAS[ATNO][  5]);
  BAS[ATNO][  5].l  = 0;
  BAS[ATNO][  5].ng = 17;
  BAS[ATNO][  5].a[  0] =      9090.280000000001;     BAS[ATNO][  5].d[  0] =         0.000024784464;
  BAS[ATNO][  5].a[  1] =      1373.070000000000;     BAS[ATNO][  5].d[  1] =         0.000171366929;
  BAS[ATNO][  5].a[  2] =       307.950000000000;     BAS[ATNO][  5].d[  2] =         0.000577124167;
  BAS[ATNO][  5].a[  3] =        48.017600000000;     BAS[ATNO][  5].d[  3] =         0.005994301875;
  BAS[ATNO][  5].a[  4] =        23.909900000000;     BAS[ATNO][  5].d[  4] =        -0.104330594020;
  BAS[ATNO][  5].a[  5] =        14.933400000000;     BAS[ATNO][  5].d[  5] =         0.447830646355;
  BAS[ATNO][  5].a[  6] =         9.331710000000;     BAS[ATNO][  5].d[  6] =        -0.436494228311;
  BAS[ATNO][  5].a[  7] =         5.832060000000;     BAS[ATNO][  5].d[  7] =        -0.438513808835;
  BAS[ATNO][  5].a[  8] =         2.287870000000;     BAS[ATNO][  5].d[  8] =         0.555968135467;
  BAS[ATNO][  5].a[  9] =         1.253723800800;     BAS[ATNO][  5].d[  9] =         3.783486136746;
  BAS[ATNO][  5].a[ 10] =        14.805780876000;     BAS[ATNO][  5].d[ 10] =         0.080747697475;
  BAS[ATNO][  5].a[ 11] =        11.855783628000;     BAS[ATNO][  5].d[ 11] =        -0.143394361823;
  BAS[ATNO][  5].a[ 12] =         2.581878236000;     BAS[ATNO][  5].d[ 12] =         0.268072814401;
  BAS[ATNO][  5].a[ 13] =         0.614606919800;     BAS[ATNO][  5].d[ 13] =       -12.479850630315;
  BAS[ATNO][  5].a[ 14] =         0.314867166400;     BAS[ATNO][  5].d[ 14] =        15.755277412587;
  BAS[ATNO][  5].a[ 15] =         0.154416691500;     BAS[ATNO][  5].d[ 15] =       -10.012750577618;
  BAS[ATNO][  5].a[ 16] =         0.072866424600;     BAS[ATNO][  5].d[ 16] =         2.887933146743;

  // Basis function   7 L = s
  InitBFNGauss(BAS[ATNO][  6]);
  BAS[ATNO][  6].l  = 0;
  BAS[ATNO][  6].ng = 17;
  BAS[ATNO][  6].a[  0] =      9090.280000000001;     BAS[ATNO][  6].d[  0] =        -0.000047701040;
  BAS[ATNO][  6].a[  1] =      1373.070000000000;     BAS[ATNO][  6].d[  1] =        -0.000329818738;
  BAS[ATNO][  6].a[  2] =       307.950000000000;     BAS[ATNO][  6].d[  2] =        -0.001110753198;
  BAS[ATNO][  6].a[  3] =        48.017600000000;     BAS[ATNO][  6].d[  3] =        -0.011536841394;
  BAS[ATNO][  6].a[  4] =        23.909900000000;     BAS[ATNO][  6].d[  4] =         0.200798281563;
  BAS[ATNO][  6].a[  5] =        14.933400000000;     BAS[ATNO][  6].d[  5] =        -0.861910401875;
  BAS[ATNO][  6].a[  6] =         9.331710000000;     BAS[ATNO][  6].d[  6] =         0.840091938328;
  BAS[ATNO][  6].a[  7] =         5.832060000000;     BAS[ATNO][  6].d[  7] =         0.843978893086;
  BAS[ATNO][  6].a[  8] =         2.287870000000;     BAS[ATNO][  6].d[  8] =        -1.070035565833;
  BAS[ATNO][  6].a[  9] =         1.253723800800;     BAS[ATNO][  6].d[  9] =       -12.668203336066;
  BAS[ATNO][  6].a[ 10] =        14.805780876000;     BAS[ATNO][  6].d[ 10] =         2.106519311313;
  BAS[ATNO][  6].a[ 11] =        11.855783628000;     BAS[ATNO][  6].d[ 11] =        -3.740824837853;
  BAS[ATNO][  6].a[ 12] =         2.581878236000;     BAS[ATNO][  6].d[ 12] =         6.993395205478;
  BAS[ATNO][  6].a[ 13] =         0.614606919800;     BAS[ATNO][  6].d[ 13] =        14.502984295199;
  BAS[ATNO][  6].a[ 14] =         0.314867166400;     BAS[ATNO][  6].d[ 14] =       -10.609346246572;
  BAS[ATNO][  6].a[ 15] =         0.154416691500;     BAS[ATNO][  6].d[ 15] =         4.832960853550;
  BAS[ATNO][  6].a[ 16] =         0.072866424600;     BAS[ATNO][  6].d[ 16] =        -1.192530568607;

  // Basis function   8 L = p
  InitBFNGauss(BAS[ATNO][  7]);
  BAS[ATNO][  7].l  = 1;
  BAS[ATNO][  7].ng = 31;
  BAS[ATNO][  7].a[  0] =       124.602000000000;     BAS[ATNO][  7].d[  0] =        -0.000027815256;
  BAS[ATNO][  7].a[  1] =        20.889900000000;     BAS[ATNO][  7].d[  1] =         0.000958318830;
  BAS[ATNO][  7].a[  2] =        13.058500000000;     BAS[ATNO][  7].d[  2] =        -0.010174916278;
  BAS[ATNO][  7].a[  3] =         8.160610000000;     BAS[ATNO][  7].d[  3] =         0.024301203847;
  BAS[ATNO][  7].a[  4] =         5.098080000000;     BAS[ATNO][  7].d[  4] =         0.000975138738;
  BAS[ATNO][  7].a[  5] =         2.378760000000;     BAS[ATNO][  7].d[  5] =        -0.034957597481;
  BAS[ATNO][  7].a[  6] =         1.237550000000;     BAS[ATNO][  7].d[  6] =        -0.029776411432;
  BAS[ATNO][  7].a[  7] =       124.602000000000;     BAS[ATNO][  7].d[  7] =        -0.000209326976;
  BAS[ATNO][  7].a[  8] =        20.889900000000;     BAS[ATNO][  7].d[  8] =         0.007211940956;
  BAS[ATNO][  7].a[  9] =        13.058500000000;     BAS[ATNO][  7].d[  9] =        -0.076572528007;
  BAS[ATNO][  7].a[ 10] =         8.160610000000;     BAS[ATNO][  7].d[ 10] =         0.182881564945;
  BAS[ATNO][  7].a[ 11] =         5.098080000000;     BAS[ATNO][  7].d[ 11] =         0.007338521150;
  BAS[ATNO][  7].a[ 12] =         2.378760000000;     BAS[ATNO][  7].d[ 12] =        -0.263077507365;
  BAS[ATNO][  7].a[ 13] =         1.237550000000;     BAS[ATNO][  7].d[ 13] =        -0.224085882964;
  BAS[ATNO][  7].a[ 14] =       124.602000000000;     BAS[ATNO][  7].d[ 14] =         0.000432663713;
  BAS[ATNO][  7].a[ 15] =        20.889900000000;     BAS[ATNO][  7].d[ 15] =        -0.014906560098;
  BAS[ATNO][  7].a[ 16] =        13.058500000000;     BAS[ATNO][  7].d[ 16] =         0.158269874574;
  BAS[ATNO][  7].a[ 17] =         8.160610000000;     BAS[ATNO][  7].d[ 17] =        -0.378002961363;
  BAS[ATNO][  7].a[ 18] =         5.098080000000;     BAS[ATNO][  7].d[ 18] =        -0.015168192199;
  BAS[ATNO][  7].a[ 19] =         2.378760000000;     BAS[ATNO][  7].d[ 19] =         0.543762171338;
  BAS[ATNO][  7].a[ 20] =         1.237550000000;     BAS[ATNO][  7].d[ 20] =         0.463169305150;
  BAS[ATNO][  7].a[ 21] =         8.797758432100;     BAS[ATNO][  7].d[ 21] =         0.029482966385;
  BAS[ATNO][  7].a[ 22] =         8.099643150200;     BAS[ATNO][  7].d[ 22] =        -0.035362807909;
  BAS[ATNO][  7].a[ 23] =         0.676297197700;     BAS[ATNO][  7].d[ 23] =        -0.056968447498;
  BAS[ATNO][  7].a[ 24] =         8.797758432100;     BAS[ATNO][  7].d[ 24] =         0.221877527788;
  BAS[ATNO][  7].a[ 25] =         8.099643150200;     BAS[ATNO][  7].d[ 25] =        -0.266126966056;
  BAS[ATNO][  7].a[ 26] =         0.676297197700;     BAS[ATNO][  7].d[ 26] =        -0.428722745448;
  BAS[ATNO][  7].a[ 27] =         8.797758432100;     BAS[ATNO][  7].d[ 27] =        -0.458604794797;
  BAS[ATNO][  7].a[ 28] =         8.099643150200;     BAS[ATNO][  7].d[ 28] =         0.550065181793;
  BAS[ATNO][  7].a[ 29] =         0.676297197700;     BAS[ATNO][  7].d[ 29] =         0.886138892305;
  BAS[ATNO][  7].a[ 30] =         0.607850179300;     BAS[ATNO][  7].d[ 30] =         0.132303317339;

  // Basis function   9 L = p
  InitBFNGauss(BAS[ATNO][  8]);
  BAS[ATNO][  8].l  = 1;
  BAS[ATNO][  8].ng = 31;
  BAS[ATNO][  8].a[  0] =       124.602000000000;     BAS[ATNO][  8].d[  0] =         0.000024145811;
  BAS[ATNO][  8].a[  1] =        20.889900000000;     BAS[ATNO][  8].d[  1] =        -0.000831895462;
  BAS[ATNO][  8].a[  2] =        13.058500000000;     BAS[ATNO][  8].d[  2] =         0.008832620640;
  BAS[ATNO][  8].a[  3] =         8.160610000000;     BAS[ATNO][  8].d[  3] =        -0.021095339637;
  BAS[ATNO][  8].a[  4] =         5.098080000000;     BAS[ATNO][  8].d[  4] =        -0.000846496453;
  BAS[ATNO][  8].a[  5] =         2.378760000000;     BAS[ATNO][  8].d[  5] =         0.030345920160;
  BAS[ATNO][  8].a[  6] =         1.237550000000;     BAS[ATNO][  8].d[  6] =         0.025848246707;
  BAS[ATNO][  8].a[  7] =       124.602000000000;     BAS[ATNO][  8].d[  7] =         0.000217469253;
  BAS[ATNO][  8].a[  8] =        20.889900000000;     BAS[ATNO][  8].d[  8] =        -0.007492466770;
  BAS[ATNO][  8].a[  9] =        13.058500000000;     BAS[ATNO][  8].d[  9] =         0.079551000910;
  BAS[ATNO][  8].a[ 10] =         8.160610000000;     BAS[ATNO][  8].d[ 10] =        -0.189995183887;
  BAS[ATNO][  8].a[ 11] =         5.098080000000;     BAS[ATNO][  8].d[ 11] =        -0.007623970605;
  BAS[ATNO][  8].a[ 12] =         2.378760000000;     BAS[ATNO][  8].d[ 12] =         0.273310540641;
  BAS[ATNO][  8].a[ 13] =         1.237550000000;     BAS[ATNO][  8].d[ 13] =         0.232802243097;
  BAS[ATNO][  8].a[ 14] =       124.602000000000;     BAS[ATNO][  8].d[ 14] =         0.000106766067;
  BAS[ATNO][  8].a[ 15] =        20.889900000000;     BAS[ATNO][  8].d[ 15] =        -0.003678410625;
  BAS[ATNO][  8].a[ 16] =        13.058500000000;     BAS[ATNO][  8].d[ 16] =         0.039055394702;
  BAS[ATNO][  8].a[ 17] =         8.160610000000;     BAS[ATNO][  8].d[ 17] =        -0.093277731434;
  BAS[ATNO][  8].a[ 18] =         5.098080000000;     BAS[ATNO][  8].d[ 18] =        -0.003742972153;
  BAS[ATNO][  8].a[ 19] =         2.378760000000;     BAS[ATNO][  8].d[ 19] =         0.134181228631;
  BAS[ATNO][  8].a[ 20] =         1.237550000000;     BAS[ATNO][  8].d[ 20] =         0.114293766108;
  BAS[ATNO][  8].a[ 21] =         8.797758432100;     BAS[ATNO][  8].d[ 21] =        -0.030802560563;
  BAS[ATNO][  8].a[ 22] =         8.099643150200;     BAS[ATNO][  8].d[ 22] =         0.036945571149;
  BAS[ATNO][  8].a[ 23] =         0.676297197700;     BAS[ATNO][  8].d[ 23] =         0.059518232706;
  BAS[ATNO][  8].a[ 24] =         8.797758432100;     BAS[ATNO][  8].d[ 24] =        -0.277423272584;
  BAS[ATNO][  8].a[ 25] =         8.099643150200;     BAS[ATNO][  8].d[ 25] =         0.332750299601;
  BAS[ATNO][  8].a[ 26] =         0.676297197700;     BAS[ATNO][  8].d[ 26] =         0.536050983888;
  BAS[ATNO][  8].a[ 27] =         8.797758432100;     BAS[ATNO][  8].d[ 27] =        -0.136200365632;
  BAS[ATNO][  8].a[ 28] =         8.099643150200;     BAS[ATNO][  8].d[ 28] =         0.163363051872;
  BAS[ATNO][  8].a[ 29] =         0.676297197700;     BAS[ATNO][  8].d[ 29] =         0.263173090429;
  BAS[ATNO][  8].a[ 30] =         0.607850179300;     BAS[ATNO][  8].d[ 30] =        -0.158559769123;

  // Basis function  10 L = p
  InitBFNGauss(BAS[ATNO][  9]);
  BAS[ATNO][  9].l  = 1;
  BAS[ATNO][  9].ng = 31;
  BAS[ATNO][  9].a[  0] =       124.602000000000;     BAS[ATNO][  9].d[  0] =        -0.000009058773;
  BAS[ATNO][  9].a[  1] =        20.889900000000;     BAS[ATNO][  9].d[  1] =         0.000312101863;
  BAS[ATNO][  9].a[  2] =        13.058500000000;     BAS[ATNO][  9].d[  2] =        -0.003313730490;
  BAS[ATNO][  9].a[  3] =         8.160610000000;     BAS[ATNO][  9].d[  3] =         0.007914329507;
  BAS[ATNO][  9].a[  4] =         5.098080000000;     BAS[ATNO][  9].d[  4] =         0.000317579711;
  BAS[ATNO][  9].a[  5] =         2.378760000000;     BAS[ATNO][  9].d[  5] =        -0.011384865828;
  BAS[ATNO][  9].a[  6] =         1.237550000000;     BAS[ATNO][  9].d[  6] =        -0.009697475611;
  BAS[ATNO][  9].a[  7] =       124.602000000000;     BAS[ATNO][  9].d[  7] =        -0.000068172864;
  BAS[ATNO][  9].a[  8] =        20.889900000000;     BAS[ATNO][  9].d[  8] =         0.002348759241;
  BAS[ATNO][  9].a[  9] =        13.058500000000;     BAS[ATNO][  9].d[  9] =        -0.024937868165;
  BAS[ATNO][  9].a[ 10] =         8.160610000000;     BAS[ATNO][  9].d[ 10] =         0.059560216635;
  BAS[ATNO][  9].a[ 11] =         5.098080000000;     BAS[ATNO][  9].d[ 11] =         0.002389983428;
  BAS[ATNO][  9].a[ 12] =         2.378760000000;     BAS[ATNO][  9].d[ 12] =        -0.085678145499;
  BAS[ATNO][  9].a[ 13] =         1.237550000000;     BAS[ATNO][  9].d[ 13] =        -0.072979492155;
  BAS[ATNO][  9].a[ 14] =       124.602000000000;     BAS[ATNO][  9].d[ 14] =         0.000140908377;
  BAS[ATNO][  9].a[ 15] =        20.889900000000;     BAS[ATNO][  9].d[ 15] =        -0.004854715394;
  BAS[ATNO][  9].a[ 16] =        13.058500000000;     BAS[ATNO][  9].d[ 16] =         0.051544768982;
  BAS[ATNO][  9].a[ 17] =         8.160610000000;     BAS[ATNO][  9].d[ 17] =        -0.123106657980;
  BAS[ATNO][  9].a[ 18] =         5.098080000000;     BAS[ATNO][  9].d[ 18] =        -0.004939922805;
  BAS[ATNO][  9].a[ 19] =         2.378760000000;     BAS[ATNO][  9].d[ 19] =         0.177090527037;
  BAS[ATNO][  9].a[ 20] =         1.237550000000;     BAS[ATNO][  9].d[ 20] =         0.150843329455;
  BAS[ATNO][  9].a[ 21] =         8.797758432100;     BAS[ATNO][  9].d[ 21] =         0.011498926525;
  BAS[ATNO][  9].a[ 22] =         8.099643150200;     BAS[ATNO][  9].d[ 22] =        -0.013792178323;
  BAS[ATNO][  9].a[ 23] =         0.676297197700;     BAS[ATNO][  9].d[ 23] =        -0.022218795201;
  BAS[ATNO][  9].a[ 24] =         8.797758432100;     BAS[ATNO][  9].d[ 24] =         0.086536522682;
  BAS[ATNO][  9].a[ 25] =         8.099643150200;     BAS[ATNO][  9].d[ 25] =        -0.103794658540;
  BAS[ATNO][  9].a[ 26] =         0.676297197700;     BAS[ATNO][  9].d[ 26] =        -0.167210153979;
  BAS[ATNO][  9].a[ 27] =         8.797758432100;     BAS[ATNO][  9].d[ 27] =        -0.178864730563;
  BAS[ATNO][  9].a[ 28] =         8.099643150200;     BAS[ATNO][  9].d[ 28] =         0.214536048575;
  BAS[ATNO][  9].a[ 29] =         0.676297197700;     BAS[ATNO][  9].d[ 29] =         0.345611288873;
  BAS[ATNO][  9].a[ 30] =         0.607850179300;     BAS[ATNO][  9].d[ 30] =         0.054729839977;

  // Basis function  11 L = p
  InitBFNGauss(BAS[ATNO][ 10]);
  BAS[ATNO][ 10].l  = 1;
  BAS[ATNO][ 10].ng = 31;
  BAS[ATNO][ 10].a[  0] =       124.602000000000;     BAS[ATNO][ 10].d[  0] =        -0.000029637937;
  BAS[ATNO][ 10].a[  1] =        20.889900000000;     BAS[ATNO][ 10].d[  1] =         0.001021115664;
  BAS[ATNO][ 10].a[  2] =        13.058500000000;     BAS[ATNO][ 10].d[  2] =        -0.010841659440;
  BAS[ATNO][ 10].a[  3] =         8.160610000000;     BAS[ATNO][ 10].d[  3] =         0.025893616112;
  BAS[ATNO][ 10].a[  4] =         5.098080000000;     BAS[ATNO][ 10].d[  4] =         0.001039037749;
  BAS[ATNO][ 10].a[  5] =         2.378760000000;     BAS[ATNO][ 10].d[  5] =        -0.037248303214;
  BAS[ATNO][ 10].a[  6] =         1.237550000000;     BAS[ATNO][ 10].d[  6] =        -0.031727603771;
  BAS[ATNO][ 10].a[  7] =       124.602000000000;     BAS[ATNO][ 10].d[  7] =        -0.000223043780;
  BAS[ATNO][ 10].a[  8] =        20.889900000000;     BAS[ATNO][ 10].d[  8] =         0.007684525904;
  BAS[ATNO][ 10].a[  9] =        13.058500000000;     BAS[ATNO][ 10].d[  9] =        -0.081590181976;
  BAS[ATNO][ 10].a[ 10] =         8.160610000000;     BAS[ATNO][ 10].d[ 10] =         0.194865450471;
  BAS[ATNO][ 10].a[ 11] =         5.098080000000;     BAS[ATNO][ 10].d[ 11] =         0.007819400660;
  BAS[ATNO][ 10].a[ 12] =         2.378760000000;     BAS[ATNO][ 10].d[ 12] =        -0.280316482402;
  BAS[ATNO][ 10].a[ 13] =         1.237550000000;     BAS[ATNO][ 10].d[ 13] =        -0.238769810075;
  BAS[ATNO][ 10].a[ 14] =       124.602000000000;     BAS[ATNO][ 10].d[ 14] =         0.000461015353;
  BAS[ATNO][ 10].a[ 15] =        20.889900000000;     BAS[ATNO][ 10].d[ 15] =        -0.015883358994;
  BAS[ATNO][ 10].a[ 16] =        13.058500000000;     BAS[ATNO][ 10].d[ 16] =         0.168641002307;
  BAS[ATNO][ 10].a[ 17] =         8.160610000000;     BAS[ATNO][ 10].d[ 17] =        -0.402772785730;
  BAS[ATNO][ 10].a[ 18] =         5.098080000000;     BAS[ATNO][ 10].d[ 18] =        -0.016162135356;
  BAS[ATNO][ 10].a[ 19] =         2.378760000000;     BAS[ATNO][ 10].d[ 19] =         0.579393885525;
  BAS[ATNO][ 10].a[ 20] =         1.237550000000;     BAS[ATNO][ 10].d[ 20] =         0.493519920127;
  BAS[ATNO][ 10].a[ 21] =         8.797758432100;     BAS[ATNO][ 10].d[ 21] =         0.043973658507;
  BAS[ATNO][ 10].a[ 22] =         8.099643150200;     BAS[ATNO][ 10].d[ 22] =        -0.052743405074;
  BAS[ATNO][ 10].a[ 23] =         0.676297197700;     BAS[ATNO][ 10].d[ 23] =        -0.084968080322;
  BAS[ATNO][ 10].a[ 24] =         8.797758432100;     BAS[ATNO][ 10].d[ 24] =         0.330928933872;
  BAS[ATNO][ 10].a[ 25] =         8.099643150200;     BAS[ATNO][ 10].d[ 25] =        -0.396926692079;
  BAS[ATNO][ 10].a[ 26] =         0.676297197700;     BAS[ATNO][ 10].d[ 26] =        -0.639437271960;
  BAS[ATNO][ 10].a[ 27] =         8.797758432100;     BAS[ATNO][ 10].d[ 27] =        -0.684006160414;
  BAS[ATNO][ 10].a[ 28] =         8.099643150200;     BAS[ATNO][ 10].d[ 28] =         0.820418751055;
  BAS[ATNO][ 10].a[ 29] =         0.676297197700;     BAS[ATNO][ 10].d[ 29] =         1.321670571689;
  BAS[ATNO][ 10].a[ 30] =         0.607850179300;     BAS[ATNO][ 10].d[ 30] =         0.286813030658;

  // Basis function  12 L = p
  InitBFNGauss(BAS[ATNO][ 11]);
  BAS[ATNO][ 11].l  = 1;
  BAS[ATNO][ 11].ng = 31;
  BAS[ATNO][ 11].a[  0] =       124.602000000000;     BAS[ATNO][ 11].d[  0] =         0.000054200140;
  BAS[ATNO][ 11].a[  1] =        20.889900000000;     BAS[ATNO][ 11].d[  1] =        -0.001867357080;
  BAS[ATNO][ 11].a[  2] =        13.058500000000;     BAS[ATNO][ 11].d[  2] =         0.019826597750;
  BAS[ATNO][ 11].a[  3] =         8.160610000000;     BAS[ATNO][ 11].d[  3] =        -0.047352742798;
  BAS[ATNO][ 11].a[  4] =         5.098080000000;     BAS[ATNO][ 11].d[  4] =        -0.001900131950;
  BAS[ATNO][ 11].a[  5] =         2.378760000000;     BAS[ATNO][ 11].d[  5] =         0.068117535772;
  BAS[ATNO][ 11].a[  6] =         1.237550000000;     BAS[ATNO][ 11].d[  6] =         0.058021600940;
  BAS[ATNO][ 11].a[  7] =       124.602000000000;     BAS[ATNO][ 11].d[  7] =         0.000407889530;
  BAS[ATNO][ 11].a[  8] =        20.889900000000;     BAS[ATNO][ 11].d[  8] =        -0.014053015338;
  BAS[ATNO][ 11].a[  9] =        13.058500000000;     BAS[ATNO][ 11].d[  9] =         0.149207393278;
  BAS[ATNO][ 11].a[ 10] =         8.160610000000;     BAS[ATNO][ 11].d[ 10] =        -0.356358635326;
  BAS[ATNO][ 11].a[ 11] =         5.098080000000;     BAS[ATNO][ 11].d[ 11] =        -0.014299666471;
  BAS[ATNO][ 11].a[ 12] =         2.378760000000;     BAS[ATNO][ 11].d[ 12] =         0.512626527107;
  BAS[ATNO][ 11].a[ 13] =         1.237550000000;     BAS[ATNO][ 11].d[ 13] =         0.436648382099;
  BAS[ATNO][ 11].a[ 14] =       124.602000000000;     BAS[ATNO][ 11].d[ 14] =        -0.000843078148;
  BAS[ATNO][ 11].a[ 15] =        20.889900000000;     BAS[ATNO][ 11].d[ 15] =         0.029046565993;
  BAS[ATNO][ 11].a[ 16] =        13.058500000000;     BAS[ATNO][ 11].d[ 16] =        -0.308400887016;
  BAS[ATNO][ 11].a[ 17] =         8.160610000000;     BAS[ATNO][ 11].d[ 17] =         0.736567517304;
  BAS[ATNO][ 11].a[ 18] =         5.098080000000;     BAS[ATNO][ 11].d[ 18] =         0.029556376040;
  BAS[ATNO][ 11].a[ 19] =         2.378760000000;     BAS[ATNO][ 11].d[ 19] =        -1.059561943911;
  BAS[ATNO][ 11].a[ 20] =         1.237550000000;     BAS[ATNO][ 11].d[ 20] =        -0.902520615064;
  BAS[ATNO][ 11].a[ 21] =         8.797758432100;     BAS[ATNO][ 11].d[ 21] =         0.296903885548;
  BAS[ATNO][ 11].a[ 22] =         8.099643150200;     BAS[ATNO][ 11].d[ 22] =        -0.356115966584;
  BAS[ATNO][ 11].a[ 23] =         0.676297197700;     BAS[ATNO][ 11].d[ 23] =        -0.573692388840;
  BAS[ATNO][ 11].a[ 24] =         8.797758432100;     BAS[ATNO][ 11].d[ 24] =         2.234385111108;
  BAS[ATNO][ 11].a[ 25] =         8.099643150200;     BAS[ATNO][ 11].d[ 25] =        -2.679992591181;
  BAS[ATNO][ 11].a[ 26] =         0.676297197700;     BAS[ATNO][ 11].d[ 26] =        -4.317389547171;
  BAS[ATNO][ 11].a[ 27] =         8.797758432100;     BAS[ATNO][ 11].d[ 27] =        -4.618312370867;
  BAS[ATNO][ 11].a[ 28] =         8.099643150200;     BAS[ATNO][ 11].d[ 28] =         5.539350793267;
  BAS[ATNO][ 11].a[ 29] =         0.676297197700;     BAS[ATNO][ 11].d[ 29] =         8.923731838538;
  BAS[ATNO][ 11].a[ 30] =         0.607850179300;     BAS[ATNO][ 11].d[ 30] =         0.520692684683;

-------------------------------------------
RADIAL EXPECTATION VALUES <R**-3> TO <R**3>
-------------------------------------------
   0 :     0.000000     2.031123     1.369779     0.785866     0.663275     0.600691
   1 :     2.474350     1.671458     1.240387     0.871203     0.818473     0.835130
   2 :     2.474350     1.671458     1.240387     0.871203     0.818473     0.835130
   3 :     2.475045     1.671774     1.240509     0.871106     0.818289     0.834927
   4 :     0.000000     0.746698     0.768635     1.507792     2.497612     4.442330
   5 :     0.682197     0.577703     0.674773     1.715751     3.235706     6.591348
   6 :     0.682197     0.577703     0.674773     1.715751     3.235706     6.591348
   7 :     0.000000     0.214535     0.382317     3.136846    10.928093    41.343580
   8 :     0.000000     0.127743     0.275677     4.553778    23.082571   124.572036
   9 :     0.000000     0.371127     0.469808     3.087845    12.288624    58.375440
  10 :     0.000000     3.476108     1.427458     1.230494     2.830419    10.432772
  11 :     0.685733     0.579955     0.676195     1.711584     3.218481     6.534344
  12 :     0.132242     0.149112     0.319065     3.747346    15.644102    71.350363
  13 :     0.135134     0.151104     0.320574     3.736883    15.561671    70.778584
  14 :     0.135134     0.151104     0.320574     3.736883    15.561671    70.778584
  15 :     0.058568     0.074818     0.215795     5.680645    35.665493   237.799760
  16 :     0.058568     0.074818     0.215795     5.680645    35.665493   237.799760
  17 :     0.059066     0.075307     0.216419     5.671484    35.580829   237.162755
  18 :     0.370398     0.303090     0.422324     3.475236    15.763468    86.859126
  19 :     0.370398     0.303090     0.422324     3.475236    15.763468    86.859126
  20 :     0.368923     0.302141     0.421697     3.478180    15.783070    86.981477
  21 :    28.424106     7.677218     2.535772     0.495899     0.351247     0.402176
  22 :    28.424106     7.677218     2.535772     0.495899     0.351247     0.402176
  23 :    28.423743     7.677102     2.535739     0.495918     0.351287     0.402259
  24 :     0.000000    28.696850     4.235635     0.430383     0.578025     1.950357
Making the total density                ... o.k.
o.k.
Initializing the integrals              ... done
Making exponents                        ... done
Making rho(0)                           ... done (         0.054960063)
Integral calculation                    ... Two index integrals                     ... done
Solving the equation system             ... done
atomic density will be written to file 85_At_atom85.adf

-------
TIMINGS
-------

Total SCF time: 0 days 0 hours 0 min 0 sec 

Total time                  ....       0.767 sec
Sum of individual times     ....       0.313 sec  ( 40.8%)

Fock matrix formation       ....       0.237 sec  ( 30.9%)
Diagonalization             ....       0.032 sec  (  4.2%)
Density matrix formation    ....       0.000 sec  (  0.1%)
Population analysis         ....       0.000 sec  (  0.0%)
Initial guess               ....       0.000 sec  (  0.1%)
Orbital Transformation      ....       0.000 sec  (  0.0%)
Orbital Orthonormalization  ....       0.000 sec  (  0.0%)
DIIS solution               ....       0.043 sec  (  5.6%)

-------------------------   --------------------
FINAL SINGLE POINT ENERGY      -231.821944652759
-------------------------   --------------------


                            ***************************************
                            *     ORCA property calculations      *
                            ***************************************

                                    ---------------------
                                    Active property flags
                                    ---------------------
   (+) Dipole Moment


------------------------------------------------------------------------------
                       ORCA ELECTRIC PROPERTIES CALCULATION
------------------------------------------------------------------------------

Dipole Moment Calculation                       ... on
Quadrupole Moment Calculation                   ... off
Polarizability Calculation                      ... off
GBWName                                         ... 85_At_atom85.gbw
Electron density file                           ... 85_At_atom85.scfp
The origin for moment calculation is the CENTER OF MASS  = ( 0.000000,  0.000000  0.000000)

-------------
DIPOLE MOMENT
-------------
                                X             Y             Z
Electronic contribution:     -0.00000      -0.00000       0.00000
Nuclear contribution   :      0.00000       0.00000       0.00000
                        -----------------------------------------
Total Dipole Moment    :     -0.00000      -0.00000       0.00000
                        -----------------------------------------
Magnitude (a.u.)       :      0.00000
Magnitude (Debye)      :      0.00000



--------------------
Rotational spectrum 
--------------------
 
Rotational constants in cm-1:     0.000000     0.000000     0.000000 
Rotational constants in MHz :     0.000000     0.000000     0.000000 

 Dipole components along the rotational axes: 
x,y,z [a.u.] :    -0.000000    -0.000000     0.000000 
x,y,z [Debye]:    -0.000000    -0.000000     0.000000 

 

Timings for individual modules:

Sum of individual times         ...        1.096 sec (=   0.018 min)
GTO integral calculation        ...        0.300 sec (=   0.005 min)  27.4 %
SCF iterations                  ...        0.796 sec (=   0.013 min)  72.6 %
                             ****ORCA TERMINATED NORMALLY****
TOTAL RUN TIME: 0 days 0 hours 0 minutes 1 seconds 360 msec
