
                                 *****************
                                 * O   R   C   A *
                                 *****************

           --- An Ab Initio, DFT and Semiempirical electronic structure package ---

                  #######################################################
                  #                        -***-                        #
                  #          Department of theory and spectroscopy      #
                  #               Directorship: Frank Neese             #
                  #        Max Planck Institute fuer Kohlenforschung    #
                  #                Kaiser Wilhelm Platz 1               #
                  #                 D-45470 Muelheim/Ruhr               #
                  #                      Germany                        #
                  #                                                     #
                  #                  All rights reserved                #
                  #                        -***-                        #
                  #######################################################


                         Program Version 4.2.0 -  RELEASE  -


 With contributions from (in alphabetic order):
   Daniel Aravena         : Magnetic Suceptibility
   Michael Atanasov       : Ab Initio Ligand Field Theory (pilot matlab implementation)
   Alexander A. Auer      : GIAO ZORA, VPT2
   Ute Becker             : Parallelization
   Giovanni Bistoni       : ED, misc. LED, open-shell LED, HFLED
   Martin Brehm           : Molecular dynamics
   Dmytro Bykov           : SCF Hessian
   Vijay G. Chilkuri      : MRCI spin determinant printing, contributions to CSF-ICE
   Dipayan Datta          : RHF DLPNO-CCSD density
   Achintya Kumar Dutta   : EOM-CC, STEOM-CC
   Dmitry Ganyushin       : Spin-Orbit,Spin-Spin,Magnetic field MRCI
   Miquel Garcia          : C-PCM Hessian, Gaussian charge scheme
   Yang Guo               : DLPNO-NEVPT2, CIM, IAO-localization
   Andreas Hansen         : Spin unrestricted coupled pair/coupled cluster methods
   Benjamin Helmich-Paris : CASSCF linear response (MC-RPA)
   Lee Huntington         : MR-EOM, pCC
   Robert Izsak           : Overlap fitted RIJCOSX, COSX-SCS-MP3, EOM
   Christian Kollmar      : KDIIS, OOCD, Brueckner-CCSD(T), CCSD density
   Simone Kossmann        : Meta GGA functionals, TD-DFT gradient, OOMP2, MP2 Hessian
   Martin Krupicka        : AUTO-CI
   Lucas Lang             : DCDCAS
   Dagmar Lenk            : GEPOL surface, SMD
   Dimitrios Liakos       : Extrapolation schemes; Compound Job, initial MDCI parallelization
   Dimitrios Manganas     : Further ROCIS development; embedding schemes
   Dimitrios Pantazis     : SARC Basis sets
   Taras Petrenko         : DFT Hessian,TD-DFT gradient, ASA, ECA, R-Raman, ABS, FL, XAS/XES, NRVS
   Peter Pinski           : DLPNO-MP2, DLPNO-MP2 Gradient
   Christoph Reimann      : Effective Core Potentials
   Marius Retegan         : Local ZFS, SOC
   Christoph Riplinger    : Optimizer, TS searches, QM/MM, DLPNO-CCSD(T), (RO)-DLPNO pert. Triples
   Tobias Risthaus        : Range-separated hybrids, TD-DFT gradient, RPA, STAB
   Michael Roemelt        : Original ROCIS implementation
   Masaaki Saitow         : Open-shell DLPNO-CCSD energy and density
   Barbara Sandhoefer     : DKH picture change effects
   Avijit Sen             : IP-ROCIS
   Kantharuban Sivalingam : CASSCF convergence, NEVPT2, FIC-MRCI
   Bernardo de Souza      : ESD, SOC TD-DFT
   Georgi Stoychev        : AutoAux, RI-MP2 NMR
   Willem Van den Heuvel  : Paramagnetic NMR
   Boris Wezisla          : Elementary symmetry handling
   Frank Wennmohs         : Technical directorship


 We gratefully acknowledge several colleagues who have allowed us to
 interface, adapt or use parts of their codes:
   Stefan Grimme, W. Hujo, H. Kruse,             : VdW corrections, initial TS optimization,
                  C. Bannwarth                     DFT functionals, gCP, sTDA/sTD-DF
   Ed Valeev, F. Pavosevic, A. Kumar             : LibInt (2-el integral package), F12 methods
   Garnet Chan, S. Sharma, J. Yang, R. Olivares  : DMRG
   Ulf Ekstrom                                   : XCFun DFT Library
   Mihaly Kallay                                 : mrcc  (arbitrary order and MRCC methods)
   Andreas Klamt, Michael Diedenhofen            : otool_cosmo (COSMO solvation model)
   Jiri Pittner, Ondrej Demel                    : Mk-CCSD
   Frank Weinhold                                : gennbo (NPA and NBO analysis)
   Christopher J. Cramer and Donald G. Truhlar   : smd solvation model
   Lars Goerigk                                  : TD-DFT with DH, B97 family of functionals
   V. Asgeirsson, H. Jonsson                     : NEB implementation
   FAccTs GmbH                                   : IRC, NEB, NEB-TS, Multilevel, MM, QM/MM, CI optimization
   S Lehtola, MJT Oliveira, MAL Marques          : LibXC Library


 Your calculation uses the libint2 library for the computation of 2-el integrals
 For citations please refer to: http://libint.valeyev.net

 Your ORCA version has been built with support for libXC version: 4.2.3
 For citations please refer to: https://tddft.org/programs/libxc/

 This ORCA versions uses:
   CBLAS   interface :  Fast vector & matrix operations
   LAPACKE interface :  Fast linear algebra routines
   SCALAPACK package :  Parallel linear algebra routines


----- Orbital basis set information -----
Your calculation utilizes the basis: aug-cc-pV(Q+d)Z 
             Al - Ar: T.H. Dunning, Jr., K. A. Peterson and A. K. Wilson, J. Chem. Phys.
                      114, 9244 (2001)

================================================================================
                                        WARNINGS
                       Please study these warnings very carefully!
================================================================================


WARNING: MDCI localization with Augmented Hessian Foster-Boys
  ===> : Switching off randomization!

WARNING: Post HF methods need fully converged wavefunctions
  ===> : Setting SCFConvForced true
         You can overwrite this default with %scf ConvForced false 


INFO   : the flag for use of LIBINT has been found!

================================================================================
                                       INPUT FILE
================================================================================
NAME = 02_He.in
|  1> #
|  2> # 02_He CCSD(T)/aug-cc-pvq(+d)z
|  3> #
|  4> ! CCSD(T) aug-cc-pvq(+d)z tightscf
|  5> 
|  6> *xyz 0 1
|  7>  He 0.0 0.0 0.0
|  8> *
|  9> 
| 10> %maxcore 5000 
| 11> 
| 12> %pal
| 13> nprocs 1
| 14> end
| 15> 
| 16> 
| 17>                          ****END OF INPUT****
================================================================================

                       ****************************
                       * Single Point Calculation *
                       ****************************

---------------------------------
CARTESIAN COORDINATES (ANGSTROEM)
---------------------------------
  He     0.000000    0.000000    0.000000

----------------------------
CARTESIAN COORDINATES (A.U.)
----------------------------
  NO LB      ZA    FRAG     MASS         X           Y           Z
   0 He    2.0000    0     4.003    0.000000    0.000000    0.000000

--------------------------------
INTERNAL COORDINATES (ANGSTROEM)
--------------------------------
 He     0   0   0     0.000000000000     0.00000000     0.00000000

---------------------------
INTERNAL COORDINATES (A.U.)
---------------------------
 He     0   0   0     0.000000000000     0.00000000     0.00000000

---------------------
BASIS SET INFORMATION
---------------------
There are 1 groups of distinct atoms

 Group   1 Type He  : 8s4p3d2f contracted to 5s4p3d2f pattern {41111/1111/111/11}

Atom   0He   basis set group =>   1
------------------------------------------------------------------------------
                           ORCA GTO INTEGRAL CALCULATION
------------------------------------------------------------------------------

                         BASIS SET STATISTICS AND STARTUP INFO

 # of primitive gaussian shells          ...   17
 # of primitive gaussian functions       ...   49
 # of contracted shells                  ...   14
 # of contracted basis functions         ...   46
 Highest angular momentum                ...    3
 Maximum contraction depth               ...    4
 Integral package used                   ... LIBINT
 Integral threshhold            Thresh   ...  2.500e-11
 Primitive cut-off              TCut     ...  2.500e-12


------------------------------ INTEGRAL EVALUATION ----------------------------


 * One electron integrals 
 Pre-screening matrix                    ... done
 Shell pair data                         ... done (   0.000 sec)

-------------------------------------------------------------------------------
                                 ORCA SCF
-------------------------------------------------------------------------------

------------
SCF SETTINGS
------------
Hamiltonian:
 Ab initio Hamiltonian  Method          .... Hartree-Fock(GTOs)


General Settings:
 Integral files         IntName         .... 02_He
 Hartree-Fock type      HFTyp           .... RHF
 Total Charge           Charge          ....    0
 Multiplicity           Mult            ....    1
 Number of Electrons    NEL             ....    2
 Basis Dimension        Dim             ....   46
 Nuclear Repulsion      ENuc            ....      0.0000000000 Eh

Convergence Acceleration:
 DIIS                   CNVDIIS         .... on
   Start iteration      DIISMaxIt       ....    12
   Startup error        DIISStart       ....  0.200000
   # of expansion vecs  DIISMaxEq       ....     5
   Bias factor          DIISBfac        ....   1.050
   Max. coefficient     DIISMaxC        ....  10.000
 Newton-Raphson         CNVNR           .... off
 SOSCF                  CNVSOSCF        .... on
   Start iteration      SOSCFMaxIt      ....   150
   Startup grad/error   SOSCFStart      ....  0.003300
 Level Shifting         CNVShift        .... on
   Level shift para.    LevelShift      ....    0.2500
   Turn off err/grad.   ShiftErr        ....    0.0010
 Zerner damping         CNVZerner       .... off
 Static damping         CNVDamp         .... on
   Fraction old density DampFac         ....    0.7000
   Max. Damping (<1)    DampMax         ....    0.9800
   Min. Damping (>=0)   DampMin         ....    0.0000
   Turn off err/grad.   DampErr         ....    0.1000
 Fernandez-Rico         CNVRico         .... off

SCF Procedure:
 Maximum # iterations   MaxIter         ....   125
 SCF integral mode      SCFMode         .... Direct
   Integral package                     .... LIBINT
 Reset frequency        DirectResetFreq ....    20
 Integral Threshold     Thresh          ....  2.500e-11 Eh
 Primitive CutOff       TCut            ....  2.500e-12 Eh

Convergence Tolerance:
 Convergence Check Mode ConvCheckMode   .... Total+1el-Energy
 Convergence forced     ConvForced      .... 1
 Energy Change          TolE            ....  1.000e-08 Eh
 1-El. energy change                    ....  1.000e-05 Eh
 Orbital Gradient       TolG            ....  1.000e-05
 Orbital Rotation angle TolX            ....  1.000e-05
 DIIS Error             TolErr          ....  5.000e-07


Diagonalization of the overlap matrix:
Smallest eigenvalue                        ... 3.141e-02
Time for diagonalization                   ...    0.001 sec
Threshold for overlap eigenvalues          ... 1.000e-08
Number of eigenvalues below threshold      ... 0
Time for construction of square roots      ...    0.001 sec
Total time needed                          ...    0.002 sec

-------------------
DFT GRID GENERATION
-------------------

General Integration Accuracy     IntAcc      ...  4.340
Radial Grid Type                 RadialGrid  ... Gauss-Chebyshev
Angular Grid (max. acc.)         AngularGrid ... Lebedev-110
Angular grid pruning method      GridPruning ... 3 (G Style)
Weight generation scheme         WeightScheme... Becke
Basis function cutoff            BFCut       ...    1.0000e-11
Integration weight cutoff        WCut        ...    1.0000e-14
Grids for H and He will be reduced by one unit

# of grid points (after initial pruning)     ...    784 (   0.0 sec)
# of grid points (after weights+screening)   ...    784 (   0.0 sec)
Grid point division into batches done        ...    0.0 sec
Reduced shell lists constructed in    0.0 sec

Total number of grid points                  ...      784
Total number of batches                      ...       13
Average number of points per batch           ...       60
Average number of grid points per atom       ...      784
Average number of shells per batch           ...    12.57 (89.80%)
Average number of basis functions per batch  ...    41.43 (90.06%)
Average number of large shells per batch     ...    12.43 (98.86%)
Average number of large basis fcns per batch ...    40.43 (97.59%)
Maximum spatial batch extension              ...  19.83, 24.28, 24.28 au
Average spatial batch extension              ...   7.85,  9.20, 10.56 au

Time for grid setup =    0.004 sec

------------------------------
INITIAL GUESS: MODEL POTENTIAL
------------------------------
Loading Hartree-Fock densities                     ... done
Calculating cut-offs                               ... done
Setting up the integral package                    ... done
Initializing the effective Hamiltonian             ... done
Starting the Coulomb interaction                   ... done (   0.0 sec)
Reading the grid                                   ... done
Mapping shells                                     ... done
Starting the XC term evaluation                    ... done (   0.0 sec)
Transforming the Hamiltonian                       ... done (   0.0 sec)
Diagonalizing the Hamiltonian                      ... done (   0.0 sec)
Back transforming the eigenvectors                 ... done (   0.0 sec)
Now organizing SCF variables                       ... done
                      ------------------
                      INITIAL GUESS DONE (   0.1 sec)
                      ------------------
--------------
SCF ITERATIONS
--------------
ITER       Energy         Delta-E        Max-DP      RMS-DP      [F,P]     Damp
               ***  Starting incremental Fock matrix formation  ***
  0     -2.8580001314   0.000000000000 0.00902568  0.00034409  0.0865302 0.7000
  1     -2.8589099564  -0.000909825030 0.00782139  0.00031049  0.0664826 0.7000
                               ***Turning on DIIS***
  2     -2.8596180826  -0.000708126150 0.02125263  0.00081004  0.0493812 0.0000
  3     -2.8601682877  -0.000550205147 0.00679862  0.00018898  0.0073192 0.0000
                      *** Initiating the SOSCF procedure ***
                           *** Shutting down DIIS ***
                      *** Re-Reading the Fockian *** 
                      *** Removing any level shift *** 
ITER      Energy       Delta-E        Grad      Rot      Max-DP    RMS-DP
  4     -2.86113205  -0.0009637657  0.001076  0.001076  0.001752  0.000048
               *** Restarting incremental Fock matrix formation ***
  5     -2.86152184  -0.0003897907  0.000238  0.000234  0.000252  0.000009
  6     -2.86152199  -0.0000001443  0.000051  0.000064  0.000068  0.000003
                 **** Energy Check signals convergence ****
              ***Rediagonalizing the Fockian in SOSCF/NRSCF***

               *****************************************************
               *                     SUCCESS                       *
               *           SCF CONVERGED AFTER   7 CYCLES          *
               *****************************************************


----------------
TOTAL SCF ENERGY
----------------

Total Energy       :           -2.86152200 Eh             -77.86597 eV

Components:
Nuclear Repulsion  :            0.00000000 Eh               0.00000 eV
Electronic Energy  :           -2.86152200 Eh             -77.86597 eV
One Electron Energy:           -3.88717969 Eh            -105.77554 eV
Two Electron Energy:            1.02565769 Eh              27.90956 eV

Virial components:
Potential Energy   :           -5.72269230 Eh            -155.72237 eV
Kinetic Energy     :            2.86117031 Eh              77.85640 eV
Virial Ratio       :            2.00012292


---------------
SCF CONVERGENCE
---------------

  Last Energy change         ...   -7.1184e-09  Tolerance :   1.0000e-08
  Last MAX-Density change    ...    1.9991e-06  Tolerance :   1.0000e-07
  Last RMS-Density change    ...    5.2086e-08  Tolerance :   5.0000e-09
  Last Orbital Gradient      ...    1.4016e-06  Tolerance :   1.0000e-05
  Last Orbital Rotation      ...    3.6584e-07  Tolerance :   1.0000e-05

             **** THE GBW FILE WAS UPDATED (02_He.gbw) ****
             **** DENSITY FILE WAS UPDATED (02_He.scfp) ****
             **** ENERGY FILE WAS UPDATED (02_He.en.tmp) ****
             **** THE GBW FILE WAS UPDATED (02_He.gbw) ****
             **** DENSITY FILE WAS UPDATED (02_He.scfp) ****
----------------
ORBITAL ENERGIES
----------------

  NO   OCC          E(Eh)            E(eV) 
   0   2.0000      -0.917932       -24.9782 
   1   0.0000       0.098748         2.6871 
   2   0.0000       0.347825         9.4648 
   3   0.0000       0.347825         9.4648 
   4   0.0000       0.347825         9.4648 
   5   0.0000       0.685403        18.6508 
   6   0.0000       1.148963        31.2649 
   7   0.0000       1.148963        31.2649 
   8   0.0000       1.148963        31.2649 
   9   0.0000       1.148963        31.2649 
  10   0.0000       1.148963        31.2649 
  11   0.0000       1.476085        40.1663 
  12   0.0000       1.476085        40.1663 
  13   0.0000       1.476085        40.1663 
  14   0.0000       2.955725        80.4294 
  15   0.0000       3.003209        81.7215 
  16   0.0000       3.003209        81.7215 
  17   0.0000       3.003209        81.7215 
  18   0.0000       3.003209        81.7215 
  19   0.0000       3.003209        81.7215 
  20   0.0000       3.003209        81.7215 
  21   0.0000       3.003209        81.7215 
  22   0.0000       4.577315       124.5551 
  23   0.0000       4.577315       124.5551 
  24   0.0000       4.577315       124.5551 
  25   0.0000       4.577315       124.5551 
  26   0.0000       4.577315       124.5551 
  27   0.0000       5.130345       139.6038 
  28   0.0000       5.130345       139.6038 
  29   0.0000       5.130345       139.6038 
  30   0.0000      12.535763       341.1154 
  31   0.0000      12.535763       341.1154 
  32   0.0000      12.535763       341.1154 
  33   0.0000      12.535763       341.1154 
  34   0.0000      12.535763       341.1154 
  35   0.0000      12.535763       341.1154 
  36   0.0000      12.535763       341.1154 
  37   0.0000      13.621517       370.6603 
  38   0.0000      16.643632       452.8963 
  39   0.0000      16.643632       452.8963 
  40   0.0000      16.643632       452.8963 
  41   0.0000      16.643632       452.8963 
  42   0.0000      16.643632       452.8963 
  43   0.0000      18.091756       492.3017 
  44   0.0000      18.091756       492.3017 
  45   0.0000      18.091756       492.3017 

                    ********************************
                    * MULLIKEN POPULATION ANALYSIS *
                    ********************************

-----------------------
MULLIKEN ATOMIC CHARGES
-----------------------
   0 He:    0.000000
Sum of atomic charges:    0.0000000

--------------------------------
MULLIKEN REDUCED ORBITAL CHARGES
--------------------------------
  0 Hes       :     2.000000  s :     2.000000
      pz      :     0.000000  p :     0.000000
      px      :     0.000000
      py      :     0.000000
      dz2     :     0.000000  d :     0.000000
      dxz     :     0.000000
      dyz     :     0.000000
      dx2y2   :     0.000000
      dxy     :     0.000000
      f0      :     0.000000  f :     0.000000
      f+1     :     0.000000
      f-1     :     0.000000
      f+2     :     0.000000
      f-2     :     0.000000
      f+3     :     0.000000
      f-3     :     0.000000


                     *******************************
                     * LOEWDIN POPULATION ANALYSIS *
                     *******************************

----------------------
LOEWDIN ATOMIC CHARGES
----------------------
   0 He:    0.000000

-------------------------------
LOEWDIN REDUCED ORBITAL CHARGES
-------------------------------
  0 Hes       :     2.000000  s :     2.000000
      pz      :     0.000000  p :     0.000000
      px      :     0.000000
      py      :     0.000000
      dz2     :     0.000000  d :     0.000000
      dxz     :     0.000000
      dyz     :     0.000000
      dx2y2   :     0.000000
      dxy     :     0.000000
      f0      :     0.000000  f :     0.000000
      f+1     :     0.000000
      f-1     :     0.000000
      f+2     :     0.000000
      f-2     :     0.000000
      f+3     :     0.000000
      f-3     :     0.000000


                      *****************************
                      * MAYER POPULATION ANALYSIS *
                      *****************************

  NA   - Mulliken gross atomic population
  ZA   - Total nuclear charge
  QA   - Mulliken gross atomic charge
  VA   - Mayer's total valence
  BVA  - Mayer's bonded valence
  FA   - Mayer's free valence

  ATOM       NA         ZA         QA         VA         BVA        FA
  0 He     2.0000     2.0000     0.0000     0.0000     0.0000     0.0000

  Mayer bond orders larger than 0.100000


--------------------------
ATOM BASIS FOR ELEMENT He
--------------------------
 NewGTO He
 S 8
    1        528.500000000000         0.000940316968
    2         79.310000000000         0.007216432562
    3         18.050000000000         0.035987130778
    4          5.085000000000         0.127825088119
    5          1.609000000000         0.307971939916
    6          0.536300000000         0.454819731729
    7          0.183300000000         0.235347328622
    8          0.048190000000         0.003451363462
 S 8
    1        528.500000000000         0.000148034601
    2         79.310000000000         0.001136086823
    3         18.050000000000         0.005665473170
    4          5.085000000000         0.020123571721
    5          1.609000000000         0.102122010877
    6          0.536300000000        -0.071140565272
    7          0.183300000000         0.714156537227
    8          0.048190000000        -1.384538032239
 S 8
    1        528.500000000000         0.000678820633
    2         79.310000000000         0.005209587282
    3         18.050000000000         0.025979332197
    4          5.085000000000         0.092277721386
    5          1.609000000000        -0.042142225054
    6          0.536300000000         1.573923159566
    7          0.183300000000        -2.491299462819
    8          0.048190000000         0.946031541855
 S 8
    1        528.500000000000         0.000546498307
    2         79.310000000000         0.004194083814
    3         18.050000000000         0.020915187856
    4          5.085000000000         0.074290049608
    5          1.609000000000         1.869495636859
    6          0.536300000000        -3.029228280902
    7          0.183300000000         1.729137633140
    8          0.048190000000        -0.442607626793
 S 8
    1        528.500000000000         0.009939832971
    2         79.310000000000         0.076282930909
    3         18.050000000000         0.380410096957
    4          5.085000000000         1.351203975242
    5          1.609000000000        -2.471081789927
    6          0.536300000000         1.818745369075
    7          0.183300000000        -0.826859625431
    8          0.048190000000         0.206744618156
 P 4
    1          5.994000000000        -0.006065788819
    2          1.745000000000         0.062846759798
    3          0.560000000000        -0.174540463459
    4          0.162600000000         1.091904434216
 P 4
    1          5.994000000000         0.047122538558
    2          1.745000000000        -0.180390139888
    3          0.560000000000         1.431914042318
    4          0.162600000000        -0.777591707005
 P 4
    1          5.994000000000        -0.114058059106
    2          1.745000000000         1.559468029313
    3          0.560000000000        -1.234486252633
    4          0.162600000000         0.400052545734
 P 4
    1          5.994000000000         1.407387391942
    2          1.745000000000        -1.228264653864
    3          0.560000000000         0.603058069081
    4          0.162600000000        -0.181491027718
 D 3
    1          4.299000000000         0.023205994637
    2          1.223000000000        -0.138626412075
    3          0.351000000000         1.064764326833
 D 3
    1          4.299000000000        -0.109017819547
    2          1.223000000000         1.234877812353
    3          0.351000000000        -0.531963731869
 D 3
    1          4.299000000000         1.199855144063
    2          1.223000000000        -0.664564469253
    3          0.351000000000         0.211690288970
 F 2
    1          2.680000000000         0.076719112282
    2          0.690600000000        -1.026752038324
 F 2
    1          2.680000000000         1.079104432882
    2          0.690600000000        -0.340782116684
 end
  // -----------------------------------------------
  // The basis set
  // -----------------------------------------------
  BAS[ATNO] = new BFNGauss[NSH];
  // Basis function   1 L = s
  InitBFNGauss(BAS[ATNO][  0]);
  BAS[ATNO][  0].l  = 0;
  BAS[ATNO][  0].ng = 8;
  BAS[ATNO][  0].a[  0] =       528.500000000000;     BAS[ATNO][  0].d[  0] =         0.000940316968;
  BAS[ATNO][  0].a[  1] =        79.310000000000;     BAS[ATNO][  0].d[  1] =         0.007216432562;
  BAS[ATNO][  0].a[  2] =        18.050000000000;     BAS[ATNO][  0].d[  2] =         0.035987130778;
  BAS[ATNO][  0].a[  3] =         5.085000000000;     BAS[ATNO][  0].d[  3] =         0.127825088119;
  BAS[ATNO][  0].a[  4] =         1.609000000000;     BAS[ATNO][  0].d[  4] =         0.307971939916;
  BAS[ATNO][  0].a[  5] =         0.536300000000;     BAS[ATNO][  0].d[  5] =         0.454819731729;
  BAS[ATNO][  0].a[  6] =         0.183300000000;     BAS[ATNO][  0].d[  6] =         0.235347328622;
  BAS[ATNO][  0].a[  7] =         0.048190000000;     BAS[ATNO][  0].d[  7] =         0.003451363462;

  // Basis function   2 L = s
  InitBFNGauss(BAS[ATNO][  1]);
  BAS[ATNO][  1].l  = 0;
  BAS[ATNO][  1].ng = 8;
  BAS[ATNO][  1].a[  0] =       528.500000000000;     BAS[ATNO][  1].d[  0] =        -0.000148034601;
  BAS[ATNO][  1].a[  1] =        79.310000000000;     BAS[ATNO][  1].d[  1] =        -0.001136086823;
  BAS[ATNO][  1].a[  2] =        18.050000000000;     BAS[ATNO][  1].d[  2] =        -0.005665473170;
  BAS[ATNO][  1].a[  3] =         5.085000000000;     BAS[ATNO][  1].d[  3] =        -0.020123571721;
  BAS[ATNO][  1].a[  4] =         1.609000000000;     BAS[ATNO][  1].d[  4] =        -0.102122010877;
  BAS[ATNO][  1].a[  5] =         0.536300000000;     BAS[ATNO][  1].d[  5] =         0.071140565272;
  BAS[ATNO][  1].a[  6] =         0.183300000000;     BAS[ATNO][  1].d[  6] =        -0.714156537227;
  BAS[ATNO][  1].a[  7] =         0.048190000000;     BAS[ATNO][  1].d[  7] =         1.384538032239;

  // Basis function   3 L = s
  InitBFNGauss(BAS[ATNO][  2]);
  BAS[ATNO][  2].l  = 0;
  BAS[ATNO][  2].ng = 8;
  BAS[ATNO][  2].a[  0] =       528.500000000000;     BAS[ATNO][  2].d[  0] =        -0.000678820633;
  BAS[ATNO][  2].a[  1] =        79.310000000000;     BAS[ATNO][  2].d[  1] =        -0.005209587282;
  BAS[ATNO][  2].a[  2] =        18.050000000000;     BAS[ATNO][  2].d[  2] =        -0.025979332197;
  BAS[ATNO][  2].a[  3] =         5.085000000000;     BAS[ATNO][  2].d[  3] =        -0.092277721386;
  BAS[ATNO][  2].a[  4] =         1.609000000000;     BAS[ATNO][  2].d[  4] =         0.042142225054;
  BAS[ATNO][  2].a[  5] =         0.536300000000;     BAS[ATNO][  2].d[  5] =        -1.573923159566;
  BAS[ATNO][  2].a[  6] =         0.183300000000;     BAS[ATNO][  2].d[  6] =         2.491299462819;
  BAS[ATNO][  2].a[  7] =         0.048190000000;     BAS[ATNO][  2].d[  7] =        -0.946031541855;

  // Basis function   4 L = s
  InitBFNGauss(BAS[ATNO][  3]);
  BAS[ATNO][  3].l  = 0;
  BAS[ATNO][  3].ng = 8;
  BAS[ATNO][  3].a[  0] =       528.500000000000;     BAS[ATNO][  3].d[  0] =        -0.000546498307;
  BAS[ATNO][  3].a[  1] =        79.310000000000;     BAS[ATNO][  3].d[  1] =        -0.004194083814;
  BAS[ATNO][  3].a[  2] =        18.050000000000;     BAS[ATNO][  3].d[  2] =        -0.020915187856;
  BAS[ATNO][  3].a[  3] =         5.085000000000;     BAS[ATNO][  3].d[  3] =        -0.074290049608;
  BAS[ATNO][  3].a[  4] =         1.609000000000;     BAS[ATNO][  3].d[  4] =        -1.869495636859;
  BAS[ATNO][  3].a[  5] =         0.536300000000;     BAS[ATNO][  3].d[  5] =         3.029228280902;
  BAS[ATNO][  3].a[  6] =         0.183300000000;     BAS[ATNO][  3].d[  6] =        -1.729137633140;
  BAS[ATNO][  3].a[  7] =         0.048190000000;     BAS[ATNO][  3].d[  7] =         0.442607626793;

  // Basis function   5 L = s
  InitBFNGauss(BAS[ATNO][  4]);
  BAS[ATNO][  4].l  = 0;
  BAS[ATNO][  4].ng = 8;
  BAS[ATNO][  4].a[  0] =       528.500000000000;     BAS[ATNO][  4].d[  0] =        -0.009939832971;
  BAS[ATNO][  4].a[  1] =        79.310000000000;     BAS[ATNO][  4].d[  1] =        -0.076282930909;
  BAS[ATNO][  4].a[  2] =        18.050000000000;     BAS[ATNO][  4].d[  2] =        -0.380410096957;
  BAS[ATNO][  4].a[  3] =         5.085000000000;     BAS[ATNO][  4].d[  3] =        -1.351203975242;
  BAS[ATNO][  4].a[  4] =         1.609000000000;     BAS[ATNO][  4].d[  4] =         2.471081789927;
  BAS[ATNO][  4].a[  5] =         0.536300000000;     BAS[ATNO][  4].d[  5] =        -1.818745369075;
  BAS[ATNO][  4].a[  6] =         0.183300000000;     BAS[ATNO][  4].d[  6] =         0.826859625431;
  BAS[ATNO][  4].a[  7] =         0.048190000000;     BAS[ATNO][  4].d[  7] =        -0.206744618156;

  // Basis function   6 L = p
  InitBFNGauss(BAS[ATNO][  5]);
  BAS[ATNO][  5].l  = 1;
  BAS[ATNO][  5].ng = 4;
  BAS[ATNO][  5].a[  0] =         5.994000000000;     BAS[ATNO][  5].d[  0] =        -0.006065788819;
  BAS[ATNO][  5].a[  1] =         1.745000000000;     BAS[ATNO][  5].d[  1] =         0.062846759798;
  BAS[ATNO][  5].a[  2] =         0.560000000000;     BAS[ATNO][  5].d[  2] =        -0.174540463459;
  BAS[ATNO][  5].a[  3] =         0.162600000000;     BAS[ATNO][  5].d[  3] =         1.091904434216;

  // Basis function   7 L = p
  InitBFNGauss(BAS[ATNO][  6]);
  BAS[ATNO][  6].l  = 1;
  BAS[ATNO][  6].ng = 4;
  BAS[ATNO][  6].a[  0] =         5.994000000000;     BAS[ATNO][  6].d[  0] =         0.047122538558;
  BAS[ATNO][  6].a[  1] =         1.745000000000;     BAS[ATNO][  6].d[  1] =        -0.180390139888;
  BAS[ATNO][  6].a[  2] =         0.560000000000;     BAS[ATNO][  6].d[  2] =         1.431914042318;
  BAS[ATNO][  6].a[  3] =         0.162600000000;     BAS[ATNO][  6].d[  3] =        -0.777591707005;

  // Basis function   8 L = p
  InitBFNGauss(BAS[ATNO][  7]);
  BAS[ATNO][  7].l  = 1;
  BAS[ATNO][  7].ng = 4;
  BAS[ATNO][  7].a[  0] =         5.994000000000;     BAS[ATNO][  7].d[  0] =        -0.114058059106;
  BAS[ATNO][  7].a[  1] =         1.745000000000;     BAS[ATNO][  7].d[  1] =         1.559468029313;
  BAS[ATNO][  7].a[  2] =         0.560000000000;     BAS[ATNO][  7].d[  2] =        -1.234486252633;
  BAS[ATNO][  7].a[  3] =         0.162600000000;     BAS[ATNO][  7].d[  3] =         0.400052545734;

  // Basis function   9 L = p
  InitBFNGauss(BAS[ATNO][  8]);
  BAS[ATNO][  8].l  = 1;
  BAS[ATNO][  8].ng = 4;
  BAS[ATNO][  8].a[  0] =         5.994000000000;     BAS[ATNO][  8].d[  0] =         1.407387391942;
  BAS[ATNO][  8].a[  1] =         1.745000000000;     BAS[ATNO][  8].d[  1] =        -1.228264653864;
  BAS[ATNO][  8].a[  2] =         0.560000000000;     BAS[ATNO][  8].d[  2] =         0.603058069081;
  BAS[ATNO][  8].a[  3] =         0.162600000000;     BAS[ATNO][  8].d[  3] =        -0.181491027718;

  // Basis function  10 L = d
  InitBFNGauss(BAS[ATNO][  9]);
  BAS[ATNO][  9].l  = 2;
  BAS[ATNO][  9].ng = 3;
  BAS[ATNO][  9].a[  0] =         4.299000000000;     BAS[ATNO][  9].d[  0] =         0.023205994637;
  BAS[ATNO][  9].a[  1] =         1.223000000000;     BAS[ATNO][  9].d[  1] =        -0.138626412075;
  BAS[ATNO][  9].a[  2] =         0.351000000000;     BAS[ATNO][  9].d[  2] =         1.064764326833;

  // Basis function  11 L = d
  InitBFNGauss(BAS[ATNO][ 10]);
  BAS[ATNO][ 10].l  = 2;
  BAS[ATNO][ 10].ng = 3;
  BAS[ATNO][ 10].a[  0] =         4.299000000000;     BAS[ATNO][ 10].d[  0] =        -0.109017819547;
  BAS[ATNO][ 10].a[  1] =         1.223000000000;     BAS[ATNO][ 10].d[  1] =         1.234877812353;
  BAS[ATNO][ 10].a[  2] =         0.351000000000;     BAS[ATNO][ 10].d[  2] =        -0.531963731869;

  // Basis function  12 L = d
  InitBFNGauss(BAS[ATNO][ 11]);
  BAS[ATNO][ 11].l  = 2;
  BAS[ATNO][ 11].ng = 3;
  BAS[ATNO][ 11].a[  0] =         4.299000000000;     BAS[ATNO][ 11].d[  0] =         1.199855144063;
  BAS[ATNO][ 11].a[  1] =         1.223000000000;     BAS[ATNO][ 11].d[  1] =        -0.664564469253;
  BAS[ATNO][ 11].a[  2] =         0.351000000000;     BAS[ATNO][ 11].d[  2] =         0.211690288970;

  // Basis function  13 L = f
  InitBFNGauss(BAS[ATNO][ 12]);
  BAS[ATNO][ 12].l  = 3;
  BAS[ATNO][ 12].ng = 2;
  BAS[ATNO][ 12].a[  0] =         2.680000000000;     BAS[ATNO][ 12].d[  0] =        -0.076719112282;
  BAS[ATNO][ 12].a[  1] =         0.690600000000;     BAS[ATNO][ 12].d[  1] =         1.026752038324;

  // Basis function  14 L = f
  InitBFNGauss(BAS[ATNO][ 13]);
  BAS[ATNO][ 13].l  = 3;
  BAS[ATNO][ 13].ng = 2;
  BAS[ATNO][ 13].a[  0] =         2.680000000000;     BAS[ATNO][ 13].d[  0] =         1.079104432882;
  BAS[ATNO][ 13].a[  1] =         0.690600000000;     BAS[ATNO][ 13].d[  1] =        -0.340782116684;

-------------------------------------------
RADIAL EXPECTATION VALUES <R**-3> TO <R**3>
-------------------------------------------
   0 :     0.000000     5.985809     1.687087     0.927490     1.185789     1.943876
   1 :     0.000000     0.239914     0.272582     4.547706    22.591250   120.561588
   2 :     0.000000     1.774958     0.667691     2.748219    10.265471    48.310571
   3 :     0.000000     5.892662     1.491780     1.419385     3.421468    12.485932
   4 :     0.000000    48.295127     4.407110     0.614089     0.936535     2.852298
   5 :     0.115277     0.187853     0.400635     2.781532     8.421164    27.386031
   6 :     0.115277     0.187853     0.400635     2.781532     8.421164    27.386031
   7 :     0.115277     0.187853     0.400635     2.781532     8.421164    27.386031
   8 :     0.861701     0.678158     0.731430     1.757232     4.048092    11.778355
   9 :     0.861701     0.678158     0.731430     1.757232     4.048092    11.778355
  10 :     0.861701     0.678158     0.731430     1.757232     4.048092    11.778355
  11 :     4.184478     2.063669     1.278167     1.068172     1.683717     3.839688
  12 :     4.184478     2.063669     1.278167     1.068172     1.683717     3.839688
  13 :     4.184478     2.063669     1.278167     1.068172     1.683717     3.839688
  14 :    35.965250     8.352453     2.536616     0.566537     0.543371     0.932139
  15 :    35.965250     8.352453     2.536616     0.566537     0.543371     0.932139
  16 :    35.965250     8.352453     2.536616     0.566537     0.543371     0.932139
  17 :     0.137377     0.243588     0.475469     2.243662     5.336449    66.949590
  18 :     0.137377     0.243588     0.475469     2.243662     5.336449    66.949590
  19 :     0.137377     0.243588     0.475469     2.243662     5.336449    66.949590
  20 :     0.137377     0.243588     0.475469     2.243662     5.336449    66.949590
  21 :     0.137377     0.243588     0.475469     2.243662     5.336449    66.949590
  22 :     0.973330     0.889533     0.894069     1.284497     1.979983    18.789279
  23 :     0.973330     0.889533     0.894069     1.284497     1.979983    18.789279
  24 :     0.973330     0.889533     0.894069     1.284497     1.979983    18.789279
  25 :     0.973330     0.889533     0.894069     1.284497     1.979983    18.789279
  26 :     0.973330     0.889533     0.894069     1.284497     1.979983    18.789279
  27 :     8.263694     3.565279     1.760339     0.685669     0.625402     4.152751
  28 :     8.263694     3.565279     1.760339     0.685669     0.625402     4.152751
  29 :     8.263694     3.565279     1.760339     0.685669     0.625402     4.152751
  30 :     8.263694     3.565279     1.760339     0.685669     0.625402     4.152751
  31 :     8.263694     3.565279     1.760339     0.685669     0.625402     4.152751
  32 :     0.242846     0.367156     0.589204     1.788539     3.359382    46.233731
  33 :     0.242846     0.367156     0.589204     1.788539     3.359382    46.233731
  34 :     0.242846     0.367156     0.589204     1.788539     3.359382    46.233731
  35 :     0.242846     0.367156     0.589204     1.788539     3.359382    46.233731
  36 :     0.242846     0.367156     0.589204     1.788539     3.359382    46.233731
  37 :     0.242846     0.367156     0.589204     1.788539     3.359382    46.233731
  38 :     0.242846     0.367156     0.589204     1.788539     3.359382    46.233731
  39 :     2.218472     1.558902     1.195314     0.926329     0.981374     8.668620
  40 :     2.218472     1.558902     1.195314     0.926329     0.981374     8.668620
  41 :     2.218472     1.558902     1.195314     0.926329     0.981374     8.668620
  42 :     2.218472     1.558902     1.195314     0.926329     0.981374     8.668620
  43 :     2.218472     1.558902     1.195314     0.926329     0.981374     8.668620
  44 :     2.218472     1.558902     1.195314     0.926329     0.981374     8.668620
  45 :     2.218472     1.558902     1.195314     0.926329     0.981374     8.668620
-------
TIMINGS
-------

Total SCF time: 0 days 0 hours 0 min 0 sec 

Total time                  ....       0.742 sec
Sum of individual times     ....       0.571 sec  ( 77.0%)

Fock matrix formation       ....       0.479 sec  ( 64.5%)
Diagonalization             ....       0.002 sec  (  0.2%)
Density matrix formation    ....       0.000 sec  (  0.0%)
Population analysis         ....       0.005 sec  (  0.7%)
Initial guess               ....       0.073 sec  (  9.8%)
Orbital Transformation      ....       0.000 sec  (  0.0%)
Orbital Orthonormalization  ....       0.000 sec  (  0.0%)
DIIS solution               ....       0.007 sec  (  0.9%)
SOSCF solution              ....       0.002 sec  (  0.3%)


------------------------------------------------------------------------------- 
                              ORCA-MATRIX DRIVEN CI                            
------------------------------------------------------------------------------- 

--------------------------------
AUTOMATIC CHOICE OF INCORE LEVEL
--------------------------------

Memory available                           ...   2500.00 MB
Memory needed for S+T                      ...      0.05 MB
Memory needed for J+K                      ...      0.09 MB
Memory needed for DIIS                     ...      0.65 MB
Memory needed for 3-ext                    ...      0.70 MB
Memory needed for 4-ext                    ...     15.99 MB
Memory needed for triples                  ...      3.48 MB
 -> Final InCoreLevel    ... 5
 -> check shows that triples correction can be computed


Wavefunction type
-----------------
Correlation treatment                      ...      CCSD     
Single excitations                         ... ON
Orbital optimization                       ... OFF
Calculation of Z vector                    ... OFF
Calculation of Brueckner orbitals          ... OFF
Perturbative triple excitations            ... ON
Calculation of F12 correction              ... OFF
Frozen core treatment                      ... chemical core (0 el)
Reference Wavefunction                     ... RHF
  Internal Orbitals:     0 ...    0 (  1 MO's/  2 electrons)
  Virtual  Orbitals:     1 ...   45 ( 45 MO's              )
Number of AO's                             ...     46
Number of electrons                        ...      2
Number of correlated electrons             ...      2

Algorithmic settings
--------------------
Integral transformation                    ... AO direct full transformation
K(C) Formation                             ... FULL-MO TRAFO
Maximum number of iterations               ...        50
Convergence tolerance (max. residuum)      ... 1.000e-05
Level shift for amplitude update           ... 2.000e-01
Maximum number of DIIS vectors             ...         7
DIIS turned on at iteration                ...         0
Damping before turning on DIIS             ...     0.500
Damping after turning on DIIS              ...     0.000
Pair specific amplitude update             ... OFF
Natural orbital iterations                 ... OFF
Perturbative natural orbital generation    ... OFF
Printlevel                                 ... 2

Memory handling:
----------------
Maximum memory for working arrays          ...   2500 MB
Data storage in matrix containers          ... UNCOMPRESSED
Data type for integral storage             ... DOUBLE
In-Core Storage of quantities:
   Amplitudes+Sigma Vector      ... YES
   J+K operators                ... YES
   DIIS vectors                 ... YES
   3-external integrals         ... YES
   4-external integrals         ... YES


Initializing the integral package          ... done
Warning: reference  - re-canonicalizations have been set to INT 1 VIRT 1

--------------------------
CLOSED-SHELL FOCK OPERATOR
--------------------------

<ss|ss>:          120 b            0 skpd (  0.0%)    0.000 s ( 0.000 ms/b)
<ss|sp>:          300 b            0 skpd (  0.0%)    0.000 s ( 0.000 ms/b)
<ss|sd>:          225 b            0 skpd (  0.0%)    0.000 s ( 0.001 ms/b)
<ss|sf>:          150 b            0 skpd (  0.0%)    0.000 s ( 0.001 ms/b)
<ss|pp>:          150 b            0 skpd (  0.0%)    0.000 s ( 0.000 ms/b)
<ss|pd>:          180 b            0 skpd (  0.0%)    0.000 s ( 0.001 ms/b)
<ss|pf>:          120 b            0 skpd (  0.0%)    0.000 s ( 0.001 ms/b)
<ss|dd>:           90 b            0 skpd (  0.0%)    0.000 s ( 0.001 ms/b)
<ss|df>:           90 b            0 skpd (  0.0%)    0.000 s ( 0.002 ms/b)
<ss|ff>:           45 b            0 skpd (  0.0%)    0.000 s ( 0.002 ms/b)
<sp|sp>:          210 b            0 skpd (  0.0%)    0.000 s ( 0.000 ms/b)
<sp|sd>:          300 b            0 skpd (  0.0%)    0.000 s ( 0.001 ms/b)
<sp|sf>:          200 b            0 skpd (  0.0%)    0.000 s ( 0.001 ms/b)
<sp|pp>: done
<sp|pd>: done
<sp|pf>: done
<sp|dd>: done
<sp|df>: done
<sp|ff>: done
<sd|sd>:          120 b            0 skpd (  0.0%)    0.000 s ( 0.001 ms/b)
<sd|sf>:          150 b            0 skpd (  0.0%)    0.000 s ( 0.002 ms/b)
<sd|pp>: done
<sd|pd>: done
<sd|pf>: done
<sd|dd>: done
<sd|df>: done
<sd|ff>: done
<sf|sf>:           55 b            0 skpd (  0.0%)    0.000 s ( 0.004 ms/b)
<sf|pp>: done
<sf|pd>: done
<sf|pf>: done
<sf|dd>: done
<sf|df>: done
<sf|ff>: done
<pp|pp>: done
<pp|pd>: done
<pp|pf>: done
<pp|dd>: done
<pp|df>: done
<pp|ff>: done
<pd|pd>: done
<pd|pf>: done
<pd|dd>: done
<pd|df>: done
<pd|ff>: done
<pf|pf>: done
<pf|dd>: done
<pf|df>: done
<pf|ff>: done
<dd|dd>: done
<dd|df>: done
<dd|ff>: done
<df|df>: done
<df|ff>: done
<ff|ff>: done
Recanonicalizing the internal orbitals
Recanonicalizing the virtual orbitals
Time needed for Fock operator              ...            0.027 sec
Reference energy                           ...     -2.861521996

------------------------------
PARTIAL COULOMB TRANSFORMATION
------------------------------

Transformation type                        ... one-operator
Dimension of the basis                     ...   46
Number of internal MOs                     ...   46 (0-45)
Pair cutoff                                ... 0.000e+00 Eh
Number of AO pairs included in the trafo   ... 1081
Total Number of distinct AO pairs          ... 1081
Memory devoted for trafo                   ... 2500.0 MB 
Max. Number of MO pairs treated together   ... 303126      
Max. Number of MOs treated per batch       ... 6589      
Number Format for Storage                  ... Double (8 Byte)
AO-integral source                         ... DIRECT
Integral package used                      ... LIBINT

Starting integral evaluation:
<ss|**>:         1575 b        0 skpd     0.007 s (  0.004 ms/b)
<sp|**>:         2100 b        0 skpd     0.024 s (  0.012 ms/b)
<sd|**>:         1575 b        0 skpd     0.033 s (  0.021 ms/b)
<sf|**>:         1050 b        0 skpd     0.034 s (  0.032 ms/b)
<pp|**>:         1050 b        0 skpd     0.033 s (  0.031 ms/b)
<pd|**>:         1260 b        0 skpd     0.075 s (  0.059 ms/b)
<pf|**>:          840 b        0 skpd     0.073 s (  0.087 ms/b)
<dd|**>:          630 b        0 skpd     0.054 s (  0.086 ms/b)
<df|**>:          630 b        0 skpd     0.093 s (  0.148 ms/b)
<ff|**>:          315 b        0 skpd     0.054 s (  0.170 ms/b)
Closing buffer AOJ ( 0.01 GB; CompressionRatio= 1.00)
Collecting buffer AOJ 
    ... done with AO integral generation
Number of MO pairs included in the trafo   ... 1081
    ... Now sorting integrals
IBATCH = 1 of  1
Closing buffer JAO ( 0.01 GB; CompressionRatio= 1.00)
Collecting buffer JAO 
TOTAL TIME for half transformation         ...     0.912 sec
AO-integral generation                     ...     0.092 sec
Half transformation                        ...     0.387 sec
J-integral sorting                         ...     0.428 sec

-------------------------- SECOND HALF TRANSFORMATION -------------------------
Formation of (pq|rs)                       ... ok (     0.394 sec)
Integral sorting                           ... ok (     0.065 sec)

------------------
CLOSED SHELL GUESS
------------------

Initial guess performed in     0.000 sec
E(0)                                       ...     -2.861521996
E(MP2)                                     ...     -0.035724130
Initial E(tot)                             ...     -2.897246126
<T|T>                                      ...      0.005594822
Number of pairs included                   ... 1
Total number of pairs                      ... 1

------------------------------------------------
                  RHF COUPLED CLUSTER ITERATIONS
------------------------------------------------

Number of amplitudes to be optimized       ... 2070

Iter       E(tot)           E(Corr)          Delta-E          Residual     Time
  0     -2.897246126     -0.035724130      0.000000000      0.023754812    0.01
                           *** Turning on DIIS ***
  1     -2.901196395     -0.039674400     -0.003950270      0.006603515    0.01
  2     -2.902452847     -0.040930851     -0.001256451      0.000807333    0.01
  3     -2.902524889     -0.041002893     -0.000072042      0.000209601    0.01
  4     -2.902532961     -0.041010965     -0.000008072      0.000035869    0.01
  5     -2.902533564     -0.041011569     -0.000000604      0.000006771    0.01
               --- The Coupled-Cluster iterations have converged ---

----------------------
COUPLED CLUSTER ENERGY
----------------------

E(0)                                       ...     -2.861521996
E(CORR)                                    ...     -0.041011569
E(TOT)                                     ...     -2.902533564
Singles Norm <S|S>**1/2                    ...      0.002094090  
T1 diagnostic                              ...      0.001480745  

------------------
LARGEST AMPLITUDES
------------------
   0->  5   0->  5       0.034128
   0-> 14   0-> 14       0.024728
   0-> 14   0->  5       0.024403
   0->  5   0-> 14       0.024403
   0-> 12   0-> 12       0.022427
   0-> 13   0-> 13       0.022427
   0-> 11   0-> 11       0.022427
   0->  1   0->  5       0.016207
   0->  5   0->  1       0.016207
   0->  4   0-> 12       0.012506
   0-> 12   0->  4       0.012506
   0->  3   0-> 13       0.012397
   0-> 13   0->  3       0.012397
   0->  2   0-> 11       0.012296
   0-> 11   0->  2       0.012296
   0-> 12   0-> 28       0.011279


        !!!!!!!!!!!!!!!!!!!!!!!!!!!!!!!!!!!!!!!!!!!!!!!!!!!!!!!!!!!!!!!!!!!!!!!!!! 
        !  Warning: Densities are linearized densities !                         !
        !!!!!!!!!!!!!!!!!!!!!!!!!!!!!!!!!!!!!!!!!!!!!!!!!!!!!!!!!!!!!!!!!!!!!!!!!! 

Trace of internal density part =     -0.016249936
Trace of external density part =      0.016249936
----------------------
RHF TRIPLES CORRECTION (Algorithm 1)
----------------------

Multiplier for the singles contribution    ...      1.000000000

Triples Correction (T)                     ...      0.000000000
Scaling of triples based on CCSD energies (Peterson et al. Molecular Physics 113, 1551 (2015))
E(T*) = f*E(T) where f = E(F12-CCSD)/E(CCSD) 
f = CCSD (with F12)/ CCSD (without F12)    ...      1.000000000
Scaled triples correction (T)              ...      0.000000000

Final correlation energy                   ...     -0.041011569
E(CCSD)                                    ...     -2.902533564
E(CCSD(T))                                 ...     -2.902533564

NORM  =      1.008129353 sqrt=     1.004056449
W(HF) =      0.991936200
------------------------------------------------------------------------------
                           ORCA POPULATION ANALYSIS
------------------------------------------------------------------------------
Input electron density              ... 02_He.mdcip
BaseName (.gbw .S,...)              ... 02_He

                    ********************************
                    * MULLIKEN POPULATION ANALYSIS *
                    ********************************

-----------------------
MULLIKEN ATOMIC CHARGES
-----------------------
   0 He:    0.000000
Sum of atomic charges:    0.0000000

--------------------------------
MULLIKEN REDUCED ORBITAL CHARGES
--------------------------------
  0 Hes       :     1.991555  s :     1.991555
      pz      :     0.002676  p :     0.008028
      px      :     0.002676
      py      :     0.002676
      dz2     :     0.000074  d :     0.000368
      dxz     :     0.000074
      dyz     :     0.000074
      dx2y2   :     0.000074
      dxy     :     0.000074
      f0      :     0.000007  f :     0.000049
      f+1     :     0.000007
      f-1     :     0.000007
      f+2     :     0.000007
      f-2     :     0.000007
      f+3     :     0.000007
      f-3     :     0.000007


                     *******************************
                     * LOEWDIN POPULATION ANALYSIS *
                     *******************************

----------------------
LOEWDIN ATOMIC CHARGES
----------------------
   0 He:   -0.000000

-------------------------------
LOEWDIN REDUCED ORBITAL CHARGES
-------------------------------
  0 Hes       :     1.991555  s :     1.991555
      pz      :     0.002676  p :     0.008028
      px      :     0.002676
      py      :     0.002676
      dz2     :     0.000074  d :     0.000368
      dxz     :     0.000074
      dyz     :     0.000074
      dx2y2   :     0.000074
      dxy     :     0.000074
      f0      :     0.000007  f :     0.000049
      f+1     :     0.000007
      f-1     :     0.000007
      f+2     :     0.000007
      f-2     :     0.000007
      f+3     :     0.000007
      f-3     :     0.000007


                      *****************************
                      * MAYER POPULATION ANALYSIS *
                      *****************************

  NA   - Mulliken gross atomic population
  ZA   - Total nuclear charge
  QA   - Mulliken gross atomic charge
  VA   - Mayer's total valence
  BVA  - Mayer's bonded valence
  FA   - Mayer's free valence

  ATOM       NA         ZA         QA         VA         BVA        FA
  0 He     2.0000     2.0000     0.0000     0.0646     0.0000     0.0646





------------------------------------------------------------------------------- 
                                     TIMINGS                                   
------------------------------------------------------------------------------- 


Total execution time                   ...        1.736 sec

Fock Matrix Formation                  ...        0.027 sec (  1.6%)
Initial Guess                          ...        0.000 sec (  0.0%)
DIIS Solver                            ...        0.000 sec (  0.0%)
State Vector Update                    ...        0.000 sec (  0.0%)
Sigma-vector construction              ...        0.068 sec (  3.9%)
  <D|H|D>(4-ext)                       ...        0.042 sec ( 62.4% of sigma)
  <D|H|D>(4-ext-corr)                  ...        0.009 sec ( 12.8% of sigma)
  <S|H|D>(3-ext)                       ...        0.002 sec (  2.3% of sigma)
  Fock-dressing                        ...        0.011 sec ( 15.7% of sigma)
  (ij|ab),(ia|jb)-dressing             ...        0.001 sec (  2.0% of sigma)
Total Time for computing (T)           ...        0.000 sec (  0.0% of ALL)


-------------------------   --------------------
FINAL SINGLE POINT ENERGY        -2.902533564239
-------------------------   --------------------


                            ***************************************
                            *     ORCA property calculations      *
                            ***************************************

                                    ---------------------
                                    Active property flags
                                    ---------------------
   (+) Dipole Moment


------------------------------------------------------------------------------
                       ORCA ELECTRIC PROPERTIES CALCULATION
------------------------------------------------------------------------------

Dipole Moment Calculation                       ... on
Quadrupole Moment Calculation                   ... off
Polarizability Calculation                      ... off
GBWName                                         ... 02_He.gbw
Electron density file                           ... 02_He.scfp
The origin for moment calculation is the CENTER OF MASS  = ( 0.000000,  0.000000  0.000000)

-------------
DIPOLE MOMENT
-------------
                                X             Y             Z
Electronic contribution:     -0.00000       0.00000       0.00000
Nuclear contribution   :      0.00000       0.00000       0.00000
                        -----------------------------------------
Total Dipole Moment    :     -0.00000       0.00000       0.00000
                        -----------------------------------------
Magnitude (a.u.)       :      0.00000
Magnitude (Debye)      :      0.00000



--------------------
Rotational spectrum 
--------------------
 
Rotational constants in cm-1:     0.000000     0.000000     0.000000 
Rotational constants in MHz :     0.000000     0.000000     0.000000 

 Dipole components along the rotational axes: 
x,y,z [a.u.] :    -0.000000     0.000000     0.000000 
x,y,z [Debye]:    -0.000000     0.000000     0.000000 

 

                           *** MDCI DENSITY ***

------------------------------------------------------------------------------
                       ORCA ELECTRIC PROPERTIES CALCULATION
------------------------------------------------------------------------------

Dipole Moment Calculation                       ... on
Quadrupole Moment Calculation                   ... off
Polarizability Calculation                      ... off
GBWName                                         ... 02_He.gbw
Electron density file                           ... 02_He.mdcip
The origin for moment calculation is the CENTER OF MASS  = ( 0.000000,  0.000000  0.000000)

-------------
DIPOLE MOMENT
-------------
                                X             Y             Z
Electronic contribution:      0.00000       0.00000       0.00000
Nuclear contribution   :      0.00000       0.00000       0.00000
                        -----------------------------------------
Total Dipole Moment    :      0.00000       0.00000       0.00000
                        -----------------------------------------
Magnitude (a.u.)       :      0.00000
Magnitude (Debye)      :      0.00000



--------------------
Rotational spectrum 
--------------------
 
Rotational constants in cm-1:     0.000000     0.000000     0.000000 
Rotational constants in MHz :     0.000000     0.000000     0.000000 

 Dipole components along the rotational axes: 
x,y,z [a.u.] :     0.000000     0.000000     0.000000 
x,y,z [Debye]:     0.000000     0.000000     0.000000 

 

Timings for individual modules:

Sum of individual times         ...        2.955 sec (=   0.049 min)
GTO integral calculation        ...        0.216 sec (=   0.004 min)   7.3 %
SCF iterations                  ...        0.791 sec (=   0.013 min)  26.8 %
MDCI module                     ...        1.947 sec (=   0.032 min)  65.9 %
                             ****ORCA TERMINATED NORMALLY****
TOTAL RUN TIME: 0 days 0 hours 0 minutes 3 seconds 254 msec
