
                                 *****************
                                 * O   R   C   A *
                                 *****************

           --- An Ab Initio, DFT and Semiempirical electronic structure package ---

                  #######################################################
                  #                        -***-                        #
                  #          Department of theory and spectroscopy      #
                  #               Directorship: Frank Neese             #
                  #        Max Planck Institute fuer Kohlenforschung    #
                  #                Kaiser Wilhelm Platz 1               #
                  #                 D-45470 Muelheim/Ruhr               #
                  #                      Germany                        #
                  #                                                     #
                  #                  All rights reserved                #
                  #                        -***-                        #
                  #######################################################


                         Program Version 4.2.0 -  RELEASE  -


 With contributions from (in alphabetic order):
   Daniel Aravena         : Magnetic Suceptibility
   Michael Atanasov       : Ab Initio Ligand Field Theory (pilot matlab implementation)
   Alexander A. Auer      : GIAO ZORA, VPT2
   Ute Becker             : Parallelization
   Giovanni Bistoni       : ED, misc. LED, open-shell LED, HFLED
   Martin Brehm           : Molecular dynamics
   Dmytro Bykov           : SCF Hessian
   Vijay G. Chilkuri      : MRCI spin determinant printing, contributions to CSF-ICE
   Dipayan Datta          : RHF DLPNO-CCSD density
   Achintya Kumar Dutta   : EOM-CC, STEOM-CC
   Dmitry Ganyushin       : Spin-Orbit,Spin-Spin,Magnetic field MRCI
   Miquel Garcia          : C-PCM Hessian, Gaussian charge scheme
   Yang Guo               : DLPNO-NEVPT2, CIM, IAO-localization
   Andreas Hansen         : Spin unrestricted coupled pair/coupled cluster methods
   Benjamin Helmich-Paris : CASSCF linear response (MC-RPA)
   Lee Huntington         : MR-EOM, pCC
   Robert Izsak           : Overlap fitted RIJCOSX, COSX-SCS-MP3, EOM
   Christian Kollmar      : KDIIS, OOCD, Brueckner-CCSD(T), CCSD density
   Simone Kossmann        : Meta GGA functionals, TD-DFT gradient, OOMP2, MP2 Hessian
   Martin Krupicka        : AUTO-CI
   Lucas Lang             : DCDCAS
   Dagmar Lenk            : GEPOL surface, SMD
   Dimitrios Liakos       : Extrapolation schemes; Compound Job, initial MDCI parallelization
   Dimitrios Manganas     : Further ROCIS development; embedding schemes
   Dimitrios Pantazis     : SARC Basis sets
   Taras Petrenko         : DFT Hessian,TD-DFT gradient, ASA, ECA, R-Raman, ABS, FL, XAS/XES, NRVS
   Peter Pinski           : DLPNO-MP2, DLPNO-MP2 Gradient
   Christoph Reimann      : Effective Core Potentials
   Marius Retegan         : Local ZFS, SOC
   Christoph Riplinger    : Optimizer, TS searches, QM/MM, DLPNO-CCSD(T), (RO)-DLPNO pert. Triples
   Tobias Risthaus        : Range-separated hybrids, TD-DFT gradient, RPA, STAB
   Michael Roemelt        : Original ROCIS implementation
   Masaaki Saitow         : Open-shell DLPNO-CCSD energy and density
   Barbara Sandhoefer     : DKH picture change effects
   Avijit Sen             : IP-ROCIS
   Kantharuban Sivalingam : CASSCF convergence, NEVPT2, FIC-MRCI
   Bernardo de Souza      : ESD, SOC TD-DFT
   Georgi Stoychev        : AutoAux, RI-MP2 NMR
   Willem Van den Heuvel  : Paramagnetic NMR
   Boris Wezisla          : Elementary symmetry handling
   Frank Wennmohs         : Technical directorship


 We gratefully acknowledge several colleagues who have allowed us to
 interface, adapt or use parts of their codes:
   Stefan Grimme, W. Hujo, H. Kruse,             : VdW corrections, initial TS optimization,
                  C. Bannwarth                     DFT functionals, gCP, sTDA/sTD-DF
   Ed Valeev, F. Pavosevic, A. Kumar             : LibInt (2-el integral package), F12 methods
   Garnet Chan, S. Sharma, J. Yang, R. Olivares  : DMRG
   Ulf Ekstrom                                   : XCFun DFT Library
   Mihaly Kallay                                 : mrcc  (arbitrary order and MRCC methods)
   Andreas Klamt, Michael Diedenhofen            : otool_cosmo (COSMO solvation model)
   Jiri Pittner, Ondrej Demel                    : Mk-CCSD
   Frank Weinhold                                : gennbo (NPA and NBO analysis)
   Christopher J. Cramer and Donald G. Truhlar   : smd solvation model
   Lars Goerigk                                  : TD-DFT with DH, B97 family of functionals
   V. Asgeirsson, H. Jonsson                     : NEB implementation
   FAccTs GmbH                                   : IRC, NEB, NEB-TS, Multilevel, MM, QM/MM, CI optimization
   S Lehtola, MJT Oliveira, MAL Marques          : LibXC Library


 Your calculation uses the libint2 library for the computation of 2-el integrals
 For citations please refer to: http://libint.valeyev.net

 Your ORCA version has been built with support for libXC version: 4.2.3
 For citations please refer to: https://tddft.org/programs/libxc/

 This ORCA versions uses:
   CBLAS   interface :  Fast vector & matrix operations
   LAPACKE interface :  Fast linear algebra routines
   SCALAPACK package :  Parallel linear algebra routines


----- Orbital basis set information -----
Your calculation utilizes the basis: aug-cc-pV(Q+d)Z 
             Al - Ar: T.H. Dunning, Jr., K. A. Peterson and A. K. Wilson, J. Chem. Phys.
                      114, 9244 (2001)

================================================================================
                                        WARNINGS
                       Please study these warnings very carefully!
================================================================================


WARNING: your system is open-shell and RHF/RKS was chosen
  ===> : WILL SWITCH to UHF/UKS


WARNING: MDCI localization with Augmented Hessian Foster-Boys
  ===> : Switching off randomization!

WARNING: Post HF methods need fully converged wavefunctions
  ===> : Setting SCFConvForced true
         You can overwrite this default with %scf ConvForced false 


INFO   : the flag for use of LIBINT has been found!

================================================================================
                                       INPUT FILE
================================================================================
NAME = 05_B.in
|  1> #
|  2> # 05_B CCSD(T)/aug-cc-pvq(+d)z
|  3> #
|  4> ! CCSD(T) aug-cc-pvq(+d)z tightscf
|  5> 
|  6> *xyz 0 2
|  7>  B 0.0 0.0 0.0
|  8> *
|  9> 
| 10> %maxcore 5000 
| 11> 
| 12> %pal
| 13> nprocs 3 
| 14> end
| 15> 
| 16> 
| 17>                          ****END OF INPUT****
================================================================================

                       ****************************
                       * Single Point Calculation *
                       ****************************

---------------------------------
CARTESIAN COORDINATES (ANGSTROEM)
---------------------------------
  B      0.000000    0.000000    0.000000

----------------------------
CARTESIAN COORDINATES (A.U.)
----------------------------
  NO LB      ZA    FRAG     MASS         X           Y           Z
   0 B     5.0000    0    10.810    0.000000    0.000000    0.000000

--------------------------------
INTERNAL COORDINATES (ANGSTROEM)
--------------------------------
 B      0   0   0     0.000000000000     0.00000000     0.00000000

---------------------------
INTERNAL COORDINATES (A.U.)
---------------------------
 B      0   0   0     0.000000000000     0.00000000     0.00000000

---------------------
BASIS SET INFORMATION
---------------------
There are 1 groups of distinct atoms

 Group   1 Type B   : 22s7p4d3f2g contracted to 6s5p4d3f2g pattern {991111/31111/1111/111/11}

Atom   0B    basis set group =>   1


           ************************************************************
           *        Program running with 3 parallel MPI-processes     *
           *              working on a common directory               *
           ************************************************************
------------------------------------------------------------------------------
                           ORCA GTO INTEGRAL CALCULATION
------------------------------------------------------------------------------

                         BASIS SET STATISTICS AND STARTUP INFO

 # of primitive gaussian shells          ...   38
 # of primitive gaussian functions       ...  102
 # of contracted shells                  ...   20
 # of contracted basis functions         ...   80
 Highest angular momentum                ...    4
 Maximum contraction depth               ...    9
 Integral package used                   ... LIBINT
 Integral threshhold            Thresh   ...  2.500e-11
 Primitive cut-off              TCut     ...  2.500e-12


------------------------------ INTEGRAL EVALUATION ----------------------------


 * One electron integrals 
 Pre-screening matrix                    ... done
 Shell pair data                         ... done (   0.000 sec)



           ************************************************************
           *        Program running with 3 parallel MPI-processes     *
           *              working on a common directory               *
           ************************************************************
-------------------------------------------------------------------------------
                                 ORCA SCF
-------------------------------------------------------------------------------

------------
SCF SETTINGS
------------
Hamiltonian:
 Ab initio Hamiltonian  Method          .... Hartree-Fock(GTOs)


General Settings:
 Integral files         IntName         .... 05_B
 Hartree-Fock type      HFTyp           .... UHF
 Total Charge           Charge          ....    0
 Multiplicity           Mult            ....    2
 Number of Electrons    NEL             ....    5
 Basis Dimension        Dim             ....   80
 Nuclear Repulsion      ENuc            ....      0.0000000000 Eh

Convergence Acceleration:
 DIIS                   CNVDIIS         .... on
   Start iteration      DIISMaxIt       ....    12
   Startup error        DIISStart       ....  0.200000
   # of expansion vecs  DIISMaxEq       ....     5
   Bias factor          DIISBfac        ....   1.050
   Max. coefficient     DIISMaxC        ....  10.000
 Newton-Raphson         CNVNR           .... off
 SOSCF                  CNVSOSCF        .... off
 Level Shifting         CNVShift        .... on
   Level shift para.    LevelShift      ....    0.2500
   Turn off err/grad.   ShiftErr        ....    0.0010
 Zerner damping         CNVZerner       .... off
 Static damping         CNVDamp         .... on
   Fraction old density DampFac         ....    0.7000
   Max. Damping (<1)    DampMax         ....    0.9800
   Min. Damping (>=0)   DampMin         ....    0.0000
   Turn off err/grad.   DampErr         ....    0.1000
 Fernandez-Rico         CNVRico         .... off

SCF Procedure:
 Maximum # iterations   MaxIter         ....   125
 SCF integral mode      SCFMode         .... Direct
   Integral package                     .... LIBINT
 Reset frequency        DirectResetFreq ....    20
 Integral Threshold     Thresh          ....  2.500e-11 Eh
 Primitive CutOff       TCut            ....  2.500e-12 Eh

Convergence Tolerance:
 Convergence Check Mode ConvCheckMode   .... Total+1el-Energy
 Convergence forced     ConvForced      .... 1
 Energy Change          TolE            ....  1.000e-08 Eh
 1-El. energy change                    ....  1.000e-05 Eh
 DIIS Error             TolErr          ....  5.000e-07


Diagonalization of the overlap matrix:
Smallest eigenvalue                        ... 4.938e-03
Time for diagonalization                   ...    0.019 sec
Threshold for overlap eigenvalues          ... 1.000e-08
Number of eigenvalues below threshold      ... 0
Time for construction of square roots      ...    0.005 sec
Total time needed                          ...    0.024 sec

-------------------
DFT GRID GENERATION
-------------------

General Integration Accuracy     IntAcc      ...  4.340
Radial Grid Type                 RadialGrid  ... Gauss-Chebyshev
Angular Grid (max. acc.)         AngularGrid ... Lebedev-110
Angular grid pruning method      GridPruning ... 3 (G Style)
Weight generation scheme         WeightScheme... Becke
Basis function cutoff            BFCut       ...    1.0000e-11
Integration weight cutoff        WCut        ...    1.0000e-14
Grids for H and He will be reduced by one unit

# of grid points (after initial pruning)     ...   1678 (   0.0 sec)
# of grid points (after weights+screening)   ...   1678 (   0.0 sec)
Grid point division into batches done        ...    0.0 sec
Reduced shell lists constructed in    0.0 sec

Total number of grid points                  ...     1678
Total number of batches                      ...       27
Average number of points per batch           ...       62
Average number of grid points per atom       ...     1678
Average number of shells per batch           ...    15.40 (77.00%)
Average number of basis functions per batch  ...    64.60 (80.75%)
Average number of large shells per batch     ...    13.80 (89.61%)
Average number of large basis fcns per batch ...    58.60 (90.71%)
Maximum spatial batch extension              ...  20.06, 37.06, 37.06 au
Average spatial batch extension              ...   5.79,  7.44,  8.86 au

Time for grid setup =    0.041 sec

------------------------------
INITIAL GUESS: MODEL POTENTIAL
------------------------------
Loading Hartree-Fock densities                     ... done
Calculating cut-offs                               ... done
Setting up the integral package                    ... done
Initializing the effective Hamiltonian             ... done
Starting the Coulomb interaction                   ... done (   0.0 sec)
Reading the grid                                   ... done
Mapping shells                                     ... done
Starting the XC term evaluation                    ... done (   0.0 sec)
Transforming the Hamiltonian                       ... done (   0.0 sec)
Diagonalizing the Hamiltonian                      ... done (   0.0 sec)
Back transforming the eigenvectors                 ... done (   0.0 sec)
Now organizing SCF variables                       ... done
                      ------------------
                      INITIAL GUESS DONE (   0.1 sec)
                      ------------------
--------------
SCF ITERATIONS
--------------
ITER       Energy         Delta-E        Max-DP      RMS-DP      [F,P]     Damp
               ***  Starting incremental Fock matrix formation  ***
  0    -24.5240099360   0.000000000000 0.02192798  0.00034723  0.1022573 0.7000
  1    -24.5260743051  -0.002064369132 0.01575368  0.00025995  0.0741194 0.7000
                               ***Turning on DIIS***
  2    -24.5277303966  -0.001656091530 0.03718442  0.00063716  0.0532155 0.0000
  3    -24.5315014103  -0.003771013658 0.00472666  0.00012413  0.0042668 0.0000
  4    -24.5321640806  -0.000662670352 0.00367471  0.00009403  0.0028906 0.0000
  5    -24.5315646575   0.000599423142 0.00306491  0.00006477  0.0017242 0.0000
  6    -24.5319564434  -0.000391785963 0.00258387  0.00004500  0.0008225 0.0000
  7    -24.5328218160  -0.000865372581 0.00031205  0.00000603  0.0001079 0.0000
  8    -24.5329667039  -0.000144887856 0.00005366  0.00000121  0.0000283 0.0000
  9    -24.5329808422  -0.000014138298 0.00001230  0.00000029  0.0000039 0.0000
                            ***DIIS convergence achieved***

               *****************************************************
               *                     SUCCESS                       *
               *           SCF CONVERGED AFTER  10 CYCLES          *
               *****************************************************


----------------
TOTAL SCF ENERGY
----------------

Total Energy       :          -24.53298294 Eh            -667.57640 eV

Components:
Nuclear Repulsion  :            0.00000000 Eh               0.00000 eV
Electronic Energy  :          -24.53298294 Eh            -667.57640 eV
One Electron Energy:          -32.36795614 Eh            -880.77686 eV
Two Electron Energy:            7.83497320 Eh             213.20046 eV

Virial components:
Potential Energy   :          -49.06554464 Eh           -1335.14135 eV
Kinetic Energy     :           24.53256170 Eh             667.56494 eV
Virial Ratio       :            2.00001717


---------------
SCF CONVERGENCE
---------------

  Last Energy change         ...   -2.0960e-06  Tolerance :   1.0000e-08
  Last MAX-Density change    ...    3.2630e-06  Tolerance :   1.0000e-07
  Last RMS-Density change    ...    7.8764e-08  Tolerance :   5.0000e-09
  Last DIIS Error            ...    8.4263e-07  Tolerance :   5.0000e-07

             **** THE GBW FILE WAS UPDATED (05_B.gbw) ****
             **** DENSITY FILE WAS UPDATED (05_B.scfp) ****
             **** ENERGY FILE WAS UPDATED (05_B.en.tmp) ****
----------------------
UHF SPIN CONTAMINATION
----------------------

Expectation value of <S**2>     :     0.761328
Ideal value S*(S+1) for S=0.5   :     0.750000
Deviation                       :     0.011328

             **** THE GBW FILE WAS UPDATED (05_B.gbw) ****
             **** DENSITY FILE WAS UPDATED (05_B.scfp) ****
----------------
ORBITAL ENERGIES
----------------
                 SPIN UP ORBITALS
  NO   OCC          E(Eh)            E(eV) 
   0   1.0000      -7.701445      -209.5670 
   1   1.0000      -0.545284       -14.8379 
   2   1.0000      -0.318755        -8.6738 
   3   0.0000       0.023683         0.6444 
   4   0.0000       0.023683         0.6444 
   5   0.0000       0.050931         1.3859 
   6   0.0000       0.055655         1.5145 
   7   0.0000       0.077360         2.1051 
   8   0.0000       0.077360         2.1051 
   9   0.0000       0.145688         3.9644 
  10   0.0000       0.145688         3.9644 
  11   0.0000       0.147493         4.0135 
  12   0.0000       0.147493         4.0135 
  13   0.0000       0.148378         4.0376 
  14   0.0000       0.271796         7.3960 
  15   0.0000       0.311967         8.4890 
  16   0.0000       0.311967         8.4890 
  17   0.0000       0.335497         9.1293 
  18   0.0000       0.461898        12.5689 
  19   0.0000       0.461898        12.5689 
  20   0.0000       0.467130        12.7113 
  21   0.0000       0.467130        12.7113 
  22   0.0000       0.470367        12.7993 
  23   0.0000       0.470367        12.7993 
  24   0.0000       0.471414        12.8278 
  25   0.0000       0.491188        13.3659 
  26   0.0000       0.492659        13.4059 
  27   0.0000       0.492659        13.4059 
  28   0.0000       0.500623        13.6226 
  29   0.0000       0.500623        13.6226 
  30   0.0000       1.022912        27.8348 
  31   0.0000       1.050761        28.5927 
  32   0.0000       1.050761        28.5927 
  33   0.0000       1.370039        37.2806 
  34   0.0000       1.370039        37.2806 
  35   0.0000       1.379318        37.5332 
  36   0.0000       1.379318        37.5332 
  37   0.0000       1.385960        37.7139 
  38   0.0000       1.385960        37.7139 
  39   0.0000       1.388636        37.7867 
  40   0.0000       1.389826        37.8191 
  41   0.0000       1.389826        37.8191 
  42   0.0000       1.391580        37.8668 
  43   0.0000       1.404057        38.2063 
  44   0.0000       1.404057        38.2063 
  45   0.0000       1.407406        38.2975 
  46   0.0000       1.411094        38.3978 
  47   0.0000       1.411094        38.3978 
  48   0.0000       1.439158        39.1615 
  49   0.0000       1.439158        39.1615 
  50   0.0000       1.447457        39.3873 
  51   0.0000       1.447457        39.3873 
  52   0.0000       1.452419        39.5223 
  53   0.0000       1.452419        39.5223 
  54   0.0000       1.454058        39.5669 
  55   0.0000       3.735481       101.6476 
  56   0.0000       3.737042       101.6901 
  57   0.0000       3.737042       101.6901 
  58   0.0000       3.919691       106.6602 
  59   0.0000       3.919691       106.6602 
  60   0.0000       3.934818       107.0718 
  61   0.0000       3.934818       107.0718 
  62   0.0000       3.945627       107.3660 
  63   0.0000       3.945627       107.3660 
  64   0.0000       3.952101       107.5421 
  65   0.0000       3.952101       107.5421 
  66   0.0000       3.954258       107.6008 
  67   0.0000       3.956032       107.6491 
  68   0.0000       3.956032       107.6491 
  69   0.0000       3.963947       107.8645 
  70   0.0000       3.963947       107.8645 
  71   0.0000       3.966692       107.9392 
  72   0.0000       4.086109       111.1887 
  73   0.0000       4.086109       111.1887 
  74   0.0000       4.099994       111.5665 
  75   0.0000       4.099994       111.5665 
  76   0.0000       4.108432       111.7961 
  77   0.0000       4.108432       111.7961 
  78   0.0000       4.111263       111.8731 
  79   0.0000      13.025937       354.4538 

                 SPIN DOWN ORBITALS
  NO   OCC          E(Eh)            E(eV) 
   0   1.0000      -7.686297      -209.1548 
   1   1.0000      -0.446231       -12.1425 
   2   0.0000       0.027496         0.7482 
   3   0.0000       0.027496         0.7482 
   4   0.0000       0.039815         1.0834 
   5   0.0000       0.059191         1.6107 
   6   0.0000       0.084443         2.2978 
   7   0.0000       0.084443         2.2978 
   8   0.0000       0.117898         3.2082 
   9   0.0000       0.145767         3.9665 
  10   0.0000       0.145767         3.9665 
  11   0.0000       0.151776         4.1300 
  12   0.0000       0.151776         4.1300 
  13   0.0000       0.154009         4.1908 
  14   0.0000       0.320187         8.7127 
  15   0.0000       0.320187         8.7127 
  16   0.0000       0.351182         9.5561 
  17   0.0000       0.353832         9.6283 
  18   0.0000       0.461822        12.5668 
  19   0.0000       0.461822        12.5668 
  20   0.0000       0.471173        12.8213 
  21   0.0000       0.471173        12.8213 
  22   0.0000       0.477065        12.9816 
  23   0.0000       0.477065        12.9816 
  24   0.0000       0.479099        13.0369 
  25   0.0000       0.501733        13.6528 
  26   0.0000       0.501733        13.6528 
  27   0.0000       0.523794        14.2532 
  28   0.0000       0.523794        14.2532 
  29   0.0000       0.532204        14.4820 
  30   0.0000       1.060145        28.8480 
  31   0.0000       1.060145        28.8480 
  32   0.0000       1.103603        30.0306 
  33   0.0000       1.369760        37.2731 
  34   0.0000       1.369760        37.2731 
  35   0.0000       1.384478        37.6736 
  36   0.0000       1.384478        37.6736 
  37   0.0000       1.394925        37.9578 
  38   0.0000       1.394925        37.9578 
  39   0.0000       1.401542        38.1379 
  40   0.0000       1.401542        38.1379 
  41   0.0000       1.403751        38.1980 
  42   0.0000       1.415985        38.5309 
  43   0.0000       1.415985        38.5309 
  44   0.0000       1.419581        38.6288 
  45   0.0000       1.439805        39.1791 
  46   0.0000       1.439805        39.1791 
  47   0.0000       1.453073        39.5401 
  48   0.0000       1.453073        39.5401 
  49   0.0000       1.463739        39.8304 
  50   0.0000       1.463739        39.8304 
  51   0.0000       1.466807        39.9138 
  52   0.0000       1.478782        40.2397 
  53   0.0000       1.478782        40.2397 
  54   0.0000       1.483962        40.3807 
  55   0.0000       3.744223       101.8855 
  56   0.0000       3.744223       101.8855 
  57   0.0000       3.785914       103.0200 
  58   0.0000       3.920384       106.6791 
  59   0.0000       3.920384       106.6791 
  60   0.0000       3.945718       107.3684 
  61   0.0000       3.945718       107.3684 
  62   0.0000       3.960529       107.7715 
  63   0.0000       3.960529       107.7715 
  64   0.0000       3.964992       107.8929 
  65   0.0000       3.964992       107.8929 
  66   0.0000       3.975070       108.1672 
  67   0.0000       3.975070       108.1672 
  68   0.0000       3.978855       108.2702 
  69   0.0000       4.000577       108.8612 
  70   0.0000       4.000577       108.8612 
  71   0.0000       4.014171       109.2311 
  72   0.0000       4.088794       111.2617 
  73   0.0000       4.088794       111.2617 
  74   0.0000       4.121447       112.1503 
  75   0.0000       4.121447       112.1503 
  76   0.0000       4.141806       112.7043 
  77   0.0000       4.141806       112.7043 
  78   0.0000       4.148798       112.8945 
  79   0.0000      13.037790       354.7763 

                    ********************************
                    * MULLIKEN POPULATION ANALYSIS *
                    ********************************

--------------------------------------------
MULLIKEN ATOMIC CHARGES AND SPIN POPULATIONS
--------------------------------------------
   0 B :    0.000000    1.000000
Sum of atomic charges         :    0.0000000
Sum of atomic spin populations:    1.0000000

-----------------------------------------------------
MULLIKEN REDUCED ORBITAL CHARGES AND SPIN POPULATIONS
-----------------------------------------------------
CHARGE
  0 B s       :     3.994931  s :     3.994931
      pz      :     0.000060  p :     0.999984
      px      :     0.795816
      py      :     0.204109
      dz2     :     0.001267  d :     0.005069
      dxz     :     0.000001
      dyz     :     0.000000
      dx2y2   :     0.001331
      dxy     :     0.002470
      f0      :     0.000000  f :     0.000016
      f+1     :     0.000005
      f-1     :     0.000001
      f+2     :     0.000000
      f-2     :     0.000000
      f+3     :     0.000000
      f-3     :     0.000010
      g0      :     0.000000  g :     0.000000
      g+1     :     0.000000
      g-1     :     0.000000
      g+2     :     0.000000
      g-2     :     0.000000
      g+3     :     0.000000
      g-3     :     0.000000
      g+4     :     0.000000
      g-4     :     0.000000

SPIN
  0 B s       :    -0.001055  s :    -0.001055
      pz      :     0.000060  p :     0.999984
      px      :     0.795816
      py      :     0.204109
      dz2     :     0.000264  d :     0.001055
      dxz     :     0.000000
      dyz     :     0.000000
      dx2y2   :     0.000277
      dxy     :     0.000514
      f0      :     0.000000  f :     0.000016
      f+1     :     0.000005
      f-1     :     0.000001
      f+2     :     0.000000
      f-2     :     0.000000
      f+3     :     0.000000
      f-3     :     0.000010
      g0      :    -0.000000  g :    -0.000000
      g+1     :    -0.000000
      g-1     :    -0.000000
      g+2     :    -0.000000
      g-2     :    -0.000000
      g+3     :    -0.000000
      g-3     :    -0.000000
      g+4     :    -0.000000
      g-4     :    -0.000000


                     *******************************
                     * LOEWDIN POPULATION ANALYSIS *
                     *******************************

-------------------------------------------
LOEWDIN ATOMIC CHARGES AND SPIN POPULATIONS
-------------------------------------------
   0 B :    0.000000    1.000000

----------------------------------------------------
LOEWDIN REDUCED ORBITAL CHARGES AND SPIN POPULATIONS
----------------------------------------------------
CHARGE
  0 B s       :     3.994931  s :     3.994931
      pz      :     0.000060  p :     0.999984
      px      :     0.795816
      py      :     0.204109
      dz2     :     0.001267  d :     0.005069
      dxz     :     0.000001
      dyz     :     0.000000
      dx2y2   :     0.001331
      dxy     :     0.002470
      f0      :     0.000000  f :     0.000016
      f+1     :     0.000005
      f-1     :     0.000001
      f+2     :     0.000000
      f-2     :     0.000000
      f+3     :     0.000000
      f-3     :     0.000010
      g0      :     0.000000  g :     0.000000
      g+1     :     0.000000
      g-1     :     0.000000
      g+2     :     0.000000
      g-2     :     0.000000
      g+3     :     0.000000
      g-3     :     0.000000
      g+4     :     0.000000
      g-4     :     0.000000

SPIN
  0 B s       :    -0.001055  s :    -0.001055
      pz      :     0.000060  p :     0.999984
      px      :     0.795816
      py      :     0.204109
      dz2     :     0.000264  d :     0.001055
      dxz     :     0.000000
      dyz     :     0.000000
      dx2y2   :     0.000277
      dxy     :     0.000514
      f0      :     0.000000  f :     0.000016
      f+1     :     0.000005
      f-1     :     0.000001
      f+2     :     0.000000
      f-2     :     0.000000
      f+3     :     0.000000
      f-3     :     0.000010
      g0      :    -0.000000  g :    -0.000000
      g+1     :    -0.000000
      g-1     :    -0.000000
      g+2     :    -0.000000
      g-2     :    -0.000000
      g+3     :    -0.000000
      g-3     :    -0.000000
      g+4     :    -0.000000
      g-4     :    -0.000000


                      *****************************
                      * MAYER POPULATION ANALYSIS *
                      *****************************

  NA   - Mulliken gross atomic population
  ZA   - Total nuclear charge
  QA   - Mulliken gross atomic charge
  VA   - Mayer's total valence
  BVA  - Mayer's bonded valence
  FA   - Mayer's free valence

  ATOM       NA         ZA         QA         VA         BVA        FA
  0 B      5.0000     5.0000     0.0000     1.0227     0.0000     1.0227

  Mayer bond orders larger than 0.100000


-------
TIMINGS
-------

Total SCF time: 0 days 0 hours 0 min 2 sec 

Total time                  ....       2.716 sec
Sum of individual times     ....       2.465 sec  ( 90.8%)

Fock matrix formation       ....       2.243 sec  ( 82.6%)
Diagonalization             ....       0.030 sec  (  1.1%)
Density matrix formation    ....       0.002 sec  (  0.1%)
Population analysis         ....       0.023 sec  (  0.8%)
Initial guess               ....       0.090 sec  (  3.3%)
Orbital Transformation      ....       0.000 sec  (  0.0%)
Orbital Orthonormalization  ....       0.000 sec  (  0.0%)
DIIS solution               ....       0.036 sec  (  1.3%)


           ************************************************************
           *        Program running with 3 parallel MPI-processes     *
           *              working on a common directory               *
           ************************************************************


------------------------------------------------------------------------------- 
                              ORCA-MATRIX DRIVEN CI                            
------------------------------------------------------------------------------- 

--------------------------------
AUTOMATIC CHOICE OF INCORE LEVEL
--------------------------------

Memory available                           ...   2500.00 MB
Memory needed for S+T                      ...      0.41 MB
Memory needed for J+K                      ...      0.82 MB
Memory needed for DIIS                     ...      5.70 MB
Memory needed for 3-ext                    ...      6.97 MB
Memory needed for 4-ext                    ...    135.84 MB
Memory needed for triples                  ...     17.42 MB
 -> Final InCoreLevel    ... 5
 -> check shows that triples correction can be computed


Wavefunction type
-----------------
Correlation treatment                      ...      CCSD     
Single excitations                         ... ON
Orbital optimization                       ... OFF
Calculation of Z vector                    ... OFF
Calculation of Brueckner orbitals          ... OFF
Perturbative triple excitations            ... ON
Calculation of F12 correction              ... OFF
Frozen core treatment                      ... chemical core (2 el)
Reference Wavefunction                     ... UHF
  Alpha-MOs occ    :     1 ...    2 (  2 MO's/  2 electrons)
  Beta-MOs occ     :     1 ...    1 (  1 MO's/  1 electrons)
  Alpha-MOs virt   :     3 ...   79 ( 77 MO's              )
  Beta-MOs virt    :     2 ...   79 ( 78 MO's              )
Number of AO's                             ...     80
Number of electrons                        ...      5
Number of correlated electrons             ...      3

Algorithmic settings
--------------------
Integral transformation                    ... AO direct full transformation
K(C) Formation                             ... FULL-MO TRAFO
Maximum number of iterations               ...        50
Convergence tolerance (max. residuum)      ... 1.000e-05
Level shift for amplitude update           ... 2.000e-01
Maximum number of DIIS vectors             ...         7
DIIS turned on at iteration                ...         0
Damping before turning on DIIS             ...     0.500
Damping after turning on DIIS              ...     0.000
Pair specific amplitude update             ... OFF
Natural orbital iterations                 ... OFF
Perturbative natural orbital generation    ... OFF
Printlevel                                 ... 2

Memory handling:
----------------
Maximum memory for working arrays          ...   2500 MB
Data storage in matrix containers          ... UNCOMPRESSED
Data type for integral storage             ... DOUBLE
In-Core Storage of quantities:
   Amplitudes+Sigma Vector      ... YES
   J+K operators                ... YES
   DIIS vectors                 ... YES
   3-external integrals         ... YES
   4-external integrals         ... YES


Initializing the integral package          ... done
Warning: reference  - re-canonicalizations have been set to INT 1 VIRT 1

--------------------------
UNRESTRICTED FOCK OPERATOR
--------------------------

<ss|ss>:          231 b            0 skpd (  0.0%)    0.001 s ( 0.002 ms/b)
<ss|sp>:          630 b            0 skpd (  0.0%)    0.001 s ( 0.002 ms/b)
<ss|sd>:          504 b            0 skpd (  0.0%)    0.001 s ( 0.001 ms/b)
<ss|sf>:          378 b            0 skpd (  0.0%)    0.001 s ( 0.003 ms/b)
<ss|sg>:          252 b            0 skpd (  0.0%)    0.001 s ( 0.004 ms/b)
<ss|pp>:          315 b            0 skpd (  0.0%)    0.000 s ( 0.001 ms/b)
<ss|pd>:          420 b            0 skpd (  0.0%)    0.001 s ( 0.001 ms/b)
<ss|pf>:          315 b            0 skpd (  0.0%)    0.001 s ( 0.002 ms/b)
<ss|pg>:          210 b            0 skpd (  0.0%)    0.001 s ( 0.004 ms/b)
<ss|dd>:          210 b            0 skpd (  0.0%)    0.000 s ( 0.001 ms/b)
<ss|df>:          252 b            0 skpd (  0.0%)    0.000 s ( 0.002 ms/b)
<ss|dg>:          168 b            0 skpd (  0.0%)    0.001 s ( 0.003 ms/b)
<ss|ff>:          126 b            0 skpd (  0.0%)    0.000 s ( 0.003 ms/b)
<ss|fg>:          126 b            0 skpd (  0.0%)    0.001 s ( 0.004 ms/b)
<ss|gg>:           63 b            0 skpd (  0.0%)    0.000 s ( 0.006 ms/b)
<sp|sp>:          465 b            0 skpd (  0.0%)    0.000 s ( 0.001 ms/b)
<sp|sd>:          720 b            0 skpd (  0.0%)    0.001 s ( 0.001 ms/b)
<sp|sf>:          540 b            0 skpd (  0.0%)    0.001 s ( 0.002 ms/b)
<sp|sg>:          360 b            0 skpd (  0.0%)    0.001 s ( 0.003 ms/b)
<sp|pp>:          450 b            0 skpd (  0.0%)    0.001 s ( 0.001 ms/b)
<sp|pd>:          600 b            0 skpd (  0.0%)    0.001 s ( 0.001 ms/b)
<sp|pf>:          450 b            0 skpd (  0.0%)    0.001 s ( 0.002 ms/b)
<sp|pg>:          300 b            0 skpd (  0.0%)    0.001 s ( 0.004 ms/b)
<sp|dd>:          300 b            0 skpd (  0.0%)    0.001 s ( 0.002 ms/b)
<sp|df>:          360 b            0 skpd (  0.0%)    0.001 s ( 0.002 ms/b)
<sp|dg>:          240 b            0 skpd (  0.0%)    0.001 s ( 0.004 ms/b)
<sp|ff>:          180 b            0 skpd (  0.0%)    0.001 s ( 0.004 ms/b)
<sp|fg>:          180 b            0 skpd (  0.0%)    0.001 s ( 0.005 ms/b)
<sp|gg>:           90 b            0 skpd (  0.0%)    0.001 s ( 0.007 ms/b)
<sd|sd>:          300 b            0 skpd (  0.0%)    0.000 s ( 0.002 ms/b)
<sd|sf>:          432 b            0 skpd (  0.0%)    0.001 s ( 0.003 ms/b)
<sd|sg>:          288 b            0 skpd (  0.0%)    0.001 s ( 0.004 ms/b)
<sd|pp>:          360 b            0 skpd (  0.0%)    0.001 s ( 0.002 ms/b)
<sd|pd>:          480 b            0 skpd (  0.0%)    0.001 s ( 0.002 ms/b)
<sd|pf>:          360 b            0 skpd (  0.0%)    0.001 s ( 0.003 ms/b)
<sd|pg>:          240 b            0 skpd (  0.0%)    0.001 s ( 0.006 ms/b)
<sd|dd>:          240 b            0 skpd (  0.0%)    0.001 s ( 0.004 ms/b)
<sd|df>:          288 b            0 skpd (  0.0%)    0.001 s ( 0.005 ms/b)
<sd|dg>:          192 b            0 skpd (  0.0%)    0.001 s ( 0.007 ms/b)
<sd|ff>:          144 b            0 skpd (  0.0%)    0.001 s ( 0.007 ms/b)
<sd|fg>:          144 b            0 skpd (  0.0%)    0.001 s ( 0.010 ms/b)
<sd|gg>:           72 b            0 skpd (  0.0%)    0.001 s ( 0.014 ms/b)
<sf|sf>:          171 b            0 skpd (  0.0%)    0.001 s ( 0.006 ms/b)
<sf|sg>:          216 b            0 skpd (  0.0%)    0.002 s ( 0.009 ms/b)
<sf|pp>:          270 b            0 skpd (  0.0%)    0.001 s ( 0.003 ms/b)
<sf|pd>:          360 b            0 skpd (  0.0%)    0.001 s ( 0.004 ms/b)
<sf|pf>:          270 b            0 skpd (  0.0%)    0.002 s ( 0.006 ms/b)
<sf|pg>:          180 b            0 skpd (  0.0%)    0.002 s ( 0.013 ms/b)
<sf|dd>:          180 b            0 skpd (  0.0%)    0.001 s ( 0.006 ms/b)
<sf|df>:          216 b            0 skpd (  0.0%)    0.002 s ( 0.008 ms/b)
<sf|dg>:          144 b            0 skpd (  0.0%)    0.002 s ( 0.013 ms/b)
<sf|ff>:          108 b            0 skpd (  0.0%)    0.002 s ( 0.014 ms/b)
<sf|fg>:          108 b            0 skpd (  0.0%)    0.002 s ( 0.020 ms/b)
<sf|gg>:           54 b            0 skpd (  0.0%)    0.002 s ( 0.029 ms/b)
<sg|sg>:           78 b            0 skpd (  0.0%)    0.001 s ( 0.017 ms/b)
<sg|pp>:          180 b            0 skpd (  0.0%)    0.001 s ( 0.006 ms/b)
<sg|pd>:          240 b            0 skpd (  0.0%)    0.002 s ( 0.007 ms/b)
<sg|pf>:          180 b            0 skpd (  0.0%)    0.002 s ( 0.010 ms/b)
<sg|pg>:          120 b            2 skpd (  1.7%)    0.003 s ( 0.024 ms/b)
<sg|dd>:          120 b            0 skpd (  0.0%)    0.001 s ( 0.009 ms/b)
<sg|df>:          144 b            0 skpd (  0.0%)    0.002 s ( 0.014 ms/b)
<sg|dg>:           96 b            0 skpd (  0.0%)    0.002 s ( 0.026 ms/b)
<sg|ff>:           72 b            0 skpd (  0.0%)    0.002 s ( 0.023 ms/b)
<sg|fg>:           72 b            0 skpd (  0.0%)    0.003 s ( 0.037 ms/b)
<sg|gg>:           36 b            0 skpd (  0.0%)    0.002 s ( 0.059 ms/b)
<pp|pp>:          120 b            0 skpd (  0.0%)    0.000 s ( 0.002 ms/b)
<pp|pd>:          300 b            0 skpd (  0.0%)    0.001 s ( 0.003 ms/b)
<pp|pf>:          225 b            0 skpd (  0.0%)    0.001 s ( 0.003 ms/b)
<pp|pg>:          150 b            0 skpd (  0.0%)    0.001 s ( 0.006 ms/b)
<pp|dd>:          150 b            0 skpd (  0.0%)    0.001 s ( 0.004 ms/b)
<pp|df>:          180 b            0 skpd (  0.0%)    0.001 s ( 0.005 ms/b)
<pp|dg>:          120 b            0 skpd (  0.0%)    0.001 s ( 0.008 ms/b)
<pp|ff>:           90 b            0 skpd (  0.0%)    0.001 s ( 0.008 ms/b)
<pp|fg>:           90 b            0 skpd (  0.0%)    0.001 s ( 0.011 ms/b)
<pp|gg>:           45 b            0 skpd (  0.0%)    0.001 s ( 0.016 ms/b)
<pd|pd>:          210 b            0 skpd (  0.0%)    0.001 s ( 0.004 ms/b)
<pd|pf>:          300 b            0 skpd (  0.0%)    0.002 s ( 0.006 ms/b)
<pd|pg>:          200 b            0 skpd (  0.0%)    0.002 s ( 0.011 ms/b)
<pd|dd>:          200 b            0 skpd (  0.0%)    0.002 s ( 0.008 ms/b)
<pd|df>:          240 b            0 skpd (  0.0%)    0.002 s ( 0.010 ms/b)
<pd|dg>:          160 b            0 skpd (  0.0%)    0.002 s ( 0.015 ms/b)
<pd|ff>:          120 b            0 skpd (  0.0%)    0.002 s ( 0.014 ms/b)
<pd|fg>:          120 b            0 skpd (  0.0%)    0.002 s ( 0.021 ms/b)
<pd|gg>:           60 b            0 skpd (  0.0%)    0.002 s ( 0.029 ms/b)
<pf|pf>:          120 b            0 skpd (  0.0%)    0.001 s ( 0.009 ms/b)
<pf|pg>:          150 b            0 skpd (  0.0%)    0.003 s ( 0.018 ms/b)
<pf|dd>:          150 b            0 skpd (  0.0%)    0.001 s ( 0.010 ms/b)
<pf|df>:          180 b            0 skpd (  0.0%)    0.003 s ( 0.015 ms/b)
<pf|dg>:          120 b            0 skpd (  0.0%)    0.003 s ( 0.022 ms/b)
<pf|ff>:           90 b            0 skpd (  0.0%)    0.002 s ( 0.025 ms/b)
<pf|fg>:           90 b            0 skpd (  0.0%)    0.003 s ( 0.035 ms/b)
<pf|gg>:           45 b            0 skpd (  0.0%)    0.002 s ( 0.047 ms/b)
<pg|pg>:           55 b            0 skpd (  0.0%)    0.002 s ( 0.029 ms/b)
<pg|dd>:          100 b            0 skpd (  0.0%)    0.002 s ( 0.015 ms/b)
<pg|df>:          120 b            0 skpd (  0.0%)    0.003 s ( 0.021 ms/b)
<pg|dg>:           80 b            0 skpd (  0.0%)    0.003 s ( 0.038 ms/b)
<pg|ff>:           60 b            0 skpd (  0.0%)    0.002 s ( 0.032 ms/b)
<pg|fg>:           60 b            0 skpd (  0.0%)    0.003 s ( 0.054 ms/b)
<pg|gg>:           30 b            0 skpd (  0.0%)    0.003 s ( 0.089 ms/b)
<dd|dd>:           55 b            0 skpd (  0.0%)    0.001 s ( 0.013 ms/b)
<dd|df>:          120 b            0 skpd (  0.0%)    0.002 s ( 0.017 ms/b)
<dd|dg>:           80 b            0 skpd (  0.0%)    0.002 s ( 0.026 ms/b)
<dd|ff>:           60 b            0 skpd (  0.0%)    0.001 s ( 0.023 ms/b)
<dd|fg>:           60 b            0 skpd (  0.0%)    0.002 s ( 0.035 ms/b)
<dd|gg>:           30 b            0 skpd (  0.0%)    0.002 s ( 0.051 ms/b)
<df|df>:           78 b            0 skpd (  0.0%)    0.002 s ( 0.030 ms/b)
<df|dg>:           96 b            0 skpd (  0.0%)    0.004 s ( 0.041 ms/b)
<df|ff>:           72 b            0 skpd (  0.0%)    0.003 s ( 0.043 ms/b)
<df|fg>:           72 b            0 skpd (  0.0%)    0.004 s ( 0.062 ms/b)
<df|gg>:           36 b            0 skpd (  0.0%)    0.003 s ( 0.085 ms/b)
<dg|dg>:           36 b            0 skpd (  0.0%)    0.002 s ( 0.067 ms/b)
<dg|ff>:           48 b            0 skpd (  0.0%)    0.003 s ( 0.054 ms/b)
<dg|fg>:           48 b            0 skpd (  0.0%)    0.004 s ( 0.089 ms/b)
<dg|gg>:           24 b            0 skpd (  0.0%)    0.004 s ( 0.151 ms/b)
<ff|ff>:           21 b            0 skpd (  0.0%)    0.002 s ( 0.083 ms/b)
<ff|fg>:           36 b            0 skpd (  0.0%)    0.004 s ( 0.111 ms/b)
<ff|gg>:           18 b            0 skpd (  0.0%)    0.003 s ( 0.146 ms/b)
<fg|fg>:           21 b            0 skpd (  0.0%)    0.004 s ( 0.198 ms/b)
<fg|gg>:           18 b            0 skpd (  0.0%)    0.005 s ( 0.263 ms/b)
<gg|gg>:            6 b            0 skpd (  0.0%)    0.004 s ( 0.689 ms/b)
Recanonicalizing the internal orbitals
Recanonicalizing the virtual orbitals
Time needed for Fock operator              ...            0.229 sec
Reference energy                           ...    -24.532984074
Warning: for UHF the TrafoType has to be JK
Warning: for UHF the K(C)-option cannot be MO but must be AOX

-------------------------------
PARTIAL EXCHANGE TRANSFORMATION
-------------------------------

Transformation type                        ... two-operators
Generation of integrals (i,mue|j,nue)      ... ON
Generation of integrals (mue,kappa|nue,tau)... ON
Generation of integrals (i,mue|a,nue)      ... ON
Dimension of the basis                     ...   80
Number of internal alpha-MOs               ...    2 (   1-   2)
Number of internal beta-MOs                ...    1 (   1-   1)
Number of external alpha-MOs               ...   77 (   3-  79)
Number of external beta-MOs                ...   78 (   2-  79)
Pair cutoff                                ... 0.000e+00 Eh
Number of AO pairs in the trafo            ... 3240
Total Number of distinct AO pairs          ... 3240
Memory devoted for trafo                   ... 2500.0 MB 
Max. Number of MO pairs treated together   ... 51200      
Number Format for Storage                  ... Double (8 Byte)
Integral package used                      ... LIBINT

Starting integral evaluation:
    ... done with AO integral generation
Closing buffer AOK[aa] ( 0.00 GB; CompressionRatio= 0.73)
Closing buffer AOK[bb] ( 0.00 GB; CompressionRatio= 0.40)
Closing buffer AOK[ab] ( 0.00 GB; CompressionRatio= 0.57)
Closing buffer AOK[ba] ( 0.00 GB; CompressionRatio= 0.57)
Collecting buffer AOK 
Closing buffer IAAO1[aa] ( 0.00 GB; CompressionRatio= 0.99)
Closing buffer IAAO1[bb] ( 0.00 GB; CompressionRatio= 0.98)
Closing buffer IAAO1[ab] ( 0.00 GB; CompressionRatio= 0.99)
Closing buffer IAAO1[ba] ( 0.00 GB; CompressionRatio= 0.98)
Closing buffer IAAO2[aa] ( 0.00 GB; CompressionRatio= 0.99)
Closing buffer IAAO2[bb] ( 0.00 GB; CompressionRatio= 0.98)
Closing buffer IAAO2[ab] ( 0.00 GB; CompressionRatio= 0.99)
Closing buffer IAAO2[ba] ( 0.00 GB; CompressionRatio= 0.98)
Collecting buffer IAAO 
Closing buffer PRQS    ( 0.05 GB; CompressionRatio= 1.00)
Collecting buffer PRQS 
Number of alpha/alpha MO pairs in trafo    ...    3
Number of beta /beta  MO pairs in trafo    ...    1
Number of alpha/ beta MO pairs in trafo    ...    2
------------------------
SORTING OF (i,mue|j,nue)
------------------------

SORTING OF ALPHA/ALPHA PAIRS
IBATCH = 1 of  1
Closing buffer KAO[aa] ( 0.00 GB; CompressionRatio= 1.00)
Collecting buffer KAO 
SORTING OF BETA /BETA  PAIRS
IBATCH = 1 of  1
Closing buffer KAO[bb] ( 0.00 GB; CompressionRatio= 1.00)
Collecting buffer KAO 
SORTING OF ALPHA/BETA  PAIRS
IBATCH = 1 of  1
Closing buffer KAO[ab] ( 0.00 GB; CompressionRatio= 0.999765679919)
Collecting buffer KAO[ab] 
------------------------
SORTING OF (i,mue|a,nue)
------------------------

Number of alpha/alpha (i,a) pairs in trafo  ...  154
Number of beta /beta  (i,a) pairs in trafo  ...   78
Number of alpha/ beta (i,a) pairs in trafo  ...  156
Number of beta /alpha (i,a) pairs in trafo  ...   77
Setting up the alpha/alpha list             ... done
Setting up the beta /beta  list             ... done
Setting up the alpha/beta  list             ... done
Setting up the beta /alpha list             ... done
    ... Now sorting (i,mue|a,nue)integrals
    ... Integrals (i,b|a,c) will be made on the fly
SORTING OF ALPHA/ALPHA PAIRS
IBATCH = 1 of  1
Closing buffer IPAQ[aa]  0.00 GB; CompressionRatio= 1.00)
SORTING OF BETA /BETA  PAIRS
IBATCH = 1 of  1
Closing buffer IPAQ[bb]( 0.00 GB; CompressionRatio= 1.00)
SORTING OF ALPHA/BETA  PAIRS (NMatSort_ab=52)
IBATCH = 1 of  1
Closing buffer IPAQ[ab]( 0.00 GB; CompressionRatio= 1.00)
SORTING OF BETA/ALPHA  PAIRS
IBATCH = 1 of  1
Closing buffer IPAQ[ba]( 0.00 GB; CompressionRatio= 1.00)
N(AO-Batches) Done                         ...     25200 
N(AO-Batches) Skipped                      ...         0 
N(IJ)-pairs Skipped                        ...         0 
TOTAL TIME for half transformation         ...     6.999 sec
AO-integral generation                     ...     0.723 sec
Half transformation                        ...     4.414 sec
K-integral sorting                         ...     0.210 sec
<ss|**>: 
------------------------------
PARTIAL COULOMB TRANSFORMATION
------------------------------

Transformation type                        ... two-operators
Dimension of the basis                     ...   80
Number of internal alpha-MOs               ...    2 (1-2)
Number of internal beta-MOs                ...    1 (1-1)
Pair cutoff                                ... 0.000e+00 Eh
Number of AO pairs included in the trafo   ... 3240
Total Number of distinct AO pairs          ... 3240
Memory devoted for trafo                   ... 2500.0 MB 
Max. Number of MO pairs treated together   ... 101135      
Max. Number of MOs treated per batch       ... 1264      
Number Format for Storage                  ... Double (8 Byte)
AO-integral source                         ... DIRECT
Integral package used                      ... LIBINT

Starting integral evaluation:
<sp|**>:         4410 b        0 skpd     0.023 s (  0.005 ms/b)
        6300 b        0 skpd     0.031 s (  0.005 ms/b)
<sd|**>: <sf|**>:         5040 b        0 skpd     0.055 s (  0.011 ms/b)
<sg|**>:         3780 b        0 skpd     0.073 s (  0.019 ms/b)
        2520 b        0 skpd     0.061 s (  0.024 ms/b)
<pp|**>:         3150 b        0 skpd     0.038 s (  0.012 ms/b)
<pd|**>: <pf|**>:         4200 b        0 skpd     0.115 s (  0.027 ms/b)
        3150 b        0 skpd     0.124 s (  0.039 ms/b)
<pg|**>: <dd|**>:         2100 b        0 skpd     0.136 s (  0.065 ms/b)
        2100 b        0 skpd     0.086 s (  0.041 ms/b)
<df|**>:         2520 b        0 skpd     0.162 s (  0.064 ms/b)
<dg|**>:         1680 b        0 skpd     0.167 s (  0.100 ms/b)
<ff|**>:         1260 b        0 skpd     0.102 s (  0.081 ms/b)
<fg|**>:         1260 b        0 skpd     0.159 s (  0.126 ms/b)
<gg|**>:          630 b        0 skpd     0.086 s (  0.137 ms/b)
Closing buffer AOJ[aa] ( 0.00 GB; CompressionRatio= 0.67)
Closing buffer AOJ[bb] ( 0.00 GB; CompressionRatio= 0.00)
Collecting buffer AOJ 
    ... done with AO integral generation
Number of Alpha-MO pairs included          ...    3
Number of Beta-MO pairs included           ...    1
    ... Now sorting integrals
SORTING ALPHA/ALPHA PAIRS
IBATCH = 1 of  1
Closing buffer JAO[aa] ( 0.00 GB; CompressionRatio= 1.00)
SORTING BETA/BETA PAIRS
IBATCH = 1 of  1
Closing buffer JAO[bb] ( 0.00 GB; CompressionRatio= 1.00)
Collecting buffer JAO 
TOTAL TIME for half transformation         ...     1.457 sec
AO-integral generation                     ...     0.613 sec
Half transformation                        ...     0.808 sec
J-integral sorting                         ...     0.026 sec

-------------------------- SECOND HALF TRANSFORMATION -------------------------
Formation of (ij|kl),(ij|ka), (ij|ab)      ... ok (     0.018 sec)
Formation of (ik|jl),(ik|ja), (ia|jb)      ... ok (     0.027 sec)


-----------------------
SPIN UNRESTRICTED GUESS
-----------------------

Entering MDCI_UHF_Guess, Tailored=0
Spin-components of the MP2 energy:
EMP2(aa)=     -0.003426515
EMP2(bb)=      0.000000000
EMP2(ab)=     -0.043818348

Initial guess performed in     0.001 sec
E(0)                                       ...    -24.532984074
E(MP2)                                     ...     -0.047244862
Initial E(tot)                             ...    -24.580228937
<T|T>                                      ...      0.026702793
Number of pairs included                   ... 3

------------------------------------------------
                  UHF COUPLED CLUSTER ITERATIONS
------------------------------------------------

Number of amplitudes to be optimized       ...        15092

Iter       E(tot)           E(Corr)          Delta-E          Residual     Time      <S|S>**1/2
  0    -24.580228937     -0.047244862     -0.000000000      0.017666309    0.31      0.000000537
                           *** Turning on DIIS ***
  1    -24.589313139     -0.056329065     -0.009084203      0.010819530    0.30      0.010390391
  2    -24.597163591     -0.064179517     -0.007850452      0.003469420    0.30      0.021169832
  3    -24.599216336     -0.066232261     -0.002052744      0.000702696    0.30      0.025711527
  4    -24.599426750     -0.066442676     -0.000210415      0.000163492    0.30      0.026647832
  5    -24.599485052     -0.066500978     -0.000058302      0.000043034    0.30      0.026805509
  6    -24.599480023     -0.066495949      0.000005030      0.000015461    0.30      0.026789835
  7    -24.599481674     -0.066497599     -0.000001651      0.000004332    0.30      0.026786163
               --- The Coupled-Cluster iterations have converged ---

----------------------
COUPLED CLUSTER ENERGY
----------------------

E(0)                                       ...    -24.532984074
E(CORR)                                    ...     -0.066497599
E(TOT)                                     ...    -24.599481674
Singles norm <S|S>**1/2                    ...      0.026786163 ( 0.018985417, 0.007800747)  
T1 diagnostic                              ...      0.015464999                              

------------------
LARGEST AMPLITUDES
------------------
   1a->  8a   1b->  6b       0.070845
   1a->  7a   1b->  7b       0.070845
   1a->  3a   1b->  7b       0.063052
   1a->  4a   1b->  6b       0.063052
   1a->  8a   1b->  2b       0.052680
   1a->  7a   1b->  3b       0.052680
   1a-> 15a   1b->  7b       0.047447
   1a-> 16a   1b->  6b       0.047447
   1a->  8a   1b-> 14b       0.047234
   1a->  7a   1b-> 15b       0.047234
   1a->  3a   1b->  3b       0.047017
   1a->  4a   1b->  2b       0.047017
   1a->  3a   1b-> 15b       0.041555
   1a->  4a   1b-> 14b       0.041555
   2a-> 25a   1b->  8b       0.041519
   1a-> 16a   1b->  2b       0.034852

----------------------
UHF TRIPLES CORRECTION (Algorithm 1)
----------------------

Multiplier for the singles contribution    ...      1.000000000

SPIN-CASE Alpha-Alpha-Alpha:

SPIN-CASE Beta-Beta-Beta:

SPIN-CASE Alpha-Alpha-Beta:
10% done
20% done
30% done
40% done
50% done
60% done
70% done
80% done
90% done


SPIN-CASE Beta-Beta-Alpha:

Triples Correction (T)                     ...     -0.001466199
    alpha-alpha-alpha ...  0.000000000 ( -0.0%)
    alpha-alpha-beta  ... -0.001466199 (100.0%)
    alpha-beta -beta  ...  0.000000000 ( -0.0%)
    beta -beta -beta  ...  0.000000000 ( -0.0%)
Scaling of triples based on CCSD energies (Peterson et al. Molecular Physics 113, 1551 (2015))
E(T*) = f*E(T) where f = E(F12-CCSD)/E(CCSD) 
f = CCSD (with F12)/ CCSD (without F12)    ...      1.000000000
Scaled triples correction (T)              ...     -0.001466199

Final correlation energy                   ...     -0.067963799
E(CCSD)                                    ...    -24.599481674
E(CCSD(T))                                 ...    -24.600947873



        !!!!!!!!!!!!!!!!!!!!!!!!!!!!!!!!!!!!!!!!!!!!!!!!!!!!!!!!!!!!!!!!!!!!!!!!!! 
        !  Warning: Densities are linearized densities                           !
        !!!!!!!!!!!!!!!!!!!!!!!!!!!!!!!!!!!!!!!!!!!!!!!!!!!!!!!!!!!!!!!!!!!!!!!!!! 

NORM  =      1.072778955 sqrt=     1.035750431
W(HF) =      0.932158480
------------------------------------------------------------------------------
                           ORCA POPULATION ANALYSIS
------------------------------------------------------------------------------
Input electron density              ... 05_B.mdcip
Input spin density                  ... 05_B.mdcir
BaseName (.gbw .S,...)              ... 05_B

                    ********************************
                    * MULLIKEN POPULATION ANALYSIS *
                    ********************************

------------------------------------------
MULLIKEN ATOMIC CHARGES AND SPIN DENSITIES
------------------------------------------
   0 B :    0.000000    1.000000
Sum of atomic charges       :    0.0000000
Sum of atomic spin densities:    1.0000000

---------------------------------------------------
MULLIKEN REDUCED ORBITAL CHARGES AND SPIN DENSITIES
---------------------------------------------------
CHARGE
  0 B s       :     3.883182  s :     3.883182
      pz      :     0.052060  p :     1.094809
      px      :     0.799126
      py      :     0.243623
      dz2     :     0.002185  d :     0.021111
      dxz     :     0.005062
      dyz     :     0.001470
      dx2y2   :     0.006228
      dxy     :     0.006166
      f0      :     0.000079  f :     0.000798
      f+1     :     0.000117
      f-1     :     0.000053
      f+2     :     0.000106
      f-2     :     0.000112
      f+3     :     0.000166
      f-3     :     0.000165
      g0      :     0.000008  g :     0.000100
      g+1     :     0.000011
      g-1     :     0.000006
      g+2     :     0.000010
      g-2     :     0.000010
      g+3     :     0.000012
      g-3     :     0.000012
      g+4     :     0.000015
      g-4     :     0.000015

SPIN
  0 B s       :     0.017026  s :     0.017026
      pz      :    -0.001773  p :     0.973029
      px      :     0.776906
      py      :     0.197897
      dz2     :     0.000964  d :     0.009517
      dxz     :     0.002240
      dyz     :     0.000558
      dx2y2   :     0.002860
      dxy     :     0.002895
      f0      :     0.000035  f :     0.000390
      f+1     :     0.000057
      f-1     :     0.000018
      f+2     :     0.000049
      f-2     :     0.000054
      f+3     :     0.000089
      f-3     :     0.000089
      g0      :     0.000003  g :     0.000037
      g+1     :     0.000004
      g-1     :     0.000002
      g+2     :     0.000004
      g-2     :     0.000004
      g+3     :     0.000005
      g-3     :     0.000005
      g+4     :     0.000006
      g-4     :     0.000006


                     *******************************
                     * LOEWDIN POPULATION ANALYSIS *
                     *******************************

-----------------------------------------
LOEWDIN ATOMIC CHARGES AND SPIN DENSITIES
-----------------------------------------
   0 B :    0.000000    1.000000

--------------------------------------------------
LOEWDIN REDUCED ORBITAL CHARGES AND SPIN DENSITIES
--------------------------------------------------
CHARGE
  0 B s       :     3.883182  s :     3.883182
      pz      :     0.052060  p :     1.094809
      px      :     0.799126
      py      :     0.243623
      dz2     :     0.002185  d :     0.021111
      dxz     :     0.005062
      dyz     :     0.001470
      dx2y2   :     0.006228
      dxy     :     0.006166
      f0      :     0.000079  f :     0.000798
      f+1     :     0.000117
      f-1     :     0.000053
      f+2     :     0.000106
      f-2     :     0.000112
      f+3     :     0.000166
      f-3     :     0.000165
      g0      :     0.000008  g :     0.000100
      g+1     :     0.000011
      g-1     :     0.000006
      g+2     :     0.000010
      g-2     :     0.000010
      g+3     :     0.000012
      g-3     :     0.000012
      g+4     :     0.000015
      g-4     :     0.000015

SPIN
  0 B s       :     0.017026  s :     0.017026
      pz      :    -0.001773  p :     0.973029
      px      :     0.776906
      py      :     0.197897
      dz2     :     0.000964  d :     0.009517
      dxz     :     0.002240
      dyz     :     0.000558
      dx2y2   :     0.002860
      dxy     :     0.002895
      f0      :     0.000035  f :     0.000390
      f+1     :     0.000057
      f-1     :     0.000018
      f+2     :     0.000049
      f-2     :     0.000054
      f+3     :     0.000089
      f-3     :     0.000089
      g0      :     0.000003  g :     0.000037
      g+1     :     0.000004
      g-1     :     0.000002
      g+2     :     0.000004
      g-2     :     0.000004
      g+3     :     0.000005
      g-3     :     0.000005
      g+4     :     0.000006
      g-4     :     0.000006


                      *****************************
                      * MAYER POPULATION ANALYSIS *
                      *****************************

  NA   - Mulliken gross atomic population
  ZA   - Total nuclear charge
  QA   - Mulliken gross atomic charge
  VA   - Mayer's total valence
  BVA  - Mayer's bonded valence
  FA   - Mayer's free valence

  ATOM       NA         ZA         QA         VA         BVA        FA
  0 B      5.0000     5.0000     0.0000     1.5047     0.0000     1.5047





------------------------------------------------------------------------------- 
                                     TIMINGS                                   
------------------------------------------------------------------------------- 


Total execution time                   ...       11.442 sec

Fock Matrix Formation                  ...        0.229 sec (  2.0%)
Initial Guess                          ...        0.001 sec (  0.0%)
DIIS Solver                            ...        0.006 sec (  0.1%)
State Vector Update                    ...        0.000 sec (  0.0%)
Sigma-vector construction              ...        2.416 sec ( 21.1%)
  <D|H|D>(2-ext)                       ...        0.002 sec (  0.1% of sigma)
  <D|H|D>(4-ext)                       ...        1.187 sec ( 49.1% of sigma)
  <S|H|0>                              ...        0.005 sec (  0.2% of sigma)
  <D|H|S>(1-ext)                       ...        0.002 sec (  0.1% of sigma)
  Fock-dressing                        ...        1.055 sec ( 43.7% of sigma)
  (ij|ab),(ia|jb)-dressing             ...        0.094 sec (  3.9% of sigma)
Total Time for computing (T)           ...        0.053 sec (  0.5% of ALL)
  I/O of integral and amplitudes       ...        0.015 sec ( 27.9% of (T))
  External N**7 contributions          ...        0.006 sec ( 11.7% of (T))
  Internal N**7 contributions          ...        0.002 sec (  2.9% of (T))
  N**6 triples energy contributions    ...        0.007 sec ( 13.8% of (T))


-------------------------   --------------------
FINAL SINGLE POINT ENERGY       -24.600947873051
-------------------------   --------------------


                            ***************************************
                            *     ORCA property calculations      *
                            ***************************************

                                    ---------------------
                                    Active property flags
                                    ---------------------
   (+) Dipole Moment


------------------------------------------------------------------------------
                       ORCA ELECTRIC PROPERTIES CALCULATION
------------------------------------------------------------------------------

Dipole Moment Calculation                       ... on
Quadrupole Moment Calculation                   ... off
Polarizability Calculation                      ... off
GBWName                                         ... 05_B.gbw
Electron density file                           ... 05_B.scfp
The origin for moment calculation is the CENTER OF MASS  = ( 0.000000,  0.000000  0.000000)

-------------
DIPOLE MOMENT
-------------
                                X             Y             Z
Electronic contribution:      0.00000      -0.00000       0.00000
Nuclear contribution   :      0.00000       0.00000       0.00000
                        -----------------------------------------
Total Dipole Moment    :      0.00000      -0.00000       0.00000
                        -----------------------------------------
Magnitude (a.u.)       :      0.00000
Magnitude (Debye)      :      0.00000



--------------------
Rotational spectrum 
--------------------
 
Rotational constants in cm-1:     0.000000     0.000000     0.000000 
Rotational constants in MHz :     0.000000     0.000000     0.000000 

 Dipole components along the rotational axes: 
x,y,z [a.u.] :     0.000000    -0.000000     0.000000 
x,y,z [Debye]:     0.000000    -0.000000     0.000000 

 

                           *** MDCI DENSITY ***

------------------------------------------------------------------------------
                       ORCA ELECTRIC PROPERTIES CALCULATION
------------------------------------------------------------------------------

Dipole Moment Calculation                       ... on
Quadrupole Moment Calculation                   ... off
Polarizability Calculation                      ... off
GBWName                                         ... 05_B.gbw
Electron density file                           ... 05_B.mdcip
The origin for moment calculation is the CENTER OF MASS  = ( 0.000000,  0.000000  0.000000)

-------------
DIPOLE MOMENT
-------------
                                X             Y             Z
Electronic contribution:      0.00000      -0.00000       0.00000
Nuclear contribution   :      0.00000       0.00000       0.00000
                        -----------------------------------------
Total Dipole Moment    :      0.00000      -0.00000       0.00000
                        -----------------------------------------
Magnitude (a.u.)       :      0.00000
Magnitude (Debye)      :      0.00000



--------------------
Rotational spectrum 
--------------------
 
Rotational constants in cm-1:     0.000000     0.000000     0.000000 
Rotational constants in MHz :     0.000000     0.000000     0.000000 

 Dipole components along the rotational axes: 
x,y,z [a.u.] :     0.000000    -0.000000     0.000000 
x,y,z [Debye]:     0.000000    -0.000000     0.000000 

 

Timings for individual modules:

Sum of individual times         ...       15.993 sec (=   0.267 min)
GTO integral calculation        ...        0.792 sec (=   0.013 min)   5.0 %
SCF iterations                  ...        3.140 sec (=   0.052 min)  19.6 %
MDCI module                     ...       12.061 sec (=   0.201 min)  75.4 %
                             ****ORCA TERMINATED NORMALLY****
TOTAL RUN TIME: 0 days 0 hours 0 minutes 16 seconds 683 msec
