
                                 *****************
                                 * O   R   C   A *
                                 *****************

           --- An Ab Initio, DFT and Semiempirical electronic structure package ---

                  #######################################################
                  #                        -***-                        #
                  #          Department of theory and spectroscopy      #
                  #               Directorship: Frank Neese             #
                  #        Max Planck Institute fuer Kohlenforschung    #
                  #                Kaiser Wilhelm Platz 1               #
                  #                 D-45470 Muelheim/Ruhr               #
                  #                      Germany                        #
                  #                                                     #
                  #                  All rights reserved                #
                  #                        -***-                        #
                  #######################################################


                         Program Version 4.2.0 -  RELEASE  -


 With contributions from (in alphabetic order):
   Daniel Aravena         : Magnetic Suceptibility
   Michael Atanasov       : Ab Initio Ligand Field Theory (pilot matlab implementation)
   Alexander A. Auer      : GIAO ZORA, VPT2
   Ute Becker             : Parallelization
   Giovanni Bistoni       : ED, misc. LED, open-shell LED, HFLED
   Martin Brehm           : Molecular dynamics
   Dmytro Bykov           : SCF Hessian
   Vijay G. Chilkuri      : MRCI spin determinant printing, contributions to CSF-ICE
   Dipayan Datta          : RHF DLPNO-CCSD density
   Achintya Kumar Dutta   : EOM-CC, STEOM-CC
   Dmitry Ganyushin       : Spin-Orbit,Spin-Spin,Magnetic field MRCI
   Miquel Garcia          : C-PCM Hessian, Gaussian charge scheme
   Yang Guo               : DLPNO-NEVPT2, CIM, IAO-localization
   Andreas Hansen         : Spin unrestricted coupled pair/coupled cluster methods
   Benjamin Helmich-Paris : CASSCF linear response (MC-RPA)
   Lee Huntington         : MR-EOM, pCC
   Robert Izsak           : Overlap fitted RIJCOSX, COSX-SCS-MP3, EOM
   Christian Kollmar      : KDIIS, OOCD, Brueckner-CCSD(T), CCSD density
   Simone Kossmann        : Meta GGA functionals, TD-DFT gradient, OOMP2, MP2 Hessian
   Martin Krupicka        : AUTO-CI
   Lucas Lang             : DCDCAS
   Dagmar Lenk            : GEPOL surface, SMD
   Dimitrios Liakos       : Extrapolation schemes; Compound Job, initial MDCI parallelization
   Dimitrios Manganas     : Further ROCIS development; embedding schemes
   Dimitrios Pantazis     : SARC Basis sets
   Taras Petrenko         : DFT Hessian,TD-DFT gradient, ASA, ECA, R-Raman, ABS, FL, XAS/XES, NRVS
   Peter Pinski           : DLPNO-MP2, DLPNO-MP2 Gradient
   Christoph Reimann      : Effective Core Potentials
   Marius Retegan         : Local ZFS, SOC
   Christoph Riplinger    : Optimizer, TS searches, QM/MM, DLPNO-CCSD(T), (RO)-DLPNO pert. Triples
   Tobias Risthaus        : Range-separated hybrids, TD-DFT gradient, RPA, STAB
   Michael Roemelt        : Original ROCIS implementation
   Masaaki Saitow         : Open-shell DLPNO-CCSD energy and density
   Barbara Sandhoefer     : DKH picture change effects
   Avijit Sen             : IP-ROCIS
   Kantharuban Sivalingam : CASSCF convergence, NEVPT2, FIC-MRCI
   Bernardo de Souza      : ESD, SOC TD-DFT
   Georgi Stoychev        : AutoAux, RI-MP2 NMR
   Willem Van den Heuvel  : Paramagnetic NMR
   Boris Wezisla          : Elementary symmetry handling
   Frank Wennmohs         : Technical directorship


 We gratefully acknowledge several colleagues who have allowed us to
 interface, adapt or use parts of their codes:
   Stefan Grimme, W. Hujo, H. Kruse,             : VdW corrections, initial TS optimization,
                  C. Bannwarth                     DFT functionals, gCP, sTDA/sTD-DF
   Ed Valeev, F. Pavosevic, A. Kumar             : LibInt (2-el integral package), F12 methods
   Garnet Chan, S. Sharma, J. Yang, R. Olivares  : DMRG
   Ulf Ekstrom                                   : XCFun DFT Library
   Mihaly Kallay                                 : mrcc  (arbitrary order and MRCC methods)
   Andreas Klamt, Michael Diedenhofen            : otool_cosmo (COSMO solvation model)
   Jiri Pittner, Ondrej Demel                    : Mk-CCSD
   Frank Weinhold                                : gennbo (NPA and NBO analysis)
   Christopher J. Cramer and Donald G. Truhlar   : smd solvation model
   Lars Goerigk                                  : TD-DFT with DH, B97 family of functionals
   V. Asgeirsson, H. Jonsson                     : NEB implementation
   FAccTs GmbH                                   : IRC, NEB, NEB-TS, Multilevel, MM, QM/MM, CI optimization
   S Lehtola, MJT Oliveira, MAL Marques          : LibXC Library


 Your calculation uses the libint2 library for the computation of 2-el integrals
 For citations please refer to: http://libint.valeyev.net

 Your ORCA version has been built with support for libXC version: 4.2.3
 For citations please refer to: https://tddft.org/programs/libxc/

 This ORCA versions uses:
   CBLAS   interface :  Fast vector & matrix operations
   LAPACKE interface :  Fast linear algebra routines
   SCALAPACK package :  Parallel linear algebra routines


----- Orbital basis set information -----
Your calculation utilizes the basis: aug-cc-pV(Q+d)Z 
             Al - Ar: T.H. Dunning, Jr., K. A. Peterson and A. K. Wilson, J. Chem. Phys.
                      114, 9244 (2001)

================================================================================
                                        WARNINGS
                       Please study these warnings very carefully!
================================================================================


WARNING: your system is open-shell and RHF/RKS was chosen
  ===> : WILL SWITCH to UHF/UKS


WARNING: MDCI localization with Augmented Hessian Foster-Boys
  ===> : Switching off randomization!

WARNING: Post HF methods need fully converged wavefunctions
  ===> : Setting SCFConvForced true
         You can overwrite this default with %scf ConvForced false 


INFO   : the flag for use of LIBINT has been found!

================================================================================
                                       INPUT FILE
================================================================================
NAME = 08_O.in
|  1> #
|  2> # 08_O CCSD(T)/aug-cc-pvq(+d)z
|  3> #
|  4> ! CCSD(T) aug-cc-pvq(+d)z tightscf
|  5> 
|  6> *xyz 0 3
|  7>  O 0.0 0.0 0.0
|  8> *
|  9> 
| 10> %maxcore 5000 
| 11> 
| 12> %pal
| 13> nprocs 15
| 14> end
| 15> 
| 16> 
| 17>                          ****END OF INPUT****
================================================================================

                       ****************************
                       * Single Point Calculation *
                       ****************************

---------------------------------
CARTESIAN COORDINATES (ANGSTROEM)
---------------------------------
  O      0.000000    0.000000    0.000000

----------------------------
CARTESIAN COORDINATES (A.U.)
----------------------------
  NO LB      ZA    FRAG     MASS         X           Y           Z
   0 O     8.0000    0    15.999    0.000000    0.000000    0.000000

--------------------------------
INTERNAL COORDINATES (ANGSTROEM)
--------------------------------
 O      0   0   0     0.000000000000     0.00000000     0.00000000

---------------------------
INTERNAL COORDINATES (A.U.)
---------------------------
 O      0   0   0     0.000000000000     0.00000000     0.00000000

---------------------
BASIS SET INFORMATION
---------------------
There are 1 groups of distinct atoms

 Group   1 Type O   : 22s7p4d3f2g contracted to 6s5p4d3f2g pattern {991111/31111/1111/111/11}

Atom   0O    basis set group =>   1


           ************************************************************
           *        Program running with 15 parallel MPI-processes    *
           *              working on a common directory               *
           ************************************************************
------------------------------------------------------------------------------
                           ORCA GTO INTEGRAL CALCULATION
------------------------------------------------------------------------------

                         BASIS SET STATISTICS AND STARTUP INFO

 # of primitive gaussian shells          ...   38
 # of primitive gaussian functions       ...  102
 # of contracted shells                  ...   20
 # of contracted basis functions         ...   80
 Highest angular momentum                ...    4
 Maximum contraction depth               ...    9
 Integral package used                   ... LIBINT
 Integral threshhold            Thresh   ...  2.500e-11
 Primitive cut-off              TCut     ...  2.500e-12


------------------------------ INTEGRAL EVALUATION ----------------------------


 * One electron integrals 
 Pre-screening matrix                    ... done
 Shell pair data                         ... done (   0.000 sec)



           ************************************************************
           *        Program running with 15 parallel MPI-processes    *
           *              working on a common directory               *
           ************************************************************
-------------------------------------------------------------------------------
                                 ORCA SCF
-------------------------------------------------------------------------------

------------
SCF SETTINGS
------------
Hamiltonian:
 Ab initio Hamiltonian  Method          .... Hartree-Fock(GTOs)


General Settings:
 Integral files         IntName         .... 08_O
 Hartree-Fock type      HFTyp           .... UHF
 Total Charge           Charge          ....    0
 Multiplicity           Mult            ....    3
 Number of Electrons    NEL             ....    8
 Basis Dimension        Dim             ....   80
 Nuclear Repulsion      ENuc            ....      0.0000000000 Eh

Convergence Acceleration:
 DIIS                   CNVDIIS         .... on
   Start iteration      DIISMaxIt       ....    12
   Startup error        DIISStart       ....  0.200000
   # of expansion vecs  DIISMaxEq       ....     5
   Bias factor          DIISBfac        ....   1.050
   Max. coefficient     DIISMaxC        ....  10.000
 Newton-Raphson         CNVNR           .... off
 SOSCF                  CNVSOSCF        .... off
 Level Shifting         CNVShift        .... on
   Level shift para.    LevelShift      ....    0.2500
   Turn off err/grad.   ShiftErr        ....    0.0010
 Zerner damping         CNVZerner       .... off
 Static damping         CNVDamp         .... on
   Fraction old density DampFac         ....    0.7000
   Max. Damping (<1)    DampMax         ....    0.9800
   Min. Damping (>=0)   DampMin         ....    0.0000
   Turn off err/grad.   DampErr         ....    0.1000
 Fernandez-Rico         CNVRico         .... off

SCF Procedure:
 Maximum # iterations   MaxIter         ....   125
 SCF integral mode      SCFMode         .... Direct
   Integral package                     .... LIBINT
 Reset frequency        DirectResetFreq ....    20
 Integral Threshold     Thresh          ....  2.500e-11 Eh
 Primitive CutOff       TCut            ....  2.500e-12 Eh

Convergence Tolerance:
 Convergence Check Mode ConvCheckMode   .... Total+1el-Energy
 Convergence forced     ConvForced      .... 1
 Energy Change          TolE            ....  1.000e-08 Eh
 1-El. energy change                    ....  1.000e-05 Eh
 DIIS Error             TolErr          ....  5.000e-07


Diagonalization of the overlap matrix:
Smallest eigenvalue                        ... 3.610e-03
Time for diagonalization                   ...    0.002 sec
Threshold for overlap eigenvalues          ... 1.000e-08
Number of eigenvalues below threshold      ... 0
Time for construction of square roots      ...    0.011 sec
Total time needed                          ...    0.013 sec

-------------------
DFT GRID GENERATION
-------------------

General Integration Accuracy     IntAcc      ...  4.340
Radial Grid Type                 RadialGrid  ... Gauss-Chebyshev
Angular Grid (max. acc.)         AngularGrid ... Lebedev-110
Angular grid pruning method      GridPruning ... 3 (G Style)
Weight generation scheme         WeightScheme... Becke
Basis function cutoff            BFCut       ...    1.0000e-11
Integration weight cutoff        WCut        ...    1.0000e-14
Grids for H and He will be reduced by one unit

# of grid points (after initial pruning)     ...   1716 (   0.0 sec)
# of grid points (after weights+screening)   ...   1716 (   0.0 sec)
Grid point division into batches done        ...    0.0 sec
Reduced shell lists constructed in    0.0 sec

Total number of grid points                  ...     1716
Total number of batches                      ...       27
Average number of points per batch           ...       63
Average number of grid points per atom       ...     1716
Average number of shells per batch           ...     8.00 (40.00%)
Average number of basis functions per batch  ...    33.33 (41.67%)
Average number of large shells per batch     ...     7.33 (91.67%)
Average number of large basis fcns per batch ...    30.00 (90.00%)
Maximum spatial batch extension              ...  13.89, 25.65, 25.65 au
Average spatial batch extension              ...   1.03,  1.90,  1.90 au

Time for grid setup =    0.028 sec

------------------------------
INITIAL GUESS: MODEL POTENTIAL
------------------------------
Loading Hartree-Fock densities                     ... done
Calculating cut-offs                               ... done
Setting up the integral package                    ... done
Initializing the effective Hamiltonian             ... done
Starting the Coulomb interaction                   ... done (   0.0 sec)
Reading the grid                                   ... done
Mapping shells                                     ... done
Starting the XC term evaluation                    ... done (   0.0 sec)
Transforming the Hamiltonian                       ... done (   0.0 sec)
Diagonalizing the Hamiltonian                      ... done (   0.0 sec)
Back transforming the eigenvectors                 ... done (   0.0 sec)
Now organizing SCF variables                       ... done
                      ------------------
                      INITIAL GUESS DONE (   0.1 sec)
                      ------------------
--------------
SCF ITERATIONS
--------------
ITER       Energy         Delta-E        Max-DP      RMS-DP      [F,P]     Damp
               ***  Starting incremental Fock matrix formation  ***
  0    -74.7958824091   0.000000000000 0.01729213  0.00031524  0.1661718 0.7000
  1    -74.8011310517  -0.005248642623 0.01229181  0.00024773  0.1185585 0.7000
                               ***Turning on DIIS***
  2    -74.8052463248  -0.004115273066 0.02898188  0.00061929  0.0842441 0.0000
  3    -74.8069211205  -0.001674795684 0.00667320  0.00016843  0.0220722 0.0000
  4    -74.8183866041  -0.011465483603 0.00333362  0.00007523  0.0055980 0.0000
  5    -74.8171418968   0.001244707272 0.00259003  0.00006407  0.0032565 0.0000
  6    -74.8174346678  -0.000292770954 0.00105919  0.00002420  0.0008227 0.0000
  7    -74.8176975274  -0.000262859682 0.00024463  0.00000624  0.0001699 0.0000
  8    -74.8176477520   0.000049775466 0.00008914  0.00000218  0.0000278 0.0000
  9    -74.8176304695   0.000017282441 0.00003371  0.00000078  0.0000065 0.0000
 10    -74.8176267578   0.000003711707 0.00002130  0.00000048  0.0000032 0.0000
 11    -74.8176259465   0.000000811288 0.00000756  0.00000017  0.0000011 0.0000
                            ***DIIS convergence achieved***

               *****************************************************
               *                     SUCCESS                       *
               *           SCF CONVERGED AFTER  12 CYCLES          *
               *****************************************************


----------------
TOTAL SCF ENERGY
----------------

Total Energy       :          -74.81762510 Eh           -2035.89108 eV

Components:
Nuclear Repulsion  :            0.00000000 Eh               0.00000 eV
Electronic Energy  :          -74.81762510 Eh           -2035.89108 eV
One Electron Energy:         -103.24660454 Eh           -2809.48294 eV
Two Electron Energy:           28.42897944 Eh             773.59186 eV

Virial components:
Potential Energy   :         -149.63193767 Eh           -4071.69202 eV
Kinetic Energy     :           74.81431258 Eh            2035.80094 eV
Virial Ratio       :            2.00004428


---------------
SCF CONVERGENCE
---------------

  Last Energy change         ...    8.4905e-07  Tolerance :   1.0000e-08
  Last MAX-Density change    ...    3.9460e-07  Tolerance :   1.0000e-07
  Last RMS-Density change    ...    9.8321e-09  Tolerance :   5.0000e-09
  Last DIIS Error            ...    1.5303e-07  Tolerance :   5.0000e-07

             **** THE GBW FILE WAS UPDATED (08_O.gbw) ****
             **** DENSITY FILE WAS UPDATED (08_O.scfp) ****
             **** ENERGY FILE WAS UPDATED (08_O.en.tmp) ****
----------------------
UHF SPIN CONTAMINATION
----------------------

Expectation value of <S**2>     :     2.009359
Ideal value S*(S+1) for S=1.0   :     2.000000
Deviation                       :     0.009359

             **** THE GBW FILE WAS UPDATED (08_O.gbw) ****
             **** DENSITY FILE WAS UPDATED (08_O.scfp) ****
----------------
ORBITAL ENERGIES
----------------
                 SPIN UP ORBITALS
  NO   OCC          E(Eh)            E(eV) 
   0   1.0000     -20.708587      -563.5093 
   1   1.0000      -1.418674       -38.6041 
   2   1.0000      -0.711081       -19.3495 
   3   1.0000      -0.711081       -19.3495 
   4   1.0000      -0.611668       -16.6443 
   5   0.0000       0.132279         3.5995 
   6   0.0000       0.132279         3.5995 
   7   0.0000       0.136137         3.7045 
   8   0.0000       0.140006         3.8098 
   9   0.0000       0.460958        12.5433 
  10   0.0000       0.460958        12.5433 
  11   0.0000       0.472606        12.8603 
  12   0.0000       0.472606        12.8603 
  13   0.0000       0.476677        12.9710 
  14   0.0000       0.677761        18.4428 
  15   0.0000       0.677761        18.4428 
  16   0.0000       0.711774        19.3684 
  17   0.0000       0.873343        23.7649 
  18   0.0000       1.308778        35.6137 
  19   0.0000       1.308778        35.6137 
  20   0.0000       1.323556        36.0158 
  21   0.0000       1.323556        36.0158 
  22   0.0000       1.332689        36.2643 
  23   0.0000       1.332689        36.2643 
  24   0.0000       1.335789        36.3487 
  25   0.0000       1.464991        39.8644 
  26   0.0000       1.464991        39.8644 
  27   0.0000       1.501964        40.8705 
  28   0.0000       1.501964        40.8705 
  29   0.0000       1.515185        41.2303 
  30   0.0000       2.663774        72.4850 
  31   0.0000       2.663774        72.4850 
  32   0.0000       2.732009        74.3418 
  33   0.0000       3.590581        97.7047 
  34   0.0000       3.590581        97.7047 
  35   0.0000       3.611719        98.2799 
  36   0.0000       3.611719        98.2799 
  37   0.0000       3.627057        98.6972 
  38   0.0000       3.627057        98.6972 
  39   0.0000       3.636363        98.9505 
  40   0.0000       3.636363        98.9505 
  41   0.0000       3.639483        99.0354 
  42   0.0000       3.884938       105.7145 
  43   0.0000       3.963901       107.8632 
  44   0.0000       3.963901       107.8632 
  45   0.0000       3.999988       108.8452 
  46   0.0000       3.999988       108.8452 
  47   0.0000       4.022237       109.4506 
  48   0.0000       4.022237       109.4506 
  49   0.0000       4.029778       109.6558 
  50   0.0000       4.221634       114.8765 
  51   0.0000       4.221634       114.8765 
  52   0.0000       4.281646       116.5095 
  53   0.0000       4.281646       116.5095 
  54   0.0000       4.302747       117.0837 
  55   0.0000      10.275062       279.5986 
  56   0.0000      10.275062       279.5986 
  57   0.0000      10.346183       281.5339 
  58   0.0000      10.490671       285.4657 
  59   0.0000      10.490671       285.4657 
  60   0.0000      10.528836       286.5042 
  61   0.0000      10.528836       286.5042 
  62   0.0000      10.556375       287.2536 
  63   0.0000      10.556375       287.2536 
  64   0.0000      10.573015       287.7064 
  65   0.0000      10.573015       287.7064 
  66   0.0000      10.578581       287.8578 
  67   0.0000      11.704827       318.5045 
  68   0.0000      11.704827       318.5045 
  69   0.0000      11.756664       319.9151 
  70   0.0000      11.756664       319.9151 
  71   0.0000      11.788358       320.7775 
  72   0.0000      11.788358       320.7775 
  73   0.0000      11.799047       321.0684 
  74   0.0000      12.527985       340.9038 
  75   0.0000      12.527985       340.9038 
  76   0.0000      12.591008       342.6188 
  77   0.0000      12.591008       342.6188 
  78   0.0000      12.612472       343.2028 
  79   0.0000      40.403558      1099.4367 

                 SPIN DOWN ORBITALS
  NO   OCC          E(Eh)            E(eV) 
   0   1.0000     -20.629881      -561.3676 
   1   1.0000      -1.075945       -29.2780 
   2   1.0000      -0.521728       -14.1969 
   3   0.0000       0.062468         1.6998 
   4   0.0000       0.062468         1.6998 
   5   0.0000       0.143166         3.8958 
   6   0.0000       0.146810         3.9949 
   7   0.0000       0.197792         5.3822 
   8   0.0000       0.197792         5.3822 
   9   0.0000       0.477899        13.0043 
  10   0.0000       0.477899        13.0043 
  11   0.0000       0.479492        13.0476 
  12   0.0000       0.479492        13.0476 
  13   0.0000       0.480314        13.0700 
  14   0.0000       0.732832        19.9414 
  15   0.0000       0.804407        21.8890 
  16   0.0000       0.804407        21.8890 
  17   0.0000       0.925802        25.1924 
  18   0.0000       1.325640        36.0725 
  19   0.0000       1.325640        36.0725 
  20   0.0000       1.333751        36.2932 
  21   0.0000       1.333751        36.2932 
  22   0.0000       1.338652        36.4266 
  23   0.0000       1.338652        36.4266 
  24   0.0000       1.340270        36.4706 
  25   0.0000       1.555319        42.3224 
  26   0.0000       1.558970        42.4217 
  27   0.0000       1.558970        42.4217 
  28   0.0000       1.573015        42.8039 
  29   0.0000       1.573015        42.8039 
  30   0.0000       2.773764        75.4780 
  31   0.0000       2.823604        76.8342 
  32   0.0000       2.823604        76.8342 
  33   0.0000       3.618289        98.4586 
  34   0.0000       3.618289        98.4586 
  35   0.0000       3.631919        98.8295 
  36   0.0000       3.631919        98.8295 
  37   0.0000       3.641658        99.0945 
  38   0.0000       3.641658        99.0945 
  39   0.0000       3.647495        99.2534 
  40   0.0000       3.647495        99.2534 
  41   0.0000       3.649440        99.3063 
  42   0.0000       3.980704       108.3205 
  43   0.0000       4.039017       109.9072 
  44   0.0000       4.039017       109.9072 
  45   0.0000       4.051420       110.2447 
  46   0.0000       4.051420       110.2447 
  47   0.0000       4.058826       110.4463 
  48   0.0000       4.058826       110.4463 
  49   0.0000       4.061283       110.5131 
  50   0.0000       4.381800       119.2348 
  51   0.0000       4.385343       119.3312 
  52   0.0000       4.385343       119.3312 
  53   0.0000       4.398819       119.6980 
  54   0.0000       4.398819       119.6980 
  55   0.0000      10.385211       282.5960 
  56   0.0000      10.395384       282.8728 
  57   0.0000      10.395384       282.8728 
  58   0.0000      10.561855       287.4027 
  59   0.0000      10.561855       287.4027 
  60   0.0000      10.583848       288.0012 
  61   0.0000      10.583848       288.0012 
  62   0.0000      10.599591       288.4295 
  63   0.0000      10.599591       288.4295 
  64   0.0000      10.609048       288.6869 
  65   0.0000      10.609048       288.6869 
  66   0.0000      10.612202       288.7727 
  67   0.0000      11.821443       321.6778 
  68   0.0000      11.821443       321.6778 
  69   0.0000      11.840748       322.2031 
  70   0.0000      11.840748       322.2031 
  71   0.0000      11.852379       322.5196 
  72   0.0000      11.852379       322.5196 
  73   0.0000      11.856263       322.6253 
  74   0.0000      12.668144       344.7177 
  75   0.0000      12.668144       344.7177 
  76   0.0000      12.676927       344.9567 
  77   0.0000      12.676927       344.9567 
  78   0.0000      12.679940       345.0387 
  79   0.0000      40.452241      1100.7614 

                    ********************************
                    * MULLIKEN POPULATION ANALYSIS *
                    ********************************

--------------------------------------------
MULLIKEN ATOMIC CHARGES AND SPIN POPULATIONS
--------------------------------------------
   0 O :   -0.000000    2.000000
Sum of atomic charges         :   -0.0000000
Sum of atomic spin populations:    2.0000000

-----------------------------------------------------
MULLIKEN REDUCED ORBITAL CHARGES AND SPIN POPULATIONS
-----------------------------------------------------
CHARGE
  0 O s       :     3.998391  s :     3.998391
      pz      :     1.987013  p :     3.999603
      px      :     1.012510
      py      :     1.000080
      dz2     :     0.001548  d :     0.001609
      dxz     :     0.000060
      dyz     :     0.000001
      dx2y2   :     0.000000
      dxy     :     0.000000
      f0      :     0.000176  f :     0.000397
      f+1     :     0.000110
      f-1     :     0.000105
      f+2     :     0.000003
      f-2     :     0.000003
      f+3     :     0.000000
      f-3     :     0.000000
      g0      :     0.000000  g :     0.000000
      g+1     :     0.000000
      g-1     :     0.000000
      g+2     :     0.000000
      g-2     :     0.000000
      g+3     :     0.000000
      g-3     :     0.000000
      g+4     :     0.000000
      g-4     :     0.000000

SPIN
  0 O s       :     0.000620  s :     0.000620
      pz      :     0.012635  p :     1.999611
      px      :     0.987273
      py      :     0.999704
      dz2     :    -0.000597  d :    -0.000620
      dxz     :    -0.000023
      dyz     :    -0.000000
      dx2y2   :    -0.000000
      dxy     :    -0.000000
      f0      :     0.000168  f :     0.000389
      f+1     :     0.000109
      f-1     :     0.000105
      f+2     :     0.000003
      f-2     :     0.000003
      f+3     :     0.000000
      f-3     :     0.000000
      g0      :     0.000000  g :     0.000000
      g+1     :     0.000000
      g-1     :     0.000000
      g+2     :     0.000000
      g-2     :     0.000000
      g+3     :     0.000000
      g-3     :     0.000000
      g+4     :     0.000000
      g-4     :     0.000000


                     *******************************
                     * LOEWDIN POPULATION ANALYSIS *
                     *******************************

-------------------------------------------
LOEWDIN ATOMIC CHARGES AND SPIN POPULATIONS
-------------------------------------------
   0 O :   -0.000000    2.000000

----------------------------------------------------
LOEWDIN REDUCED ORBITAL CHARGES AND SPIN POPULATIONS
----------------------------------------------------
CHARGE
  0 O s       :     3.998391  s :     3.998391
      pz      :     1.987013  p :     3.999603
      px      :     1.012510
      py      :     1.000080
      dz2     :     0.001548  d :     0.001609
      dxz     :     0.000060
      dyz     :     0.000001
      dx2y2   :     0.000000
      dxy     :     0.000000
      f0      :     0.000176  f :     0.000397
      f+1     :     0.000110
      f-1     :     0.000105
      f+2     :     0.000003
      f-2     :     0.000003
      f+3     :     0.000000
      f-3     :     0.000000
      g0      :     0.000000  g :     0.000000
      g+1     :     0.000000
      g-1     :     0.000000
      g+2     :     0.000000
      g-2     :     0.000000
      g+3     :     0.000000
      g-3     :     0.000000
      g+4     :     0.000000
      g-4     :     0.000000

SPIN
  0 O s       :     0.000620  s :     0.000620
      pz      :     0.012635  p :     1.999611
      px      :     0.987273
      py      :     0.999704
      dz2     :    -0.000597  d :    -0.000620
      dxz     :    -0.000023
      dyz     :    -0.000000
      dx2y2   :    -0.000000
      dxy     :    -0.000000
      f0      :     0.000168  f :     0.000389
      f+1     :     0.000109
      f-1     :     0.000105
      f+2     :     0.000003
      f-2     :     0.000003
      f+3     :     0.000000
      f-3     :     0.000000
      g0      :     0.000000  g :     0.000000
      g+1     :     0.000000
      g-1     :     0.000000
      g+2     :     0.000000
      g-2     :     0.000000
      g+3     :     0.000000
      g-3     :     0.000000
      g+4     :     0.000000
      g-4     :     0.000000


                      *****************************
                      * MAYER POPULATION ANALYSIS *
                      *****************************

  NA   - Mulliken gross atomic population
  ZA   - Total nuclear charge
  QA   - Mulliken gross atomic charge
  VA   - Mayer's total valence
  BVA  - Mayer's bonded valence
  FA   - Mayer's free valence

  ATOM       NA         ZA         QA         VA         BVA        FA
  0 O      8.0000     8.0000    -0.0000     2.0187     0.0000     2.0187

  Mayer bond orders larger than 0.100000


-------
TIMINGS
-------

Total SCF time: 0 days 0 hours 0 min 2 sec 

Total time                  ....       2.626 sec
Sum of individual times     ....       2.209 sec  ( 84.1%)

Fock matrix formation       ....       1.853 sec  ( 70.6%)
Diagonalization             ....       0.056 sec  (  2.1%)
Density matrix formation    ....       0.006 sec  (  0.2%)
Population analysis         ....       0.048 sec  (  1.8%)
Initial guess               ....       0.108 sec  (  4.1%)
Orbital Transformation      ....       0.000 sec  (  0.0%)
Orbital Orthonormalization  ....       0.000 sec  (  0.0%)
DIIS solution               ....       0.110 sec  (  4.2%)


           ************************************************************
           *        Program running with 15 parallel MPI-processes    *
           *              working on a common directory               *
           ************************************************************


------------------------------------------------------------------------------- 
                              ORCA-MATRIX DRIVEN CI                            
------------------------------------------------------------------------------- 

--------------------------------
AUTOMATIC CHOICE OF INCORE LEVEL
--------------------------------

Memory available                           ...   2500.00 MB
Memory needed for S+T                      ...      1.29 MB
Memory needed for J+K                      ...      2.59 MB
Memory needed for DIIS                     ...     18.02 MB
Memory needed for 3-ext                    ...     12.87 MB
Memory needed for 4-ext                    ...    122.31 MB
Memory needed for triples                  ...     16.09 MB
 -> Final InCoreLevel    ... 5
 -> check shows that triples correction can be computed


Wavefunction type
-----------------
Correlation treatment                      ...      CCSD     
Single excitations                         ... ON
Orbital optimization                       ... OFF
Calculation of Z vector                    ... OFF
Calculation of Brueckner orbitals          ... OFF
Perturbative triple excitations            ... ON
Calculation of F12 correction              ... OFF
Frozen core treatment                      ... chemical core (2 el)
Reference Wavefunction                     ... UHF
  Alpha-MOs occ    :     1 ...    4 (  4 MO's/  4 electrons)
  Beta-MOs occ     :     1 ...    2 (  2 MO's/  2 electrons)
  Alpha-MOs virt   :     5 ...   79 ( 75 MO's              )
  Beta-MOs virt    :     3 ...   79 ( 77 MO's              )
Number of AO's                             ...     80
Number of electrons                        ...      8
Number of correlated electrons             ...      6

Algorithmic settings
--------------------
Integral transformation                    ... AO direct full transformation
K(C) Formation                             ... FULL-MO TRAFO
Maximum number of iterations               ...        50
Convergence tolerance (max. residuum)      ... 1.000e-05
Level shift for amplitude update           ... 2.000e-01
Maximum number of DIIS vectors             ...         7
DIIS turned on at iteration                ...         0
Damping before turning on DIIS             ...     0.500
Damping after turning on DIIS              ...     0.000
Pair specific amplitude update             ... OFF
Natural orbital iterations                 ... OFF
Perturbative natural orbital generation    ... OFF
Printlevel                                 ... 2

Memory handling:
----------------
Maximum memory for working arrays          ...   2500 MB
Data storage in matrix containers          ... UNCOMPRESSED
Data type for integral storage             ... DOUBLE
In-Core Storage of quantities:
   Amplitudes+Sigma Vector      ... YES
   J+K operators                ... YES
   DIIS vectors                 ... YES
   3-external integrals         ... YES
   4-external integrals         ... YES


Initializing the integral package          ... done
Warning: reference  - re-canonicalizations have been set to INT 1 VIRT 1

--------------------------
UNRESTRICTED FOCK OPERATOR
--------------------------

<ss|ss>:          231 b            0 skpd (  0.0%)    0.001 s ( 0.003 ms/b)
<ss|sp>:          630 b            0 skpd (  0.0%)    0.001 s ( 0.001 ms/b)
<ss|sd>:          504 b            0 skpd (  0.0%)    0.000 s ( 0.001 ms/b)
<ss|sf>:          378 b            0 skpd (  0.0%)    0.000 s ( 0.001 ms/b)
<ss|sg>:          252 b            0 skpd (  0.0%)    0.000 s ( 0.002 ms/b)
<ss|pp>:          315 b            0 skpd (  0.0%)    0.000 s ( 0.001 ms/b)
<ss|pd>:          420 b            0 skpd (  0.0%)    0.000 s ( 0.000 ms/b)
<ss|pf>:          315 b            0 skpd (  0.0%)    0.000 s ( 0.001 ms/b)
<ss|pg>:          210 b            0 skpd (  0.0%)    0.000 s ( 0.001 ms/b)
<ss|dd>:          210 b            0 skpd (  0.0%)    0.000 s ( 0.000 ms/b)
<ss|df>:          252 b            0 skpd (  0.0%)    0.000 s ( 0.000 ms/b)
<ss|dg>:          168 b            0 skpd (  0.0%)    0.000 s ( 0.001 ms/b)
<ss|ff>:          126 b            0 skpd (  0.0%)    0.000 s ( 0.001 ms/b)
<ss|fg>:          126 b            0 skpd (  0.0%)    0.000 s ( 0.002 ms/b)
<ss|gg>:           63 b            0 skpd (  0.0%)    0.000 s ( 0.006 ms/b)
<sp|sp>:          465 b            0 skpd (  0.0%)    0.000 s ( 0.001 ms/b)
<sp|sd>:          720 b            0 skpd (  0.0%)    0.000 s ( 0.000 ms/b)
<sp|sf>:          540 b            0 skpd (  0.0%)    0.000 s ( 0.001 ms/b)
<sp|sg>:          360 b            0 skpd (  0.0%)    0.000 s ( 0.001 ms/b)
<sp|pp>:          450 b            0 skpd (  0.0%)    0.000 s ( 0.000 ms/b)
<sp|pd>:          600 b            0 skpd (  0.0%)    0.000 s ( 0.000 ms/b)
<sp|pf>:          450 b            0 skpd (  0.0%)    0.000 s ( 0.001 ms/b)
<sp|pg>:          300 b            0 skpd (  0.0%)    0.000 s ( 0.001 ms/b)
<sp|dd>:          300 b            0 skpd (  0.0%)    0.000 s ( 0.000 ms/b)
<sp|df>:          360 b            0 skpd (  0.0%)    0.000 s ( 0.001 ms/b)
<sp|dg>:          240 b            0 skpd (  0.0%)    0.000 s ( 0.001 ms/b)
<sp|ff>:          180 b            0 skpd (  0.0%)    0.000 s ( 0.002 ms/b)
<sp|fg>:          180 b            0 skpd (  0.0%)    0.000 s ( 0.003 ms/b)
<sp|gg>:           90 b            0 skpd (  0.0%)    0.001 s ( 0.007 ms/b)
<sd|sd>:          300 b            0 skpd (  0.0%)    0.000 s ( 0.001 ms/b)
<sd|sf>:          432 b            0 skpd (  0.0%)    0.000 s ( 0.001 ms/b)
<sd|sg>:          288 b            0 skpd (  0.0%)    0.001 s ( 0.002 ms/b)
<sd|pp>:          360 b            0 skpd (  0.0%)    0.000 s ( 0.001 ms/b)
<sd|pd>:          480 b            0 skpd (  0.0%)    0.000 s ( 0.001 ms/b)
<sd|pf>:          360 b            0 skpd (  0.0%)    0.000 s ( 0.001 ms/b)
<sd|pg>:          240 b            0 skpd (  0.0%)    0.000 s ( 0.002 ms/b)
<sd|dd>:          240 b            0 skpd (  0.0%)    0.000 s ( 0.001 ms/b)
<sd|df>:          288 b            0 skpd (  0.0%)    0.000 s ( 0.001 ms/b)
<sd|dg>:          192 b            0 skpd (  0.0%)    0.000 s ( 0.003 ms/b)
<sd|ff>:          144 b            0 skpd (  0.0%)    0.001 s ( 0.004 ms/b)
<sd|fg>:          144 b            0 skpd (  0.0%)    0.001 s ( 0.005 ms/b)
<sd|gg>:           72 b            0 skpd (  0.0%)    0.001 s ( 0.014 ms/b)
<sf|sf>:          171 b            0 skpd (  0.0%)    0.000 s ( 0.002 ms/b)
<sf|sg>:          216 b            0 skpd (  0.0%)    0.001 s ( 0.004 ms/b)
<sf|pp>:          270 b            0 skpd (  0.0%)    0.000 s ( 0.001 ms/b)
<sf|pd>:          360 b            0 skpd (  0.0%)    0.000 s ( 0.001 ms/b)
<sf|pf>:          270 b            0 skpd (  0.0%)    0.000 s ( 0.002 ms/b)
<sf|pg>:          180 b            0 skpd (  0.0%)    0.001 s ( 0.004 ms/b)
<sf|dd>:          180 b            0 skpd (  0.0%)    0.000 s ( 0.001 ms/b)
<sf|df>:          216 b            0 skpd (  0.0%)    0.000 s ( 0.002 ms/b)
<sf|dg>:          144 b            0 skpd (  0.0%)    0.001 s ( 0.005 ms/b)
<sf|ff>:          108 b            0 skpd (  0.0%)    0.001 s ( 0.008 ms/b)
<sf|fg>:          108 b            0 skpd (  0.0%)    0.001 s ( 0.010 ms/b)
<sf|gg>:           54 b            0 skpd (  0.0%)    0.002 s ( 0.029 ms/b)
<sg|sg>:           78 b            0 skpd (  0.0%)    0.001 s ( 0.011 ms/b)
<sg|pp>:          180 b            0 skpd (  0.0%)    0.000 s ( 0.003 ms/b)
<sg|pd>:          240 b            0 skpd (  0.0%)    0.001 s ( 0.002 ms/b)
<sg|pf>:          180 b            0 skpd (  0.0%)    0.001 s ( 0.003 ms/b)
<sg|pg>:          120 b            1 skpd (  0.8%)    0.001 s ( 0.009 ms/b)
<sg|dd>:          120 b            0 skpd (  0.0%)    0.000 s ( 0.002 ms/b)
<sg|df>:          144 b            0 skpd (  0.0%)    0.001 s ( 0.004 ms/b)
<sg|dg>:           96 b            0 skpd (  0.0%)    0.001 s ( 0.009 ms/b)
<sg|ff>:           72 b            0 skpd (  0.0%)    0.001 s ( 0.012 ms/b)
<sg|fg>:           72 b            0 skpd (  0.0%)    0.001 s ( 0.019 ms/b)
<sg|gg>:           36 b            0 skpd (  0.0%)    0.002 s ( 0.060 ms/b)
<pp|pp>:          120 b            0 skpd (  0.0%)    0.000 s ( 0.001 ms/b)
<pp|pd>:          300 b            0 skpd (  0.0%)    0.000 s ( 0.001 ms/b)
<pp|pf>:          225 b            0 skpd (  0.0%)    0.000 s ( 0.001 ms/b)
<pp|pg>:          150 b            0 skpd (  0.0%)    0.000 s ( 0.002 ms/b)
<pp|dd>:          150 b            0 skpd (  0.0%)    0.000 s ( 0.001 ms/b)
<pp|df>:          180 b            0 skpd (  0.0%)    0.000 s ( 0.001 ms/b)
<pp|dg>:          120 b            0 skpd (  0.0%)    0.000 s ( 0.003 ms/b)
<pp|ff>:           90 b            0 skpd (  0.0%)    0.000 s ( 0.004 ms/b)
<pp|fg>:           90 b            0 skpd (  0.0%)    0.001 s ( 0.006 ms/b)
<pp|gg>:           45 b            0 skpd (  0.0%)    0.001 s ( 0.016 ms/b)
<pd|pd>:          210 b            0 skpd (  0.0%)    0.000 s ( 0.002 ms/b)
<pd|pf>:          300 b            0 skpd (  0.0%)    0.000 s ( 0.001 ms/b)
<pd|pg>:          200 b            0 skpd (  0.0%)    0.001 s ( 0.003 ms/b)
<pd|dd>:          200 b            0 skpd (  0.0%)    0.000 s ( 0.002 ms/b)
<pd|df>:          240 b            0 skpd (  0.0%)    0.001 s ( 0.003 ms/b)
<pd|dg>:          160 b            0 skpd (  0.0%)    0.001 s ( 0.005 ms/b)
<pd|ff>:          120 b            0 skpd (  0.0%)    0.001 s ( 0.007 ms/b)
<pd|fg>:          120 b            0 skpd (  0.0%)    0.001 s ( 0.010 ms/b)
<pd|gg>:           60 b            0 skpd (  0.0%)    0.002 s ( 0.029 ms/b)
<pf|pf>:          120 b            0 skpd (  0.0%)    0.000 s ( 0.003 ms/b)
<pf|pg>:          150 b            0 skpd (  0.0%)    0.001 s ( 0.005 ms/b)
<pf|dd>:          150 b            0 skpd (  0.0%)    0.000 s ( 0.002 ms/b)
<pf|df>:          180 b            0 skpd (  0.0%)    0.001 s ( 0.004 ms/b)
<pf|dg>:          120 b            0 skpd (  0.0%)    0.001 s ( 0.011 ms/b)
<pf|ff>:           90 b            0 skpd (  0.0%)    0.001 s ( 0.014 ms/b)
<pf|fg>:           90 b            0 skpd (  0.0%)    0.002 s ( 0.018 ms/b)
<pf|gg>:           45 b            0 skpd (  0.0%)    0.002 s ( 0.047 ms/b)
<pg|pg>:           55 b            0 skpd (  0.0%)    0.001 s ( 0.010 ms/b)
<pg|dd>:          100 b            0 skpd (  0.0%)    0.000 s ( 0.004 ms/b)
<pg|df>:          120 b            0 skpd (  0.0%)    0.001 s ( 0.005 ms/b)
<pg|dg>:           80 b            0 skpd (  0.0%)    0.001 s ( 0.013 ms/b)
<pg|ff>:           60 b            0 skpd (  0.0%)    0.001 s ( 0.017 ms/b)
<pg|fg>:           60 b            0 skpd (  0.0%)    0.002 s ( 0.028 ms/b)
<pg|gg>:           30 b            0 skpd (  0.0%)    0.003 s ( 0.089 ms/b)
<dd|dd>:           55 b            0 skpd (  0.0%)    0.000 s ( 0.005 ms/b)
<dd|df>:          120 b            0 skpd (  0.0%)    0.001 s ( 0.004 ms/b)
<dd|dg>:           80 b            0 skpd (  0.0%)    0.001 s ( 0.009 ms/b)
<dd|ff>:           60 b            0 skpd (  0.0%)    0.001 s ( 0.012 ms/b)
<dd|fg>:           60 b            0 skpd (  0.0%)    0.001 s ( 0.018 ms/b)
<dd|gg>:           30 b            0 skpd (  0.0%)    0.002 s ( 0.050 ms/b)
<df|df>:           78 b            0 skpd (  0.0%)    0.001 s ( 0.012 ms/b)
<df|dg>:           96 b            0 skpd (  0.0%)    0.001 s ( 0.014 ms/b)
<df|ff>:           72 b            0 skpd (  0.0%)    0.002 s ( 0.024 ms/b)
<df|fg>:           72 b            0 skpd (  0.0%)    0.002 s ( 0.032 ms/b)
<df|gg>:           36 b            0 skpd (  0.0%)    0.003 s ( 0.086 ms/b)
<dg|dg>:           36 b            0 skpd (  0.0%)    0.001 s ( 0.037 ms/b)
<dg|ff>:           48 b            0 skpd (  0.0%)    0.001 s ( 0.028 ms/b)
<dg|fg>:           48 b            0 skpd (  0.0%)    0.002 s ( 0.045 ms/b)
<dg|gg>:           24 b            0 skpd (  0.0%)    0.004 s ( 0.166 ms/b)
<ff|ff>:           21 b            0 skpd (  0.0%)    0.001 s ( 0.051 ms/b)
<ff|fg>:           36 b            0 skpd (  0.0%)    0.002 s ( 0.054 ms/b)
<ff|gg>:           18 b            0 skpd (  0.0%)    0.003 s ( 0.147 ms/b)
<fg|fg>:           21 b            0 skpd (  0.0%)    0.003 s ( 0.132 ms/b)
<fg|gg>:           18 b            0 skpd (  0.0%)    0.005 s ( 0.267 ms/b)
<gg|gg>:            6 b            0 skpd (  0.0%)    0.004 s ( 0.693 ms/b)
Recanonicalizing the internal orbitals
Recanonicalizing the virtual orbitals
Time needed for Fock operator              ...            0.130 sec
Reference energy                           ...    -74.817625058
Warning: for UHF the TrafoType has to be JK
Warning: for UHF the K(C)-option cannot be MO but must be AOX

-------------------------------
PARTIAL EXCHANGE TRANSFORMATION
-------------------------------

Transformation type                        ... two-operators
Generation of integrals (i,mue|j,nue)      ... ON
Generation of integrals (mue,kappa|nue,tau)... ON
Generation of integrals (i,mue|a,nue)      ... ON
Dimension of the basis                     ...   80
Number of internal alpha-MOs               ...    4 (   1-   4)
Number of internal beta-MOs                ...    2 (   1-   2)
Number of external alpha-MOs               ...   75 (   5-  79)
Number of external beta-MOs                ...   77 (   3-  79)
Pair cutoff                                ... 0.000e+00 Eh
Number of AO pairs in the trafo            ... 3240
Total Number of distinct AO pairs          ... 3240
Memory devoted for trafo                   ... 2500.0 MB 
Max. Number of MO pairs treated together   ... 51200      
Number Format for Storage                  ... Double (8 Byte)
Integral package used                      ... LIBINT

Starting integral evaluation:
    ... done with AO integral generation
Closing buffer AOK[aa] ( 0.00 GB; CompressionRatio= 0.91)
Closing buffer AOK[bb] ( 0.00 GB; CompressionRatio= 0.73)
Closing buffer AOK[ab] ( 0.00 GB; CompressionRatio= 0.84)
Closing buffer AOK[ba] ( 0.00 GB; CompressionRatio= 0.84)
Collecting buffer AOK 
Closing buffer IAAO1[aa] ( 0.00 GB; CompressionRatio= 1.00)
Closing buffer IAAO1[bb] ( 0.00 GB; CompressionRatio= 0.99)
Closing buffer IAAO1[ab] ( 0.00 GB; CompressionRatio= 1.00)
Closing buffer IAAO1[ba] ( 0.00 GB; CompressionRatio= 0.99)
Closing buffer IAAO2[aa] ( 0.00 GB; CompressionRatio= 1.00)
Closing buffer IAAO2[bb] ( 0.00 GB; CompressionRatio= 0.99)
Closing buffer IAAO2[ab] ( 0.00 GB; CompressionRatio= 1.00)
Closing buffer IAAO2[ba] ( 0.00 GB; CompressionRatio= 0.99)
Collecting buffer IAAO 
Closing buffer PRQS    ( 0.00 GB; CompressionRatio= 1.00)
Collecting buffer PRQS 
Number of alpha/alpha MO pairs in trafo    ...   10
Number of beta /beta  MO pairs in trafo    ...    3
Number of alpha/ beta MO pairs in trafo    ...    8
------------------------
SORTING OF (i,mue|j,nue)
------------------------

SORTING OF ALPHA/ALPHA PAIRS
IBATCH = 1 of  1
Closing buffer KAO[aa] ( 0.00 GB; CompressionRatio= 1.00)
Collecting buffer KAO 
SORTING OF BETA /BETA  PAIRS
IBATCH = 1 of  1
Closing buffer KAO[bb] ( 0.00 GB; CompressionRatio= 1.00)
Collecting buffer KAO 
SORTING OF ALPHA/BETA  PAIRS
IBATCH = 1 of  1
Closing buffer KAO[ab] ( 0.00 GB; CompressionRatio= 0.999765679919)
Collecting buffer KAO[ab] 
------------------------
SORTING OF (i,mue|a,nue)
------------------------

Number of alpha/alpha (i,a) pairs in trafo  ...  300
Number of beta /beta  (i,a) pairs in trafo  ...  154
Number of alpha/ beta (i,a) pairs in trafo  ...  308
Number of beta /alpha (i,a) pairs in trafo  ...  150
Setting up the alpha/alpha list             ... done
Setting up the beta /beta  list             ... done
Setting up the alpha/beta  list             ... done
Setting up the beta /alpha list             ... done
    ... Now sorting (i,mue|a,nue)integrals
    ... Integrals (i,b|a,c) will be made on the fly
SORTING OF ALPHA/ALPHA PAIRS
IBATCH = 1 of  1
Closing buffer IPAQ[aa]  0.00 GB; CompressionRatio= 1.00)
SORTING OF BETA /BETA  PAIRS
IBATCH = 1 of  1
Closing buffer IPAQ[bb]( 0.00 GB; CompressionRatio= 1.00)
SORTING OF ALPHA/BETA  PAIRS (NMatSort_ab=21)
IBATCH = 1 of  1
Closing buffer IPAQ[ab]( 0.00 GB; CompressionRatio= 1.00)
SORTING OF BETA/ALPHA  PAIRS
IBATCH = 1 of  1
Closing buffer IPAQ[ba]( 0.00 GB; CompressionRatio= 1.00)
N(AO-Batches) Done                         ...      2400 
N(AO-Batches) Skipped                      ...         0 
N(IJ)-pairs Skipped                        ...         0 
TOTAL TIME for half transformation         ...     4.921 sec
AO-integral generation                     ...     0.060 sec
Half transformation                        ...     0.703 sec
K-integral sorting                         ...     0.658 sec
<ss|**>: 
------------------------------
PARTIAL COULOMB TRANSFORMATION
------------------------------

Transformation type                        ... two-operators
Dimension of the basis                     ...   80
Number of internal alpha-MOs               ...    4 (1-4)
Number of internal beta-MOs                ...    2 (1-2)
Pair cutoff                                ... 0.000e+00 Eh
Number of AO pairs included in the trafo   ... 3240
Total Number of distinct AO pairs          ... 3240
Memory devoted for trafo                   ... 2500.0 MB 
Max. Number of MO pairs treated together   ... 101135      
Max. Number of MOs treated per batch       ... 1264      
Number Format for Storage                  ... Double (8 Byte)
AO-integral source                         ... DIRECT
Integral package used                      ... LIBINT

Starting integral evaluation:
<sp|**>:         4410 b        0 skpd     0.018 s (  0.004 ms/b)
        6300 b        0 skpd     0.015 s (  0.002 ms/b)
<sd|**>:         5040 b        0 skpd     0.024 s (  0.005 ms/b)
<sf|**>: <sg|**>:         3780 b        0 skpd     0.039 s (  0.010 ms/b)
<pp|**>:         2520 b        0 skpd     0.023 s (  0.009 ms/b)
        3150 b        0 skpd     0.023 s (  0.007 ms/b)
<pd|**>:         4200 b        0 skpd     0.061 s (  0.015 ms/b)
<pf|**>:         3150 b        0 skpd     0.055 s (  0.018 ms/b)
<pg|**>:         2100 b        0 skpd     0.060 s (  0.029 ms/b)
<dd|**>:         2100 b        0 skpd     0.043 s (  0.021 ms/b)
<df|**>:         2520 b        0 skpd     0.075 s (  0.030 ms/b)
<dg|**>:         1680 b        0 skpd     0.072 s (  0.043 ms/b)
<ff|**>:         1260 b        0 skpd     0.067 s (  0.053 ms/b)
<fg|**>:         1260 b        0 skpd     0.089 s (  0.070 ms/b)
<gg|**>:          630 b        0 skpd     0.096 s (  0.152 ms/b)
Closing buffer AOJ[aa] ( 0.00 GB; CompressionRatio= 0.87)
Closing buffer AOJ[bb] ( 0.00 GB; CompressionRatio= 0.00)
Collecting buffer AOJ 
    ... done with AO integral generation
Number of Alpha-MO pairs included          ...   10
Number of Beta-MO pairs included           ...    3
    ... Now sorting integrals
SORTING ALPHA/ALPHA PAIRS
IBATCH = 1 of  1
Closing buffer JAO[aa] ( 0.00 GB; CompressionRatio= 1.00)
SORTING BETA/BETA PAIRS
IBATCH = 1 of  1
Closing buffer JAO[bb] ( 0.00 GB; CompressionRatio= 1.00)
Collecting buffer JAO 
TOTAL TIME for half transformation         ...     0.858 sec
AO-integral generation                     ...     0.481 sec
Half transformation                        ...     0.282 sec
J-integral sorting                         ...     0.072 sec

-------------------------- SECOND HALF TRANSFORMATION -------------------------
Formation of (ij|kl),(ij|ka), (ij|ab)      ... ok (     0.083 sec)
Formation of (ik|jl),(ik|ja), (ia|jb)      ... ok (     0.126 sec)


-----------------------
SPIN UNRESTRICTED GUESS
-----------------------

Entering MDCI_UHF_Guess, Tailored=0
Spin-components of the MP2 energy:
EMP2(aa)=     -0.033403631
EMP2(bb)=     -0.004581003
EMP2(ab)=     -0.121099337

Initial guess performed in     0.003 sec
E(0)                                       ...    -74.817625058
E(MP2)                                     ...     -0.159083971
Initial E(tot)                             ...    -74.976709030
<T|T>                                      ...      0.030126954
Number of pairs included                   ... 15

------------------------------------------------
                  UHF COUPLED CLUSTER ITERATIONS
------------------------------------------------

Number of amplitudes to be optimized       ...        66263

Iter       E(tot)           E(Corr)          Delta-E          Residual     Time      <S|S>**1/2
  0    -74.976709030     -0.159083971      0.000000000      0.015125198    0.31      0.000000057
                           *** Turning on DIIS ***
  1    -74.987213593     -0.169588535     -0.010504563      0.005026870    0.27      0.010239612
  2    -74.990600677     -0.172975618     -0.003387084      0.001549097    0.27      0.015080316
  3    -74.991227746     -0.173602688     -0.000627070      0.000815431    0.26      0.017594431
  4    -74.991360276     -0.173735217     -0.000132530      0.000384288    0.27      0.018568743
  5    -74.991396017     -0.173770958     -0.000035741      0.000146129    0.27      0.018867968
  6    -74.991397884     -0.173772825     -0.000001867      0.000051854    0.28      0.018853103
  7    -74.991397865     -0.173772806      0.000000019      0.000014379    0.28      0.018831045
  8    -74.991398467     -0.173773409     -0.000000602      0.000003370    0.27      0.018828884
               --- The Coupled-Cluster iterations have converged ---

----------------------
COUPLED CLUSTER ENERGY
----------------------

E(0)                                       ...    -74.817625058
E(CORR)                                    ...     -0.173773409
E(TOT)                                     ...    -74.991398467
Singles norm <S|S>**1/2                    ...      0.018828884 ( 0.014040638, 0.004788246)  
T1 diagnostic                              ...      0.007686860                              

------------------
LARGEST AMPLITUDES
------------------
   4a-> 16a   2b-> 14b       0.034064
   3a-> 14a   2b-> 14b       0.023869
   2a-> 15a   2b-> 14b       0.023869
   4a-> 32a   2b-> 30b       0.019274
   4a-> 32a   2b-> 14b       0.019184
   1a-> 17a   2b-> 14b       0.018724
   4a-> 16a   2b-> 30b       0.018573
   4a-> 16a   1b-> 17b       0.018262
   4a-> 14a   3a-> 16a       0.018052
   4a-> 16a   3a-> 14a       0.018052
   4a-> 15a   2a-> 16a       0.018052
   4a-> 16a   2a-> 15a       0.018052
   4a-> 29a   2b-> 25b       0.017984
   4a-> 16a   2b->  5b       0.017757
   3a-> 14a   2a-> 15a       0.017591
   3a-> 15a   2a-> 14a       0.017591

----------------------
UHF TRIPLES CORRECTION (Algorithm 1)
----------------------

Multiplier for the singles contribution    ...      1.000000000

SPIN-CASE Alpha-Alpha-Alpha:
10% done
20% done
30% done
40% done
50% done
60% done
70% done
80% done
90% done


SPIN-CASE Beta-Beta-Beta:

SPIN-CASE Alpha-Alpha-Beta:
10% done
20% done
30% done
40% done
50% done
60% done
70% done
80% done
90% done


SPIN-CASE Beta-Beta-Alpha:
10% done
20% done
30% done
40% done
50% done
60% done
70% done
80% done
90% done


Triples Correction (T)                     ...     -0.003869098
    alpha-alpha-alpha ... -0.000218714 (  5.7%)
    alpha-alpha-beta  ... -0.002822472 ( 72.9%)
    alpha-beta -beta  ... -0.000827913 ( 21.4%)
    beta -beta -beta  ...  0.000000000 ( -0.0%)
Scaling of triples based on CCSD energies (Peterson et al. Molecular Physics 113, 1551 (2015))
E(T*) = f*E(T) where f = E(F12-CCSD)/E(CCSD) 
f = CCSD (with F12)/ CCSD (without F12)    ...      1.000000000
Scaled triples correction (T)              ...     -0.003869098

Final correlation energy                   ...     -0.177642507
E(CCSD)                                    ...    -74.991398467
E(CCSD(T))                                 ...    -74.995267565



        !!!!!!!!!!!!!!!!!!!!!!!!!!!!!!!!!!!!!!!!!!!!!!!!!!!!!!!!!!!!!!!!!!!!!!!!!! 
        !  Warning: Densities are linearized densities                           !
        !!!!!!!!!!!!!!!!!!!!!!!!!!!!!!!!!!!!!!!!!!!!!!!!!!!!!!!!!!!!!!!!!!!!!!!!!! 

NORM  =      1.039897793 sqrt=     1.019753790
W(HF) =      0.961632967
------------------------------------------------------------------------------
                           ORCA POPULATION ANALYSIS
------------------------------------------------------------------------------
Input electron density              ... 08_O.mdcip
Input spin density                  ... 08_O.mdcir
BaseName (.gbw .S,...)              ... 08_O

                    ********************************
                    * MULLIKEN POPULATION ANALYSIS *
                    ********************************

------------------------------------------
MULLIKEN ATOMIC CHARGES AND SPIN DENSITIES
------------------------------------------
   0 O :    0.000000    2.000000
Sum of atomic charges       :    0.0000000
Sum of atomic spin densities:    2.0000000

---------------------------------------------------
MULLIKEN REDUCED ORBITAL CHARGES AND SPIN DENSITIES
---------------------------------------------------
CHARGE
  0 O s       :     3.983925  s :     3.983925
      pz      :     1.972934  p :     3.985825
      px      :     1.012570
      py      :     1.000321
      dz2     :     0.005935  d :     0.026392
      dxz     :     0.005573
      dyz     :     0.005558
      dx2y2   :     0.004663
      dxy     :     0.004663
      f0      :     0.000693  f :     0.003414
      f+1     :     0.000644
      f-1     :     0.000640
      f+2     :     0.000485
      f-2     :     0.000485
      f+3     :     0.000234
      f-3     :     0.000234
      g0      :     0.000069  g :     0.000445
      g+1     :     0.000067
      g-1     :     0.000066
      g+2     :     0.000057
      g-2     :     0.000057
      g+3     :     0.000042
      g-3     :     0.000042
      g+4     :     0.000022
      g-4     :     0.000022

SPIN
  0 O s       :     0.011783  s :     0.011783
      pz      :     0.013608  p :     1.974298
      px      :     0.974218
      py      :     0.986471
      dz2     :     0.001099  d :     0.012507
      dxz     :     0.001785
      dyz     :     0.001812
      dx2y2   :     0.003905
      dxy     :     0.003905
      f0      :     0.000271  f :     0.001381
      f+1     :     0.000254
      f-1     :     0.000252
      f+2     :     0.000196
      f-2     :     0.000196
      f+3     :     0.000106
      f-3     :     0.000106
      g0      :    -0.000001  g :     0.000031
      g+1     :    -0.000000
      g-1     :    -0.000000
      g+2     :     0.000002
      g-2     :     0.000002
      g+3     :     0.000005
      g-3     :     0.000005
      g+4     :     0.000010
      g-4     :     0.000010


                     *******************************
                     * LOEWDIN POPULATION ANALYSIS *
                     *******************************

-----------------------------------------
LOEWDIN ATOMIC CHARGES AND SPIN DENSITIES
-----------------------------------------
   0 O :   -0.000000    2.000000

--------------------------------------------------
LOEWDIN REDUCED ORBITAL CHARGES AND SPIN DENSITIES
--------------------------------------------------
CHARGE
  0 O s       :     3.983925  s :     3.983925
      pz      :     1.972934  p :     3.985825
      px      :     1.012570
      py      :     1.000321
      dz2     :     0.005935  d :     0.026392
      dxz     :     0.005573
      dyz     :     0.005558
      dx2y2   :     0.004663
      dxy     :     0.004663
      f0      :     0.000693  f :     0.003414
      f+1     :     0.000644
      f-1     :     0.000640
      f+2     :     0.000485
      f-2     :     0.000485
      f+3     :     0.000234
      f-3     :     0.000234
      g0      :     0.000069  g :     0.000445
      g+1     :     0.000067
      g-1     :     0.000066
      g+2     :     0.000057
      g-2     :     0.000057
      g+3     :     0.000042
      g-3     :     0.000042
      g+4     :     0.000022
      g-4     :     0.000022

SPIN
  0 O s       :     0.011783  s :     0.011783
      pz      :     0.013608  p :     1.974298
      px      :     0.974218
      py      :     0.986471
      dz2     :     0.001099  d :     0.012507
      dxz     :     0.001785
      dyz     :     0.001812
      dx2y2   :     0.003905
      dxy     :     0.003905
      f0      :     0.000271  f :     0.001381
      f+1     :     0.000254
      f-1     :     0.000252
      f+2     :     0.000196
      f-2     :     0.000196
      f+3     :     0.000106
      f-3     :     0.000106
      g0      :    -0.000001  g :     0.000031
      g+1     :    -0.000000
      g-1     :    -0.000000
      g+2     :     0.000002
      g-2     :     0.000002
      g+3     :     0.000005
      g-3     :     0.000005
      g+4     :     0.000010
      g-4     :     0.000010


                      *****************************
                      * MAYER POPULATION ANALYSIS *
                      *****************************

  NA   - Mulliken gross atomic population
  ZA   - Total nuclear charge
  QA   - Mulliken gross atomic charge
  VA   - Mayer's total valence
  BVA  - Mayer's bonded valence
  FA   - Mayer's free valence

  ATOM       NA         ZA         QA         VA         BVA        FA
  0 O      8.0000     8.0000     0.0000     2.2504     0.0000     2.2504





------------------------------------------------------------------------------- 
                                     TIMINGS                                   
------------------------------------------------------------------------------- 


Total execution time                   ...        9.368 sec

Fock Matrix Formation                  ...        0.130 sec (  1.4%)
Initial Guess                          ...        0.003 sec (  0.0%)
DIIS Solver                            ...        0.039 sec (  0.4%)
State Vector Update                    ...        0.002 sec (  0.0%)
Sigma-vector construction              ...        2.448 sec ( 26.1%)
  <D|H|D>(2-ext)                       ...        0.006 sec (  0.3% of sigma)
  <D|H|D>(4-ext)                       ...        1.519 sec ( 62.1% of sigma)
  <S|H|0>                              ...        0.025 sec (  1.0% of sigma)
  <D|H|S>(1-ext)                       ...        0.006 sec (  0.2% of sigma)
  Fock-dressing                        ...        0.586 sec ( 23.9% of sigma)
  (ik|jl)-dressing                     ...        0.001 sec (  0.0% of sigma)
  (ij|ab),(ia|jb)-dressing             ...        0.208 sec (  8.5% of sigma)
Total Time for computing (T)           ...        0.193 sec (  2.1% of ALL)
  I/O of integral and amplitudes       ...        0.069 sec ( 35.9% of (T))
  External N**7 contributions          ...        0.042 sec ( 21.6% of (T))
  Internal N**7 contributions          ...        0.013 sec (  6.5% of (T))
  N**6 triples energy contributions    ...        0.044 sec ( 23.0% of (T))


-------------------------   --------------------
FINAL SINGLE POINT ENERGY       -74.995267565422
-------------------------   --------------------


                            ***************************************
                            *     ORCA property calculations      *
                            ***************************************

                                    ---------------------
                                    Active property flags
                                    ---------------------
   (+) Dipole Moment


------------------------------------------------------------------------------
                       ORCA ELECTRIC PROPERTIES CALCULATION
------------------------------------------------------------------------------

Dipole Moment Calculation                       ... on
Quadrupole Moment Calculation                   ... off
Polarizability Calculation                      ... off
GBWName                                         ... 08_O.gbw
Electron density file                           ... 08_O.scfp
The origin for moment calculation is the CENTER OF MASS  = ( 0.000000,  0.000000  0.000000)

-------------
DIPOLE MOMENT
-------------
                                X             Y             Z
Electronic contribution:      0.00000      -0.00000       0.00000
Nuclear contribution   :      0.00000       0.00000       0.00000
                        -----------------------------------------
Total Dipole Moment    :      0.00000      -0.00000       0.00000
                        -----------------------------------------
Magnitude (a.u.)       :      0.00000
Magnitude (Debye)      :      0.00000



--------------------
Rotational spectrum 
--------------------
 
Rotational constants in cm-1:     0.000000     0.000000     0.000000 
Rotational constants in MHz :     0.000000     0.000000     0.000000 

 Dipole components along the rotational axes: 
x,y,z [a.u.] :     0.000000    -0.000000     0.000000 
x,y,z [Debye]:     0.000000    -0.000000     0.000000 

 

                           *** MDCI DENSITY ***

------------------------------------------------------------------------------
                       ORCA ELECTRIC PROPERTIES CALCULATION
------------------------------------------------------------------------------

Dipole Moment Calculation                       ... on
Quadrupole Moment Calculation                   ... off
Polarizability Calculation                      ... off
GBWName                                         ... 08_O.gbw
Electron density file                           ... 08_O.mdcip
The origin for moment calculation is the CENTER OF MASS  = ( 0.000000,  0.000000  0.000000)

-------------
DIPOLE MOMENT
-------------
                                X             Y             Z
Electronic contribution:      0.00000       0.00000       0.00000
Nuclear contribution   :      0.00000       0.00000       0.00000
                        -----------------------------------------
Total Dipole Moment    :      0.00000       0.00000       0.00000
                        -----------------------------------------
Magnitude (a.u.)       :      0.00000
Magnitude (Debye)      :      0.00000



--------------------
Rotational spectrum 
--------------------
 
Rotational constants in cm-1:     0.000000     0.000000     0.000000 
Rotational constants in MHz :     0.000000     0.000000     0.000000 

 Dipole components along the rotational axes: 
x,y,z [a.u.] :     0.000000     0.000000     0.000000 
x,y,z [Debye]:     0.000000     0.000000     0.000000 

 

Timings for individual modules:

Sum of individual times         ...       13.563 sec (=   0.226 min)
GTO integral calculation        ...        0.645 sec (=   0.011 min)   4.8 %
SCF iterations                  ...        2.982 sec (=   0.050 min)  22.0 %
MDCI module                     ...        9.936 sec (=   0.166 min)  73.3 %
                             ****ORCA TERMINATED NORMALLY****
TOTAL RUN TIME: 0 days 0 hours 0 minutes 14 seconds 238 msec
