
                                 *****************
                                 * O   R   C   A *
                                 *****************

           --- An Ab Initio, DFT and Semiempirical electronic structure package ---

                  #######################################################
                  #                        -***-                        #
                  #          Department of theory and spectroscopy      #
                  #               Directorship: Frank Neese             #
                  #        Max Planck Institute fuer Kohlenforschung    #
                  #                Kaiser Wilhelm Platz 1               #
                  #                 D-45470 Muelheim/Ruhr               #
                  #                      Germany                        #
                  #                                                     #
                  #                  All rights reserved                #
                  #                        -***-                        #
                  #######################################################


                         Program Version 4.2.0 -  RELEASE  -


 With contributions from (in alphabetic order):
   Daniel Aravena         : Magnetic Suceptibility
   Michael Atanasov       : Ab Initio Ligand Field Theory (pilot matlab implementation)
   Alexander A. Auer      : GIAO ZORA, VPT2
   Ute Becker             : Parallelization
   Giovanni Bistoni       : ED, misc. LED, open-shell LED, HFLED
   Martin Brehm           : Molecular dynamics
   Dmytro Bykov           : SCF Hessian
   Vijay G. Chilkuri      : MRCI spin determinant printing, contributions to CSF-ICE
   Dipayan Datta          : RHF DLPNO-CCSD density
   Achintya Kumar Dutta   : EOM-CC, STEOM-CC
   Dmitry Ganyushin       : Spin-Orbit,Spin-Spin,Magnetic field MRCI
   Miquel Garcia          : C-PCM Hessian, Gaussian charge scheme
   Yang Guo               : DLPNO-NEVPT2, CIM, IAO-localization
   Andreas Hansen         : Spin unrestricted coupled pair/coupled cluster methods
   Benjamin Helmich-Paris : CASSCF linear response (MC-RPA)
   Lee Huntington         : MR-EOM, pCC
   Robert Izsak           : Overlap fitted RIJCOSX, COSX-SCS-MP3, EOM
   Christian Kollmar      : KDIIS, OOCD, Brueckner-CCSD(T), CCSD density
   Simone Kossmann        : Meta GGA functionals, TD-DFT gradient, OOMP2, MP2 Hessian
   Martin Krupicka        : AUTO-CI
   Lucas Lang             : DCDCAS
   Dagmar Lenk            : GEPOL surface, SMD
   Dimitrios Liakos       : Extrapolation schemes; Compound Job, initial MDCI parallelization
   Dimitrios Manganas     : Further ROCIS development; embedding schemes
   Dimitrios Pantazis     : SARC Basis sets
   Taras Petrenko         : DFT Hessian,TD-DFT gradient, ASA, ECA, R-Raman, ABS, FL, XAS/XES, NRVS
   Peter Pinski           : DLPNO-MP2, DLPNO-MP2 Gradient
   Christoph Reimann      : Effective Core Potentials
   Marius Retegan         : Local ZFS, SOC
   Christoph Riplinger    : Optimizer, TS searches, QM/MM, DLPNO-CCSD(T), (RO)-DLPNO pert. Triples
   Tobias Risthaus        : Range-separated hybrids, TD-DFT gradient, RPA, STAB
   Michael Roemelt        : Original ROCIS implementation
   Masaaki Saitow         : Open-shell DLPNO-CCSD energy and density
   Barbara Sandhoefer     : DKH picture change effects
   Avijit Sen             : IP-ROCIS
   Kantharuban Sivalingam : CASSCF convergence, NEVPT2, FIC-MRCI
   Bernardo de Souza      : ESD, SOC TD-DFT
   Georgi Stoychev        : AutoAux, RI-MP2 NMR
   Willem Van den Heuvel  : Paramagnetic NMR
   Boris Wezisla          : Elementary symmetry handling
   Frank Wennmohs         : Technical directorship


 We gratefully acknowledge several colleagues who have allowed us to
 interface, adapt or use parts of their codes:
   Stefan Grimme, W. Hujo, H. Kruse,             : VdW corrections, initial TS optimization,
                  C. Bannwarth                     DFT functionals, gCP, sTDA/sTD-DF
   Ed Valeev, F. Pavosevic, A. Kumar             : LibInt (2-el integral package), F12 methods
   Garnet Chan, S. Sharma, J. Yang, R. Olivares  : DMRG
   Ulf Ekstrom                                   : XCFun DFT Library
   Mihaly Kallay                                 : mrcc  (arbitrary order and MRCC methods)
   Andreas Klamt, Michael Diedenhofen            : otool_cosmo (COSMO solvation model)
   Jiri Pittner, Ondrej Demel                    : Mk-CCSD
   Frank Weinhold                                : gennbo (NPA and NBO analysis)
   Christopher J. Cramer and Donald G. Truhlar   : smd solvation model
   Lars Goerigk                                  : TD-DFT with DH, B97 family of functionals
   V. Asgeirsson, H. Jonsson                     : NEB implementation
   FAccTs GmbH                                   : IRC, NEB, NEB-TS, Multilevel, MM, QM/MM, CI optimization
   S Lehtola, MJT Oliveira, MAL Marques          : LibXC Library


 Your calculation uses the libint2 library for the computation of 2-el integrals
 For citations please refer to: http://libint.valeyev.net

 Your ORCA version has been built with support for libXC version: 4.2.3
 For citations please refer to: https://tddft.org/programs/libxc/

 This ORCA versions uses:
   CBLAS   interface :  Fast vector & matrix operations
   LAPACKE interface :  Fast linear algebra routines
   SCALAPACK package :  Parallel linear algebra routines


----- Orbital basis set information -----
Your calculation utilizes the basis: aug-cc-pV(Q+d)Z 
             Al - Ar: T.H. Dunning, Jr., K. A. Peterson and A. K. Wilson, J. Chem. Phys.
                      114, 9244 (2001)

================================================================================
                                        WARNINGS
                       Please study these warnings very carefully!
================================================================================


WARNING: your system is open-shell and RHF/RKS was chosen
  ===> : WILL SWITCH to UHF/UKS


WARNING: MDCI localization with Augmented Hessian Foster-Boys
  ===> : Switching off randomization!

WARNING: Post HF methods need fully converged wavefunctions
  ===> : Setting SCFConvForced true
         You can overwrite this default with %scf ConvForced false 


INFO   : the flag for use of LIBINT has been found!

================================================================================
                                       INPUT FILE
================================================================================
NAME = 13_Al.in
|  1> #
|  2> # 13_Al CCSD(T)/aug-cc-pvq(+d)z
|  3> #
|  4> ! CCSD(T) aug-cc-pvq(+d)z tightscf
|  5> 
|  6> *xyz 0 2
|  7>  Al 0.0 0.0 0.0
|  8> *
|  9> 
| 10> %maxcore 5000 
| 11> 
| 12> %pal
| 13> nprocs 3
| 14> end
| 15> 
| 16> 
| 17>                          ****END OF INPUT****
================================================================================

                       ****************************
                       * Single Point Calculation *
                       ****************************

---------------------------------
CARTESIAN COORDINATES (ANGSTROEM)
---------------------------------
  Al     0.000000    0.000000    0.000000

----------------------------
CARTESIAN COORDINATES (A.U.)
----------------------------
  NO LB      ZA    FRAG     MASS         X           Y           Z
   0 Al   13.0000    0    26.982    0.000000    0.000000    0.000000

--------------------------------
INTERNAL COORDINATES (ANGSTROEM)
--------------------------------
 Al     0   0   0     0.000000000000     0.00000000     0.00000000

---------------------------
INTERNAL COORDINATES (A.U.)
---------------------------
 Al     0   0   0     0.000000000000     0.00000000     0.00000000

---------------------
BASIS SET INFORMATION
---------------------
There are 1 groups of distinct atoms

 Group   1 Type Al  : 43s20p5d3f2g contracted to 7s6p5d3f2g pattern {1313131111/881111/11111/111/11}

Atom   0Al   basis set group =>   1


           ************************************************************
           *        Program running with 3 parallel MPI-processes     *
           *              working on a common directory               *
           ************************************************************
------------------------------------------------------------------------------
                           ORCA GTO INTEGRAL CALCULATION
------------------------------------------------------------------------------

                         BASIS SET STATISTICS AND STARTUP INFO

 # of primitive gaussian shells          ...   73
 # of primitive gaussian functions       ...  167
 # of contracted shells                  ...   23
 # of contracted basis functions         ...   89
 Highest angular momentum                ...    4
 Maximum contraction depth               ...   13
 Integral package used                   ... LIBINT
 Integral threshhold            Thresh   ...  2.500e-11
 Primitive cut-off              TCut     ...  2.500e-12


------------------------------ INTEGRAL EVALUATION ----------------------------


 * One electron integrals 
 Pre-screening matrix                    ... done
 Shell pair data                         ... done (   0.000 sec)



           ************************************************************
           *        Program running with 3 parallel MPI-processes     *
           *              working on a common directory               *
           ************************************************************
-------------------------------------------------------------------------------
                                 ORCA SCF
-------------------------------------------------------------------------------

------------
SCF SETTINGS
------------
Hamiltonian:
 Ab initio Hamiltonian  Method          .... Hartree-Fock(GTOs)


General Settings:
 Integral files         IntName         .... 13_Al
 Hartree-Fock type      HFTyp           .... UHF
 Total Charge           Charge          ....    0
 Multiplicity           Mult            ....    2
 Number of Electrons    NEL             ....   13
 Basis Dimension        Dim             ....   89
 Nuclear Repulsion      ENuc            ....      0.0000000000 Eh

Convergence Acceleration:
 DIIS                   CNVDIIS         .... on
   Start iteration      DIISMaxIt       ....    12
   Startup error        DIISStart       ....  0.200000
   # of expansion vecs  DIISMaxEq       ....     5
   Bias factor          DIISBfac        ....   1.050
   Max. coefficient     DIISMaxC        ....  10.000
 Newton-Raphson         CNVNR           .... off
 SOSCF                  CNVSOSCF        .... off
 Level Shifting         CNVShift        .... on
   Level shift para.    LevelShift      ....    0.2500
   Turn off err/grad.   ShiftErr        ....    0.0010
 Zerner damping         CNVZerner       .... off
 Static damping         CNVDamp         .... on
   Fraction old density DampFac         ....    0.7000
   Max. Damping (<1)    DampMax         ....    0.9800
   Min. Damping (>=0)   DampMin         ....    0.0000
   Turn off err/grad.   DampErr         ....    0.1000
 Fernandez-Rico         CNVRico         .... off

SCF Procedure:
 Maximum # iterations   MaxIter         ....   125
 SCF integral mode      SCFMode         .... Direct
   Integral package                     .... LIBINT
 Reset frequency        DirectResetFreq ....    20
 Integral Threshold     Thresh          ....  2.500e-11 Eh
 Primitive CutOff       TCut            ....  2.500e-12 Eh

Convergence Tolerance:
 Convergence Check Mode ConvCheckMode   .... Total+1el-Energy
 Convergence forced     ConvForced      .... 1
 Energy Change          TolE            ....  1.000e-08 Eh
 1-El. energy change                    ....  1.000e-05 Eh
 DIIS Error             TolErr          ....  5.000e-07


Diagonalization of the overlap matrix:
Smallest eigenvalue                        ... 1.319e-04
Time for diagonalization                   ...    0.003 sec
Threshold for overlap eigenvalues          ... 1.000e-08
Number of eigenvalues below threshold      ... 0
Time for construction of square roots      ...    0.004 sec
Total time needed                          ...    0.007 sec

-------------------
DFT GRID GENERATION
-------------------

General Integration Accuracy     IntAcc      ...  4.340
Radial Grid Type                 RadialGrid  ... Gauss-Chebyshev
Angular Grid (max. acc.)         AngularGrid ... Lebedev-110
Angular grid pruning method      GridPruning ... 3 (G Style)
Weight generation scheme         WeightScheme... Becke
Basis function cutoff            BFCut       ...    1.0000e-11
Integration weight cutoff        WCut        ...    1.0000e-14
Grids for H and He will be reduced by one unit

# of grid points (after initial pruning)     ...   1866 (   0.0 sec)
# of grid points (after weights+screening)   ...   1866 (   0.0 sec)
Grid point division into batches done        ...    0.0 sec
Reduced shell lists constructed in    0.0 sec

Total number of grid points                  ...     1866
Total number of batches                      ...       30
Average number of points per batch           ...       62
Average number of grid points per atom       ...     1866
Average number of shells per batch           ...    17.64 (76.68%)
Average number of basis functions per batch  ...    73.27 (82.33%)
Average number of large shells per batch     ...    16.55 (93.81%)
Average number of large basis fcns per batch ...    69.27 (94.54%)
Maximum spatial batch extension              ...  21.07, 38.78, 38.78 au
Average spatial batch extension              ...   5.73,  7.22,  8.87 au

Time for grid setup =    0.023 sec

------------------------------
INITIAL GUESS: MODEL POTENTIAL
------------------------------
Loading Hartree-Fock densities                     ... done
Calculating cut-offs                               ... done
Setting up the integral package                    ... done
Initializing the effective Hamiltonian             ... done
Starting the Coulomb interaction                   ... done (   0.0 sec)
Reading the grid                                   ... done
Mapping shells                                     ... done
Starting the XC term evaluation                    ... done (   0.0 sec)
Transforming the Hamiltonian                       ... done (   0.0 sec)
Diagonalizing the Hamiltonian                      ... done (   0.0 sec)
Back transforming the eigenvectors                 ... done (   0.0 sec)
Now organizing SCF variables                       ... done
                      ------------------
                      INITIAL GUESS DONE (   0.1 sec)
                      ------------------
--------------
SCF ITERATIONS
--------------
ITER       Energy         Delta-E        Max-DP      RMS-DP      [F,P]     Damp
               ***  Starting incremental Fock matrix formation  ***
  0   -241.8625453177   0.000000000000 0.31241638  0.00716812  0.0870744 0.7000
  1   -241.8671541678  -0.004608850092 0.23085855  0.00527988  0.0617045 0.7000
                               ***Turning on DIIS***
  2   -241.8706354691  -0.003481301327 0.55630866  0.01269435  0.0429124 0.0000
  3   -241.8776258060  -0.006990336896 0.04131475  0.00090141  0.0055405 0.0000
  4   -241.8869406852  -0.009314879202 0.00335607  0.00010668  0.0019727 0.0000
  5   -241.8843533195   0.002587365671 0.00315440  0.00008666  0.0007747 0.0000
  6   -241.8799796041   0.004373715417 0.00130117  0.00003037  0.0002686 0.0000
  7   -241.8801039015  -0.000124297360 0.00029137  0.00000772  0.0000714 0.0000
  8   -241.8803294734  -0.000225571979 0.00015583  0.00000352  0.0000204 0.0000
  9   -241.8804278246  -0.000098351187 0.00006813  0.00000117  0.0000061 0.0000
                            ***DIIS convergence achieved***

               *****************************************************
               *                     SUCCESS                       *
               *           SCF CONVERGED AFTER  10 CYCLES          *
               *****************************************************


----------------
TOTAL SCF ENERGY
----------------

Total Energy       :         -241.88044459 Eh           -6581.90151 eV

Components:
Nuclear Repulsion  :            0.00000000 Eh               0.00000 eV
Electronic Energy  :         -241.88044459 Eh           -6581.90151 eV
One Electron Energy:         -336.63489403 Eh           -9160.30117 eV
Two Electron Energy:           94.75444944 Eh            2578.39965 eV

Virial components:
Potential Energy   :         -483.75931193 Eh          -13163.76011 eV
Kinetic Energy     :          241.87886734 Eh            6581.85860 eV
Virial Ratio       :            2.00000652


---------------
SCF CONVERGENCE
---------------

  Last Energy change         ...   -1.6766e-05  Tolerance :   1.0000e-08
  Last MAX-Density change    ...    9.9379e-06  Tolerance :   1.0000e-07
  Last RMS-Density change    ...    1.6407e-07  Tolerance :   5.0000e-09
  Last DIIS Error            ...    8.4700e-07  Tolerance :   5.0000e-07

             **** THE GBW FILE WAS UPDATED (13_Al.gbw) ****
             **** DENSITY FILE WAS UPDATED (13_Al.scfp) ****
             **** ENERGY FILE WAS UPDATED (13_Al.en.tmp) ****
----------------------
UHF SPIN CONTAMINATION
----------------------

Expectation value of <S**2>     :     0.770600
Ideal value S*(S+1) for S=0.5   :     0.750000
Deviation                       :     0.020600

             **** THE GBW FILE WAS UPDATED (13_Al.gbw) ****
             **** DENSITY FILE WAS UPDATED (13_Al.scfp) ****
----------------
ORBITAL ENERGIES
----------------
                 SPIN UP ORBITALS
  NO   OCC          E(Eh)            E(eV) 
   0   1.0000     -58.500845     -1591.8889 
   1   1.0000      -4.910768      -133.6288 
   2   1.0000      -3.224094       -87.7321 
   3   1.0000      -3.218093       -87.5688 
   4   1.0000      -3.218093       -87.5688 
   5   1.0000      -0.425554       -11.5799 
   6   1.0000      -0.218434        -5.9439 
   7   0.0000       0.009418         0.2563 
   8   0.0000       0.009418         0.2563 
   9   0.0000       0.035340         0.9617 
  10   0.0000       0.036300         0.9878 
  11   0.0000       0.047833         1.3016 
  12   0.0000       0.047833         1.3016 
  13   0.0000       0.081487         2.2174 
  14   0.0000       0.081487         2.2174 
  15   0.0000       0.082491         2.2447 
  16   0.0000       0.082491         2.2447 
  17   0.0000       0.083145         2.2625 
  18   0.0000       0.197711         5.3800 
  19   0.0000       0.216474         5.8906 
  20   0.0000       0.216474         5.8906 
  21   0.0000       0.221634         6.0310 
  22   0.0000       0.232064         6.3148 
  23   0.0000       0.232064         6.3148 
  24   0.0000       0.236468         6.4346 
  25   0.0000       0.236468         6.4346 
  26   0.0000       0.239922         6.5286 
  27   0.0000       0.239922         6.5286 
  28   0.0000       0.240576         6.5464 
  29   0.0000       0.242985         6.6120 
  30   0.0000       0.244824         6.6620 
  31   0.0000       0.244824         6.6620 
  32   0.0000       0.254072         6.9137 
  33   0.0000       0.254072         6.9137 
  34   0.0000       0.636835        17.3292 
  35   0.0000       0.637068        17.3355 
  36   0.0000       0.637068        17.3355 
  37   0.0000       0.638678        17.3793 
  38   0.0000       0.638678        17.3793 
  39   0.0000       0.693701        18.8766 
  40   0.0000       0.693701        18.8766 
  41   0.0000       0.699360        19.0305 
  42   0.0000       0.699360        19.0305 
  43   0.0000       0.702347        19.1118 
  44   0.0000       0.702347        19.1118 
  45   0.0000       0.703262        19.1367 
  46   0.0000       0.747293        20.3349 
  47   0.0000       0.747293        20.3349 
  48   0.0000       0.755059        20.5462 
  49   0.0000       0.755059        20.5462 
  50   0.0000       0.760667        20.6988 
  51   0.0000       0.760667        20.6988 
  52   0.0000       0.764055        20.7910 
  53   0.0000       0.764055        20.7910 
  54   0.0000       0.765187        20.8218 
  55   0.0000       0.819044        22.2873 
  56   0.0000       0.825086        22.4517 
  57   0.0000       0.825086        22.4517 
  58   0.0000       0.870630        23.6910 
  59   0.0000       1.490502        40.5586 
  60   0.0000       1.490502        40.5586 
  61   0.0000       1.501995        40.8714 
  62   0.0000       1.501995        40.8714 
  63   0.0000       1.505942        40.9788 
  64   0.0000       1.799931        48.9786 
  65   0.0000       1.799931        48.9786 
  66   0.0000       1.809585        49.2413 
  67   0.0000       1.809585        49.2413 
  68   0.0000       1.815413        49.3999 
  69   0.0000       1.815413        49.3999 
  70   0.0000       1.817358        49.4528 
  71   0.0000       2.038427        55.4684 
  72   0.0000       2.038427        55.4684 
  73   0.0000       2.049104        55.7589 
  74   0.0000       2.049104        55.7589 
  75   0.0000       2.056830        55.9692 
  76   0.0000       2.056830        55.9692 
  77   0.0000       2.061502        56.0963 
  78   0.0000       2.061502        56.0963 
  79   0.0000       2.063065        56.1389 
  80   0.0000       4.696574       127.8003 
  81   0.0000       4.696574       127.8003 
  82   0.0000       4.705796       128.0512 
  83   0.0000       4.705796       128.0512 
  84   0.0000       4.708875       128.1350 
  85   0.0000       6.119095       166.5090 
  86   0.0000       7.896462       214.8737 
  87   0.0000       7.896462       214.8737 
  88   0.0000       7.912074       215.2985 

                 SPIN DOWN ORBITALS
  NO   OCC          E(Eh)            E(eV) 
   0   1.0000     -58.498277     -1591.8190 
   1   1.0000      -4.907477      -133.5392 
   2   1.0000      -3.216782       -87.5331 
   3   1.0000      -3.216782       -87.5331 
   4   1.0000      -3.207336       -87.2760 
   5   1.0000      -0.363471        -9.8905 
   6   0.0000       0.013211         0.3595 
   7   0.0000       0.013211         0.3595 
   8   0.0000       0.026279         0.7151 
   9   0.0000       0.039144         1.0652 
  10   0.0000       0.051041         1.3889 
  11   0.0000       0.051041         1.3889 
  12   0.0000       0.076920         2.0931 
  13   0.0000       0.081898         2.2286 
  14   0.0000       0.081898         2.2286 
  15   0.0000       0.087909         2.3921 
  16   0.0000       0.087909         2.3921 
  17   0.0000       0.090448         2.4612 
  18   0.0000       0.219772         5.9803 
  19   0.0000       0.219772         5.9803 
  20   0.0000       0.230531         6.2731 
  21   0.0000       0.232422         6.3245 
  22   0.0000       0.232422         6.3245 
  23   0.0000       0.240327         6.5396 
  24   0.0000       0.240327         6.5396 
  25   0.0000       0.244669         6.6578 
  26   0.0000       0.245778         6.6880 
  27   0.0000       0.245778         6.6880 
  28   0.0000       0.250541         6.8176 
  29   0.0000       0.255414         6.9502 
  30   0.0000       0.255414         6.9502 
  31   0.0000       0.274881         7.4799 
  32   0.0000       0.274881         7.4799 
  33   0.0000       0.283707         7.7201 
  34   0.0000       0.639141        17.3919 
  35   0.0000       0.639141        17.3919 
  36   0.0000       0.665182        18.1005 
  37   0.0000       0.665182        18.1005 
  38   0.0000       0.675322        18.3764 
  39   0.0000       0.694037        18.8857 
  40   0.0000       0.694037        18.8857 
  41   0.0000       0.713066        19.4035 
  42   0.0000       0.713066        19.4035 
  43   0.0000       0.724802        19.7229 
  44   0.0000       0.724802        19.7229 
  45   0.0000       0.728995        19.8370 
  46   0.0000       0.747438        20.3388 
  47   0.0000       0.747438        20.3388 
  48   0.0000       0.760582        20.6965 
  49   0.0000       0.760582        20.6965 
  50   0.0000       0.770369        20.9628 
  51   0.0000       0.770369        20.9628 
  52   0.0000       0.776443        21.1281 
  53   0.0000       0.776443        21.1281 
  54   0.0000       0.778510        21.1843 
  55   0.0000       0.828012        22.5314 
  56   0.0000       0.828012        22.5314 
  57   0.0000       0.860290        23.4097 
  58   0.0000       0.881026        23.9739 
  59   0.0000       1.490684        40.5636 
  60   0.0000       1.490684        40.5636 
  61   0.0000       1.513616        41.1876 
  62   0.0000       1.513616        41.1876 
  63   0.0000       1.522319        41.4244 
  64   0.0000       1.799197        48.9586 
  65   0.0000       1.799197        48.9586 
  66   0.0000       1.820902        49.5493 
  67   0.0000       1.820902        49.5493 
  68   0.0000       1.834456        49.9181 
  69   0.0000       1.834456        49.9181 
  70   0.0000       1.839087        50.0441 
  71   0.0000       2.037641        55.4470 
  72   0.0000       2.037641        55.4470 
  73   0.0000       2.056250        55.9534 
  74   0.0000       2.056250        55.9534 
  75   0.0000       2.069921        56.3254 
  76   0.0000       2.069921        56.3254 
  77   0.0000       2.078288        56.5531 
  78   0.0000       2.078288        56.5531 
  79   0.0000       2.081106        56.6298 
  80   0.0000       4.696788       127.8061 
  81   0.0000       4.696788       127.8061 
  82   0.0000       4.709997       128.1655 
  83   0.0000       4.709997       128.1655 
  84   0.0000       4.714414       128.2857 
  85   0.0000       6.123682       166.6339 
  86   0.0000       7.898147       214.9195 
  87   0.0000       7.898147       214.9195 
  88   0.0000       7.925447       215.6624 

                    ********************************
                    * MULLIKEN POPULATION ANALYSIS *
                    ********************************

--------------------------------------------
MULLIKEN ATOMIC CHARGES AND SPIN POPULATIONS
--------------------------------------------
   0 Al:    0.000000    1.000000
Sum of atomic charges         :    0.0000000
Sum of atomic spin populations:    1.0000000

-----------------------------------------------------
MULLIKEN REDUCED ORBITAL CHARGES AND SPIN POPULATIONS
-----------------------------------------------------
CHARGE
  0 Als       :     5.989544  s :     5.989544
      pz      :     2.559484  p :     6.999927
      px      :     2.000028
      py      :     2.440414
      dz2     :     0.001204  d :     0.010455
      dxz     :     0.000001
      dyz     :     0.007730
      dx2y2   :     0.001521
      dxy     :     0.000000
      f0      :     0.000001  f :     0.000073
      f+1     :     0.000000
      f-1     :     0.000039
      f+2     :     0.000029
      f-2     :     0.000000
      f+3     :     0.000000
      f-3     :     0.000004
      g0      :     0.000000  g :     0.000002
      g+1     :     0.000000
      g-1     :     0.000000
      g+2     :     0.000001
      g-2     :     0.000000
      g+3     :     0.000000
      g-3     :     0.000000
      g+4     :     0.000000
      g-4     :     0.000000

SPIN
  0 Als       :    -0.002097  s :    -0.002097
      pz      :     0.559485  p :     0.999930
      px      :     0.000030
      py      :     0.440416
      dz2     :     0.000242  d :     0.002098
      dxz     :     0.000000
      dyz     :     0.001551
      dx2y2   :     0.000305
      dxy     :     0.000000
      f0      :     0.000000  f :     0.000070
      f+1     :    -0.000000
      f-1     :     0.000038
      f+2     :     0.000029
      f-2     :    -0.000000
      f+3     :    -0.000000
      f-3     :     0.000004
      g0      :    -0.000000  g :    -0.000002
      g+1     :    -0.000000
      g-1     :    -0.000000
      g+2     :    -0.000001
      g-2     :    -0.000000
      g+3     :    -0.000000
      g-3     :    -0.000000
      g+4     :    -0.000000
      g-4     :    -0.000000


                     *******************************
                     * LOEWDIN POPULATION ANALYSIS *
                     *******************************

-------------------------------------------
LOEWDIN ATOMIC CHARGES AND SPIN POPULATIONS
-------------------------------------------
   0 Al:    0.000000    1.000000

----------------------------------------------------
LOEWDIN REDUCED ORBITAL CHARGES AND SPIN POPULATIONS
----------------------------------------------------
CHARGE
  0 Als       :     5.989544  s :     5.989544
      pz      :     2.559484  p :     6.999927
      px      :     2.000028
      py      :     2.440414
      dz2     :     0.001204  d :     0.010455
      dxz     :     0.000001
      dyz     :     0.007730
      dx2y2   :     0.001521
      dxy     :     0.000000
      f0      :     0.000001  f :     0.000073
      f+1     :     0.000000
      f-1     :     0.000039
      f+2     :     0.000029
      f-2     :     0.000000
      f+3     :     0.000000
      f-3     :     0.000004
      g0      :     0.000000  g :     0.000002
      g+1     :     0.000000
      g-1     :     0.000000
      g+2     :     0.000001
      g-2     :     0.000000
      g+3     :     0.000000
      g-3     :     0.000000
      g+4     :     0.000000
      g-4     :     0.000000

SPIN
  0 Als       :    -0.002097  s :    -0.002097
      pz      :     0.559485  p :     0.999930
      px      :     0.000030
      py      :     0.440416
      dz2     :     0.000242  d :     0.002098
      dxz     :     0.000000
      dyz     :     0.001551
      dx2y2   :     0.000305
      dxy     :     0.000000
      f0      :     0.000000  f :     0.000070
      f+1     :    -0.000000
      f-1     :     0.000038
      f+2     :     0.000029
      f-2     :    -0.000000
      f+3     :    -0.000000
      f-3     :     0.000004
      g0      :    -0.000000  g :    -0.000002
      g+1     :    -0.000000
      g-1     :    -0.000000
      g+2     :    -0.000001
      g-2     :    -0.000000
      g+3     :    -0.000000
      g-3     :    -0.000000
      g+4     :    -0.000000
      g-4     :    -0.000000


                      *****************************
                      * MAYER POPULATION ANALYSIS *
                      *****************************

  NA   - Mulliken gross atomic population
  ZA   - Total nuclear charge
  QA   - Mulliken gross atomic charge
  VA   - Mayer's total valence
  BVA  - Mayer's bonded valence
  FA   - Mayer's free valence

  ATOM       NA         ZA         QA         VA         BVA        FA
  0 Al    13.0000    13.0000     0.0000     1.0412     0.0000     1.0412

  Mayer bond orders larger than 0.100000


-------
TIMINGS
-------

Total SCF time: 0 days 0 hours 0 min 11 sec 

Total time                  ....      11.179 sec
Sum of individual times     ....      10.833 sec  ( 96.9%)

Fock matrix formation       ....       5.524 sec  ( 49.4%)
Diagonalization             ....       0.036 sec  (  0.3%)
Density matrix formation    ....       0.003 sec  (  0.0%)
Population analysis         ....       5.023 sec  ( 44.9%)
Initial guess               ....       0.086 sec  (  0.8%)
Orbital Transformation      ....       0.000 sec  (  0.0%)
Orbital Orthonormalization  ....       0.000 sec  (  0.0%)
DIIS solution               ....       0.138 sec  (  1.2%)


           ************************************************************
           *        Program running with 3 parallel MPI-processes     *
           *              working on a common directory               *
           ************************************************************


------------------------------------------------------------------------------- 
                              ORCA-MATRIX DRIVEN CI                            
------------------------------------------------------------------------------- 

--------------------------------
AUTOMATIC CHOICE OF INCORE LEVEL
--------------------------------

Memory available                           ...   2500.00 MB
Memory needed for S+T                      ...      0.46 MB
Memory needed for J+K                      ...      0.93 MB
Memory needed for DIIS                     ...      6.46 MB
Memory needed for 3-ext                    ...      8.41 MB
Memory needed for 4-ext                    ...    174.57 MB
Memory needed for triples                  ...     21.03 MB
 -> Final InCoreLevel    ... 5
 -> check shows that triples correction can be computed


Wavefunction type
-----------------
Correlation treatment                      ...      CCSD     
Single excitations                         ... ON
Orbital optimization                       ... OFF
Calculation of Z vector                    ... OFF
Calculation of Brueckner orbitals          ... OFF
Perturbative triple excitations            ... ON
Calculation of F12 correction              ... OFF
Frozen core treatment                      ... chemical core (10 el)
Reference Wavefunction                     ... UHF
  Alpha-MOs occ    :     5 ...    6 (  2 MO's/  2 electrons)
  Beta-MOs occ     :     5 ...    5 (  1 MO's/  1 electrons)
  Alpha-MOs virt   :     7 ...   88 ( 82 MO's              )
  Beta-MOs virt    :     6 ...   88 ( 83 MO's              )
Number of AO's                             ...     89
Number of electrons                        ...     13
Number of correlated electrons             ...      3

Algorithmic settings
--------------------
Integral transformation                    ... AO direct full transformation
K(C) Formation                             ... FULL-MO TRAFO
Maximum number of iterations               ...        50
Convergence tolerance (max. residuum)      ... 1.000e-05
Level shift for amplitude update           ... 2.000e-01
Maximum number of DIIS vectors             ...         7
DIIS turned on at iteration                ...         0
Damping before turning on DIIS             ...     0.500
Damping after turning on DIIS              ...     0.000
Pair specific amplitude update             ... OFF
Natural orbital iterations                 ... OFF
Perturbative natural orbital generation    ... OFF
Printlevel                                 ... 2

Memory handling:
----------------
Maximum memory for working arrays          ...   2500 MB
Data storage in matrix containers          ... UNCOMPRESSED
Data type for integral storage             ... DOUBLE
In-Core Storage of quantities:
   Amplitudes+Sigma Vector      ... YES
   J+K operators                ... YES
   DIIS vectors                 ... YES
   3-external integrals         ... YES
   4-external integrals         ... YES


Initializing the integral package          ... done
Warning: reference  - re-canonicalizations have been set to INT 1 VIRT 1

--------------------------
UNRESTRICTED FOCK OPERATOR
--------------------------

<ss|ss>:          406 b            0 skpd (  0.0%)    0.008 s ( 0.020 ms/b)
<ss|sp>:         1176 b            0 skpd (  0.0%)    0.039 s ( 0.033 ms/b)
<ss|sd>:          980 b            0 skpd (  0.0%)    0.008 s ( 0.008 ms/b)
<ss|sf>:          588 b            0 skpd (  0.0%)    0.006 s ( 0.010 ms/b)
<ss|sg>:          392 b            0 skpd (  0.0%)    0.005 s ( 0.013 ms/b)
<ss|pp>:          588 b            0 skpd (  0.0%)    0.012 s ( 0.021 ms/b)
<ss|pd>:          840 b            0 skpd (  0.0%)    0.004 s ( 0.005 ms/b)
<ss|pf>:          504 b            0 skpd (  0.0%)    0.005 s ( 0.010 ms/b)
<ss|pg>:          336 b            0 skpd (  0.0%)    0.006 s ( 0.017 ms/b)
<ss|dd>:          420 b            0 skpd (  0.0%)    0.001 s ( 0.003 ms/b)
<ss|df>:          420 b            0 skpd (  0.0%)    0.002 s ( 0.004 ms/b)
<ss|dg>:          280 b            0 skpd (  0.0%)    0.002 s ( 0.007 ms/b)
<ss|ff>:          168 b            0 skpd (  0.0%)    0.001 s ( 0.006 ms/b)
<ss|fg>:          168 b            0 skpd (  0.0%)    0.002 s ( 0.009 ms/b)
<ss|gg>:           84 b            0 skpd (  0.0%)    0.001 s ( 0.013 ms/b)
<sp|sp>:          903 b            0 skpd (  0.0%)    0.018 s ( 0.020 ms/b)
<sp|sd>:         1470 b            1 skpd (  0.1%)    0.009 s ( 0.006 ms/b)
<sp|sf>:          882 b            2 skpd (  0.2%)    0.008 s ( 0.009 ms/b)
<sp|sg>:          588 b            4 skpd (  0.7%)    0.007 s ( 0.012 ms/b)
<sp|pp>:          882 b            0 skpd (  0.0%)    0.011 s ( 0.013 ms/b)
<sp|pd>:         1260 b            1 skpd (  0.1%)    0.007 s ( 0.005 ms/b)
<sp|pf>:          756 b            0 skpd (  0.0%)    0.008 s ( 0.011 ms/b)
<sp|pg>:          504 b            0 skpd (  0.0%)    0.008 s ( 0.016 ms/b)
<sp|dd>:          630 b            1 skpd (  0.2%)    0.002 s ( 0.003 ms/b)
<sp|df>:          630 b            1 skpd (  0.2%)    0.003 s ( 0.005 ms/b)
<sp|dg>:          420 b            2 skpd (  0.5%)    0.004 s ( 0.009 ms/b)
<sp|ff>:          252 b            0 skpd (  0.0%)    0.002 s ( 0.008 ms/b)
<sp|fg>:          252 b            0 skpd (  0.0%)    0.003 s ( 0.011 ms/b)
<sp|gg>:          126 b            2 skpd (  1.6%)    0.002 s ( 0.016 ms/b)
<sd|sd>:          630 b            1 skpd (  0.2%)    0.003 s ( 0.004 ms/b)
<sd|sf>:          735 b            7 skpd (  1.0%)    0.004 s ( 0.005 ms/b)
<sd|sg>:          490 b            6 skpd (  1.2%)    0.004 s ( 0.007 ms/b)
<sd|pp>:          735 b            0 skpd (  0.0%)    0.006 s ( 0.008 ms/b)
<sd|pd>:         1050 b           10 skpd (  1.0%)    0.004 s ( 0.004 ms/b)
<sd|pf>:          630 b            6 skpd (  1.0%)    0.005 s ( 0.008 ms/b)
<sd|pg>:          420 b           17 skpd (  4.0%)    0.005 s ( 0.013 ms/b)
<sd|dd>:          525 b            1 skpd (  0.2%)    0.002 s ( 0.004 ms/b)
<sd|df>:          525 b            7 skpd (  1.3%)    0.003 s ( 0.006 ms/b)
<sd|dg>:          350 b            5 skpd (  1.4%)    0.003 s ( 0.010 ms/b)
<sd|ff>:          210 b            1 skpd (  0.5%)    0.002 s ( 0.009 ms/b)
<sd|fg>:          210 b            6 skpd (  2.9%)    0.003 s ( 0.013 ms/b)
<sd|gg>:          105 b            2 skpd (  1.9%)    0.002 s ( 0.018 ms/b)
<sf|sf>:          231 b           10 skpd (  4.3%)    0.002 s ( 0.011 ms/b)
<sf|sg>:          294 b           15 skpd (  5.1%)    0.004 s ( 0.014 ms/b)
<sf|pp>:          441 b            3 skpd (  0.7%)    0.007 s ( 0.016 ms/b)
<sf|pd>:          630 b           14 skpd (  2.2%)    0.005 s ( 0.008 ms/b)
<sf|pf>:          378 b           10 skpd (  2.6%)    0.006 s ( 0.016 ms/b)
<sf|pg>:          252 b            8 skpd (  3.2%)    0.007 s ( 0.030 ms/b)
<sf|dd>:          315 b            6 skpd (  1.9%)    0.002 s ( 0.006 ms/b)
<sf|df>:          315 b           21 skpd (  6.7%)    0.003 s ( 0.011 ms/b)
<sf|dg>:          210 b           16 skpd (  7.6%)    0.004 s ( 0.018 ms/b)
<sf|ff>:          126 b            5 skpd (  4.0%)    0.002 s ( 0.018 ms/b)
<sf|fg>:          126 b            8 skpd (  6.3%)    0.003 s ( 0.027 ms/b)
<sf|gg>:           63 b            6 skpd (  9.5%)    0.002 s ( 0.036 ms/b)
<sg|sg>:          105 b            5 skpd (  4.8%)    0.003 s ( 0.031 ms/b)
<sg|pp>:          294 b            1 skpd (  0.3%)    0.009 s ( 0.032 ms/b)
<sg|pd>:          420 b           38 skpd (  9.0%)    0.006 s ( 0.015 ms/b)
<sg|pf>:          252 b           10 skpd (  4.0%)    0.007 s ( 0.030 ms/b)
<sg|pg>:          168 b           26 skpd ( 15.5%)    0.007 s ( 0.049 ms/b)
<sg|dd>:          210 b            4 skpd (  1.9%)    0.002 s ( 0.010 ms/b)
<sg|df>:          210 b           18 skpd (  8.6%)    0.004 s ( 0.019 ms/b)
<sg|dg>:          140 b           14 skpd ( 10.0%)    0.005 s ( 0.036 ms/b)
<sg|ff>:           84 b            6 skpd (  7.1%)    0.003 s ( 0.033 ms/b)
<sg|fg>:           84 b           12 skpd ( 14.3%)    0.003 s ( 0.046 ms/b)
<sg|gg>:           42 b            6 skpd ( 14.3%)    0.003 s ( 0.072 ms/b)
<pp|pp>:          231 b            0 skpd (  0.0%)    0.005 s ( 0.023 ms/b)
<pp|pd>:          630 b            0 skpd (  0.0%)    0.006 s ( 0.009 ms/b)
<pp|pf>:          378 b            0 skpd (  0.0%)    0.007 s ( 0.017 ms/b)
<pp|pg>:          252 b            0 skpd (  0.0%)    0.007 s ( 0.029 ms/b)
<pp|dd>:          315 b            0 skpd (  0.0%)    0.002 s ( 0.006 ms/b)
<pp|df>:          315 b            0 skpd (  0.0%)    0.003 s ( 0.011 ms/b)
<pp|dg>:          210 b            0 skpd (  0.0%)    0.004 s ( 0.019 ms/b)
<pp|ff>:          126 b            0 skpd (  0.0%)    0.002 s ( 0.017 ms/b)
<pp|fg>:          126 b            0 skpd (  0.0%)    0.003 s ( 0.025 ms/b)
<pp|gg>:           63 b            0 skpd (  0.0%)    0.002 s ( 0.037 ms/b)
<pd|pd>:          465 b            0 skpd (  0.0%)    0.004 s ( 0.008 ms/b)
<pd|pf>:          540 b            0 skpd (  0.0%)    0.007 s ( 0.013 ms/b)
<pd|pg>:          360 b            0 skpd (  0.0%)    0.008 s ( 0.022 ms/b)
<pd|dd>:          450 b            0 skpd (  0.0%)    0.004 s ( 0.008 ms/b)
<pd|df>:          450 b            0 skpd (  0.0%)    0.006 s ( 0.012 ms/b)
<pd|dg>:          300 b            0 skpd (  0.0%)    0.006 s ( 0.021 ms/b)
<pd|ff>:          180 b            0 skpd (  0.0%)    0.003 s ( 0.018 ms/b)
<pd|fg>:          180 b            0 skpd (  0.0%)    0.005 s ( 0.027 ms/b)
<pd|gg>:           90 b            0 skpd (  0.0%)    0.003 s ( 0.038 ms/b)
<pf|pf>:          171 b            0 skpd (  0.0%)    0.004 s ( 0.023 ms/b)
<pf|pg>:          216 b            0 skpd (  0.0%)    0.009 s ( 0.042 ms/b)
<pf|dd>:          270 b            0 skpd (  0.0%)    0.003 s ( 0.011 ms/b)
<pf|df>:          270 b            0 skpd (  0.0%)    0.005 s ( 0.020 ms/b)
<pf|dg>:          180 b            0 skpd (  0.0%)    0.006 s ( 0.033 ms/b)
<pf|ff>:          108 b            0 skpd (  0.0%)    0.004 s ( 0.033 ms/b)
<pf|fg>:          108 b            0 skpd (  0.0%)    0.005 s ( 0.049 ms/b)
<pf|gg>:           54 b            0 skpd (  0.0%)    0.004 s ( 0.067 ms/b)
<pg|pg>:           78 b            0 skpd (  0.0%)    0.006 s ( 0.080 ms/b)
<pg|dd>:          180 b            0 skpd (  0.0%)    0.003 s ( 0.018 ms/b)
<pg|df>:          180 b            0 skpd (  0.0%)    0.005 s ( 0.030 ms/b)
<pg|dg>:          120 b            4 skpd (  3.3%)    0.007 s ( 0.056 ms/b)
<pg|ff>:           72 b            0 skpd (  0.0%)    0.003 s ( 0.048 ms/b)
<pg|fg>:           72 b            0 skpd (  0.0%)    0.006 s ( 0.080 ms/b)
<pg|gg>:           36 b            0 skpd (  0.0%)    0.005 s ( 0.125 ms/b)
<dd|dd>:          120 b            0 skpd (  0.0%)    0.001 s ( 0.012 ms/b)
<dd|df>:          225 b            0 skpd (  0.0%)    0.004 s ( 0.016 ms/b)
<dd|dg>:          150 b            0 skpd (  0.0%)    0.004 s ( 0.026 ms/b)
<dd|ff>:           90 b            0 skpd (  0.0%)    0.002 s ( 0.023 ms/b)
<dd|fg>:           90 b            0 skpd (  0.0%)    0.003 s ( 0.034 ms/b)
<dd|gg>:           45 b            0 skpd (  0.0%)    0.002 s ( 0.049 ms/b)
<df|df>:          120 b            1 skpd (  0.8%)    0.003 s ( 0.029 ms/b)
<df|dg>:          150 b            1 skpd (  0.7%)    0.006 s ( 0.042 ms/b)
<df|ff>:           90 b            0 skpd (  0.0%)    0.004 s ( 0.042 ms/b)
<df|fg>:           90 b            0 skpd (  0.0%)    0.005 s ( 0.060 ms/b)
<df|gg>:           45 b            0 skpd (  0.0%)    0.004 s ( 0.086 ms/b)
<dg|dg>:           55 b            0 skpd (  0.0%)    0.003 s ( 0.063 ms/b)
<dg|ff>:           60 b            0 skpd (  0.0%)    0.003 s ( 0.053 ms/b)
<dg|fg>:           60 b            0 skpd (  0.0%)    0.005 s ( 0.087 ms/b)
<dg|gg>:           30 b            0 skpd (  0.0%)    0.004 s ( 0.146 ms/b)
<ff|ff>:           21 b            0 skpd (  0.0%)    0.002 s ( 0.081 ms/b)
<ff|fg>:           36 b            0 skpd (  0.0%)    0.004 s ( 0.100 ms/b)
<ff|gg>:           18 b            0 skpd (  0.0%)    0.003 s ( 0.152 ms/b)
<fg|fg>:           21 b            0 skpd (  0.0%)    0.004 s ( 0.195 ms/b)
<fg|gg>:           18 b            0 skpd (  0.0%)    0.005 s ( 0.264 ms/b)
<gg|gg>:            6 b            0 skpd (  0.0%)    0.004 s ( 0.687 ms/b)
Recanonicalizing the internal orbitals
Recanonicalizing the virtual orbitals
Time needed for Fock operator              ...            0.595 sec
Reference energy                           ...   -241.880448644
Warning: for UHF the TrafoType has to be JK
Warning: for UHF the K(C)-option cannot be MO but must be AOX

-------------------------------
PARTIAL EXCHANGE TRANSFORMATION
-------------------------------

Transformation type                        ... two-operators
Generation of integrals (i,mue|j,nue)      ... ON
Generation of integrals (mue,kappa|nue,tau)... ON
Generation of integrals (i,mue|a,nue)      ... ON
Dimension of the basis                     ...   89
Number of internal alpha-MOs               ...    2 (   5-   6)
Number of internal beta-MOs                ...    1 (   5-   5)
Number of external alpha-MOs               ...   82 (   7-  88)
Number of external beta-MOs                ...   83 (   6-  88)
Pair cutoff                                ... 0.000e+00 Eh
Number of AO pairs in the trafo            ... 4005
Total Number of distinct AO pairs          ... 4005
Memory devoted for trafo                   ... 2500.0 MB 
Max. Number of MO pairs treated together   ... 41368      
Number Format for Storage                  ... Double (8 Byte)
Integral package used                      ... LIBINT

Starting integral evaluation:
    ... done with AO integral generation
Closing buffer AOK[aa] ( 0.00 GB; CompressionRatio= 0.73)
Closing buffer AOK[bb] ( 0.00 GB; CompressionRatio= 0.40)
Closing buffer AOK[ab] ( 0.00 GB; CompressionRatio= 0.57)
Closing buffer AOK[ba] ( 0.00 GB; CompressionRatio= 0.57)
Collecting buffer AOK 
Closing buffer IAAO1[aa] ( 0.00 GB; CompressionRatio= 0.99)
Closing buffer IAAO1[bb] ( 0.00 GB; CompressionRatio= 0.98)
Closing buffer IAAO1[ab] ( 0.00 GB; CompressionRatio= 0.99)
Closing buffer IAAO1[ba] ( 0.00 GB; CompressionRatio= 0.98)
Closing buffer IAAO2[aa] ( 0.00 GB; CompressionRatio= 0.99)
Closing buffer IAAO2[bb] ( 0.00 GB; CompressionRatio= 0.98)
Closing buffer IAAO2[ab] ( 0.00 GB; CompressionRatio= 0.99)
Closing buffer IAAO2[ba] ( 0.00 GB; CompressionRatio= 0.98)
Collecting buffer IAAO 
Closing buffer PRQS    ( 0.07 GB; CompressionRatio= 1.00)
Collecting buffer PRQS 
Number of alpha/alpha MO pairs in trafo    ...    3
Number of beta /beta  MO pairs in trafo    ...    1
Number of alpha/ beta MO pairs in trafo    ...    2
------------------------
SORTING OF (i,mue|j,nue)
------------------------

SORTING OF ALPHA/ALPHA PAIRS
IBATCH = 1 of  1
Closing buffer KAO[aa] ( 0.00 GB; CompressionRatio= 1.00)
Collecting buffer KAO 
SORTING OF BETA /BETA  PAIRS
IBATCH = 1 of  1
Closing buffer KAO[bb] ( 0.00 GB; CompressionRatio= 1.00)
Collecting buffer KAO 
SORTING OF ALPHA/BETA  PAIRS
IBATCH = 1 of  1
Closing buffer KAO[ab] ( 0.00 GB; CompressionRatio= 0.999810665825)
Collecting buffer KAO[ab] 
------------------------
SORTING OF (i,mue|a,nue)
------------------------

Number of alpha/alpha (i,a) pairs in trafo  ...  164
Number of beta /beta  (i,a) pairs in trafo  ...   83
Number of alpha/ beta (i,a) pairs in trafo  ...  166
Number of beta /alpha (i,a) pairs in trafo  ...   82
Setting up the alpha/alpha list             ... done
Setting up the beta /beta  list             ... done
Setting up the alpha/beta  list             ... done
Setting up the beta /alpha list             ... done
    ... Now sorting (i,mue|a,nue)integrals
    ... Integrals (i,b|a,c) will be made on the fly
SORTING OF ALPHA/ALPHA PAIRS
IBATCH = 1 of  1
Closing buffer IPAQ[aa]  0.00 GB; CompressionRatio= 1.00)
SORTING OF BETA /BETA  PAIRS
IBATCH = 1 of  1
Closing buffer IPAQ[bb]( 0.00 GB; CompressionRatio= 1.00)
SORTING OF ALPHA/BETA  PAIRS (NMatSort_ab=56)
IBATCH = 1 of  1
Closing buffer IPAQ[ab]( 0.00 GB; CompressionRatio= 1.00)
SORTING OF BETA/ALPHA  PAIRS
IBATCH = 1 of  1
Closing buffer IPAQ[ba]( 0.00 GB; CompressionRatio= 1.00)
N(AO-Batches) Done                         ...     44436 
N(AO-Batches) Skipped                      ...         0 
N(IJ)-pairs Skipped                        ...         0 
TOTAL TIME for half transformation         ...    10.410 sec
AO-integral generation                     ...     2.117 sec
Half transformation                        ...     5.751 sec
K-integral sorting                         ...     0.267 sec
<ss|**>: 
------------------------------
PARTIAL COULOMB TRANSFORMATION
------------------------------

Transformation type                        ... two-operators
Dimension of the basis                     ...   89
Number of internal alpha-MOs               ...    2 (5-6)
Number of internal beta-MOs                ...    1 (5-5)
Pair cutoff                                ... 0.000e+00 Eh
Number of AO pairs included in the trafo   ... 4005
Total Number of distinct AO pairs          ... 4005
Memory devoted for trafo                   ... 2500.0 MB 
Max. Number of MO pairs treated together   ... 81817      
Max. Number of MOs treated per batch       ...  919      
Number Format for Storage                  ... Double (8 Byte)
AO-integral source                         ... DIRECT
Integral package used                      ... LIBINT

Starting integral evaluation:
<sp|**>:         7728 b        0 skpd     0.104 s (  0.013 ms/b)
       11592 b        0 skpd     0.166 s (  0.014 ms/b)
<sd|**>: <sf|**>:         9660 b        0 skpd     0.125 s (  0.013 ms/b)
        5796 b        0 skpd     0.130 s (  0.022 ms/b)
<sg|**>:         3864 b        0 skpd     0.129 s (  0.033 ms/b)
<pp|**>: <pd|**>:         5796 b        0 skpd     0.148 s (  0.025 ms/b)
        8280 b        0 skpd     0.258 s (  0.031 ms/b)
<pf|**>:         4968 b        0 skpd     0.218 s (  0.044 ms/b)
<pg|**>:         3312 b        0 skpd     0.206 s (  0.062 ms/b)
<dd|**>:         4140 b        0 skpd     0.161 s (  0.039 ms/b)
<df|**>:         4140 b        0 skpd     0.248 s (  0.060 ms/b)
<dg|**>:         2760 b        0 skpd     0.227 s (  0.082 ms/b)
<ff|**>:         1656 b        0 skpd     0.118 s (  0.071 ms/b)
<fg|**>:         1656 b        0 skpd     0.184 s (  0.111 ms/b)
<gg|**>:          828 b        0 skpd     0.111 s (  0.134 ms/b)
Closing buffer AOJ[aa] ( 0.00 GB; CompressionRatio= 0.67)
Closing buffer AOJ[bb] ( 0.00 GB; CompressionRatio= 0.00)
Collecting buffer AOJ 
    ... done with AO integral generation
Number of Alpha-MO pairs included          ...    3
Number of Beta-MO pairs included           ...    1
    ... Now sorting integrals
SORTING ALPHA/ALPHA PAIRS
IBATCH = 1 of  1
Closing buffer JAO[aa] ( 0.00 GB; CompressionRatio= 1.00)
SORTING BETA/BETA PAIRS
IBATCH = 1 of  1
Closing buffer JAO[bb] ( 0.00 GB; CompressionRatio= 1.00)
Collecting buffer JAO 
TOTAL TIME for half transformation         ...     2.571 sec
AO-integral generation                     ...     1.513 sec
Half transformation                        ...     1.022 sec
J-integral sorting                         ...     0.025 sec

-------------------------- SECOND HALF TRANSFORMATION -------------------------
Formation of (ij|kl),(ij|ka), (ij|ab)      ... ok (     0.019 sec)
Formation of (ik|jl),(ik|ja), (ia|jb)      ... ok (     0.029 sec)


-----------------------
SPIN UNRESTRICTED GUESS
-----------------------

Entering MDCI_UHF_Guess, Tailored=0
Spin-components of the MP2 energy:
EMP2(aa)=     -0.002645874
EMP2(bb)=      0.000000000
EMP2(ab)=     -0.035492967

Initial guess performed in     0.001 sec
E(0)                                       ...   -241.880448644
E(MP2)                                     ...     -0.038138841
Initial E(tot)                             ...   -241.918587486
<T|T>                                      ...      0.030923920
Number of pairs included                   ... 3

------------------------------------------------
                  UHF COUPLED CLUSTER ITERATIONS
------------------------------------------------

Number of amplitudes to be optimized       ...        17097

Iter       E(tot)           E(Corr)          Delta-E          Residual     Time      <S|S>**1/2
  0   -241.918587486     -0.038138841     -0.000000000      0.010496512    0.61      0.000001490
                           *** Turning on DIIS ***
  1   -241.925139590     -0.044690946     -0.006552104      0.006431895    0.68      0.012607968
  2   -241.931036028     -0.050587384     -0.005896438      0.002705022    0.67      0.027040346
  3   -241.932334333     -0.051885688     -0.001298305      0.000770958    0.66      0.033184095
  4   -241.932499064     -0.052050419     -0.000164731      0.000167679    0.66      0.035169633
  5   -241.932534653     -0.052086008     -0.000035589      0.000042773    0.66      0.035480513
  6   -241.932531007     -0.052082363      0.000003645      0.000021493    0.68      0.035485907
  7   -241.932532976     -0.052084331     -0.000001968      0.000009674    0.67      0.035493032
               --- The Coupled-Cluster iterations have converged ---

----------------------
COUPLED CLUSTER ENERGY
----------------------

E(0)                                       ...   -241.880448644
E(CORR)                                    ...     -0.052084331
E(TOT)                                     ...   -241.932532976
Singles norm <S|S>**1/2                    ...      0.035493032 ( 0.029870366, 0.005622666)  
T1 diagnostic                              ...      0.020491912                              

------------------
LARGEST AMPLITUDES
------------------
   6a-> 29a   5b-> 12b       0.054280
   5a->  7a   5b-> 11b       0.052481
   5a->  8a   5b-> 10b       0.052481
   5a->  7a   5b->  7b       0.048437
   5a->  8a   5b->  6b       0.048437
   5a-> 11a   5b-> 11b       0.047857
   5a-> 12a   5b-> 10b       0.047857
   5a-> 12a   5b->  6b       0.044038
   5a-> 11a   5b->  7b       0.044038
   5a->  7a   5b-> 19b       0.041164
   5a->  8a   5b-> 18b       0.041164
   6a-> 30a   5b-> 10b       0.040259
   6a-> 31a   5b-> 11b       0.040259
   5a-> 20a   5b-> 10b       0.039534
   5a-> 19a   5b-> 11b       0.039534
   5a-> 11a   5b-> 19b       0.038046

----------------------
UHF TRIPLES CORRECTION (Algorithm 1)
----------------------

Multiplier for the singles contribution    ...      1.000000000

SPIN-CASE Alpha-Alpha-Alpha:

SPIN-CASE Beta-Beta-Beta:

SPIN-CASE Alpha-Alpha-Beta:
10% done
20% done
30% done
40% done
50% done
60% done
70% done
80% done
90% done


SPIN-CASE Beta-Beta-Alpha:

Triples Correction (T)                     ...     -0.001285585
    alpha-alpha-alpha ...  0.000000000 ( -0.0%)
    alpha-alpha-beta  ... -0.001285585 (100.0%)
    alpha-beta -beta  ...  0.000000000 ( -0.0%)
    beta -beta -beta  ...  0.000000000 ( -0.0%)
Scaling of triples based on CCSD energies (Peterson et al. Molecular Physics 113, 1551 (2015))
E(T*) = f*E(T) where f = E(F12-CCSD)/E(CCSD) 
f = CCSD (with F12)/ CCSD (without F12)    ...      1.000000000
Scaled triples correction (T)              ...     -0.001285585

Final correlation energy                   ...     -0.053369917
E(CCSD)                                    ...   -241.932532976
E(CCSD(T))                                 ...   -241.933818561



        !!!!!!!!!!!!!!!!!!!!!!!!!!!!!!!!!!!!!!!!!!!!!!!!!!!!!!!!!!!!!!!!!!!!!!!!!! 
        !  Warning: Densities are linearized densities                           !
        !!!!!!!!!!!!!!!!!!!!!!!!!!!!!!!!!!!!!!!!!!!!!!!!!!!!!!!!!!!!!!!!!!!!!!!!!! 

NORM  =      1.074330574 sqrt=     1.036499191
W(HF) =      0.930812195
------------------------------------------------------------------------------
                           ORCA POPULATION ANALYSIS
------------------------------------------------------------------------------
Input electron density              ... 13_Al.mdcip
Input spin density                  ... 13_Al.mdcir
BaseName (.gbw .S,...)              ... 13_Al

                    ********************************
                    * MULLIKEN POPULATION ANALYSIS *
                    ********************************

------------------------------------------
MULLIKEN ATOMIC CHARGES AND SPIN DENSITIES
------------------------------------------
   0 Al:    0.000000    1.000000
Sum of atomic charges       :    0.0000000
Sum of atomic spin densities:    1.0000000

---------------------------------------------------
MULLIKEN REDUCED ORBITAL CHARGES AND SPIN DENSITIES
---------------------------------------------------
CHARGE
  0 Als       :     5.888212  s :     5.888212
      pz      :     2.569924  p :     7.072940
      px      :     2.044846
      py      :     2.458171
      dz2     :     0.009874  d :     0.037287
      dxz     :     0.006429
      dyz     :     0.010698
      dx2y2   :     0.005108
      dxy     :     0.005178
      f0      :     0.000241  f :     0.001406
      f+1     :     0.000176
      f-1     :     0.000293
      f+2     :     0.000213
      f-2     :     0.000209
      f+3     :     0.000137
      f-3     :     0.000137
      g0      :     0.000020  g :     0.000155
      g+1     :     0.000017
      g-1     :     0.000023
      g+2     :     0.000018
      g-2     :     0.000018
      g+3     :     0.000016
      g-3     :     0.000016
      g+4     :     0.000013
      g-4     :     0.000013

SPIN
  0 Als       :     0.025767  s :     0.025767
      pz      :     0.537304  p :     0.956393
      px      :    -0.003183
      py      :     0.422272
      dz2     :     0.004502  d :     0.017032
      dxz     :     0.002774
      dyz     :     0.005335
      dx2y2   :     0.002245
      dxy     :     0.002176
      f0      :     0.000132  f :     0.000745
      f+1     :     0.000087
      f-1     :     0.000172
      f+2     :     0.000118
      f-2     :     0.000113
      f+3     :     0.000062
      f-3     :     0.000062
      g0      :     0.000009  g :     0.000063
      g+1     :     0.000007
      g-1     :     0.000010
      g+2     :     0.000008
      g-2     :     0.000008
      g+3     :     0.000006
      g-3     :     0.000006
      g+4     :     0.000005
      g-4     :     0.000005


                     *******************************
                     * LOEWDIN POPULATION ANALYSIS *
                     *******************************

-----------------------------------------
LOEWDIN ATOMIC CHARGES AND SPIN DENSITIES
-----------------------------------------
   0 Al:    0.000000    1.000000

--------------------------------------------------
LOEWDIN REDUCED ORBITAL CHARGES AND SPIN DENSITIES
--------------------------------------------------
CHARGE
  0 Als       :     5.888212  s :     5.888212
      pz      :     2.569924  p :     7.072940
      px      :     2.044846
      py      :     2.458171
      dz2     :     0.009874  d :     0.037287
      dxz     :     0.006429
      dyz     :     0.010698
      dx2y2   :     0.005108
      dxy     :     0.005178
      f0      :     0.000241  f :     0.001406
      f+1     :     0.000176
      f-1     :     0.000293
      f+2     :     0.000213
      f-2     :     0.000209
      f+3     :     0.000137
      f-3     :     0.000137
      g0      :     0.000020  g :     0.000155
      g+1     :     0.000017
      g-1     :     0.000023
      g+2     :     0.000018
      g-2     :     0.000018
      g+3     :     0.000016
      g-3     :     0.000016
      g+4     :     0.000013
      g-4     :     0.000013

SPIN
  0 Als       :     0.025767  s :     0.025767
      pz      :     0.537304  p :     0.956393
      px      :    -0.003183
      py      :     0.422272
      dz2     :     0.004502  d :     0.017032
      dxz     :     0.002774
      dyz     :     0.005335
      dx2y2   :     0.002245
      dxy     :     0.002176
      f0      :     0.000132  f :     0.000745
      f+1     :     0.000087
      f-1     :     0.000172
      f+2     :     0.000118
      f-2     :     0.000113
      f+3     :     0.000062
      f-3     :     0.000062
      g0      :     0.000009  g :     0.000063
      g+1     :     0.000007
      g-1     :     0.000010
      g+2     :     0.000008
      g-2     :     0.000008
      g+3     :     0.000006
      g-3     :     0.000006
      g+4     :     0.000005
      g-4     :     0.000005


                      *****************************
                      * MAYER POPULATION ANALYSIS *
                      *****************************

  NA   - Mulliken gross atomic population
  ZA   - Total nuclear charge
  QA   - Mulliken gross atomic charge
  VA   - Mayer's total valence
  BVA  - Mayer's bonded valence
  FA   - Mayer's free valence

  ATOM       NA         ZA         QA         VA         BVA        FA
  0 Al    13.0000    13.0000     0.0000     1.4919     0.0000     1.4919





------------------------------------------------------------------------------- 
                                     TIMINGS                                   
------------------------------------------------------------------------------- 


Total execution time                   ...       19.293 sec

Fock Matrix Formation                  ...        0.595 sec (  3.1%)
Initial Guess                          ...        0.001 sec (  0.0%)
DIIS Solver                            ...        0.008 sec (  0.0%)
State Vector Update                    ...        0.000 sec (  0.0%)
Sigma-vector construction              ...        5.295 sec ( 27.4%)
  <D|H|D>(2-ext)                       ...        0.002 sec (  0.0% of sigma)
  <D|H|D>(4-ext)                       ...        1.709 sec ( 32.3% of sigma)
  <S|H|0>                              ...        0.009 sec (  0.2% of sigma)
  <D|H|S>(1-ext)                       ...        0.002 sec (  0.0% of sigma)
  Fock-dressing                        ...        3.397 sec ( 64.2% of sigma)
  (ij|ab),(ia|jb)-dressing             ...        0.102 sec (  1.9% of sigma)
Total Time for computing (T)           ...        0.059 sec (  0.3% of ALL)
  I/O of integral and amplitudes       ...        0.017 sec ( 28.8% of (T))
  External N**7 contributions          ...        0.009 sec ( 14.6% of (T))
  Internal N**7 contributions          ...        0.003 sec (  4.4% of (T))
  N**6 triples energy contributions    ...        0.010 sec ( 16.8% of (T))


-------------------------   --------------------
FINAL SINGLE POINT ENERGY      -241.933818561193
-------------------------   --------------------


                            ***************************************
                            *     ORCA property calculations      *
                            ***************************************

                                    ---------------------
                                    Active property flags
                                    ---------------------
   (+) Dipole Moment


------------------------------------------------------------------------------
                       ORCA ELECTRIC PROPERTIES CALCULATION
------------------------------------------------------------------------------

Dipole Moment Calculation                       ... on
Quadrupole Moment Calculation                   ... off
Polarizability Calculation                      ... off
GBWName                                         ... 13_Al.gbw
Electron density file                           ... 13_Al.scfp
The origin for moment calculation is the CENTER OF MASS  = ( 0.000000,  0.000000  0.000000)

-------------
DIPOLE MOMENT
-------------
                                X             Y             Z
Electronic contribution:      0.00000       0.00000      -0.00000
Nuclear contribution   :      0.00000       0.00000       0.00000
                        -----------------------------------------
Total Dipole Moment    :      0.00000       0.00000      -0.00000
                        -----------------------------------------
Magnitude (a.u.)       :      0.00000
Magnitude (Debye)      :      0.00000



--------------------
Rotational spectrum 
--------------------
 
Rotational constants in cm-1:     0.000000     0.000000     0.000000 
Rotational constants in MHz :     0.000000     0.000000     0.000000 

 Dipole components along the rotational axes: 
x,y,z [a.u.] :     0.000000     0.000000    -0.000000 
x,y,z [Debye]:     0.000000     0.000000    -0.000000 

 

                           *** MDCI DENSITY ***

------------------------------------------------------------------------------
                       ORCA ELECTRIC PROPERTIES CALCULATION
------------------------------------------------------------------------------

Dipole Moment Calculation                       ... on
Quadrupole Moment Calculation                   ... off
Polarizability Calculation                      ... off
GBWName                                         ... 13_Al.gbw
Electron density file                           ... 13_Al.mdcip
The origin for moment calculation is the CENTER OF MASS  = ( 0.000000,  0.000000  0.000000)

-------------
DIPOLE MOMENT
-------------
                                X             Y             Z
Electronic contribution:      0.00000       0.00000      -0.00000
Nuclear contribution   :      0.00000       0.00000       0.00000
                        -----------------------------------------
Total Dipole Moment    :      0.00000       0.00000      -0.00000
                        -----------------------------------------
Magnitude (a.u.)       :      0.00000
Magnitude (Debye)      :      0.00000



--------------------
Rotational spectrum 
--------------------
 
Rotational constants in cm-1:     0.000000     0.000000     0.000000 
Rotational constants in MHz :     0.000000     0.000000     0.000000 

 Dipole components along the rotational axes: 
x,y,z [a.u.] :     0.000000     0.000000    -0.000000 
x,y,z [Debye]:     0.000000     0.000000    -0.000000 

 

Timings for individual modules:

Sum of individual times         ...       31.898 sec (=   0.532 min)
GTO integral calculation        ...        0.603 sec (=   0.010 min)   1.9 %
SCF iterations                  ...       11.486 sec (=   0.191 min)  36.0 %
MDCI module                     ...       19.809 sec (=   0.330 min)  62.1 %
                             ****ORCA TERMINATED NORMALLY****
TOTAL RUN TIME: 0 days 0 hours 0 minutes 32 seconds 478 msec
