
                                 *****************
                                 * O   R   C   A *
                                 *****************

           --- An Ab Initio, DFT and Semiempirical electronic structure package ---

                  #######################################################
                  #                        -***-                        #
                  #          Department of theory and spectroscopy      #
                  #               Directorship: Frank Neese             #
                  #        Max Planck Institute fuer Kohlenforschung    #
                  #                Kaiser Wilhelm Platz 1               #
                  #                 D-45470 Muelheim/Ruhr               #
                  #                      Germany                        #
                  #                                                     #
                  #                  All rights reserved                #
                  #                        -***-                        #
                  #######################################################


                         Program Version 4.2.0 -  RELEASE  -


 With contributions from (in alphabetic order):
   Daniel Aravena         : Magnetic Suceptibility
   Michael Atanasov       : Ab Initio Ligand Field Theory (pilot matlab implementation)
   Alexander A. Auer      : GIAO ZORA, VPT2
   Ute Becker             : Parallelization
   Giovanni Bistoni       : ED, misc. LED, open-shell LED, HFLED
   Martin Brehm           : Molecular dynamics
   Dmytro Bykov           : SCF Hessian
   Vijay G. Chilkuri      : MRCI spin determinant printing, contributions to CSF-ICE
   Dipayan Datta          : RHF DLPNO-CCSD density
   Achintya Kumar Dutta   : EOM-CC, STEOM-CC
   Dmitry Ganyushin       : Spin-Orbit,Spin-Spin,Magnetic field MRCI
   Miquel Garcia          : C-PCM Hessian, Gaussian charge scheme
   Yang Guo               : DLPNO-NEVPT2, CIM, IAO-localization
   Andreas Hansen         : Spin unrestricted coupled pair/coupled cluster methods
   Benjamin Helmich-Paris : CASSCF linear response (MC-RPA)
   Lee Huntington         : MR-EOM, pCC
   Robert Izsak           : Overlap fitted RIJCOSX, COSX-SCS-MP3, EOM
   Christian Kollmar      : KDIIS, OOCD, Brueckner-CCSD(T), CCSD density
   Simone Kossmann        : Meta GGA functionals, TD-DFT gradient, OOMP2, MP2 Hessian
   Martin Krupicka        : AUTO-CI
   Lucas Lang             : DCDCAS
   Dagmar Lenk            : GEPOL surface, SMD
   Dimitrios Liakos       : Extrapolation schemes; Compound Job, initial MDCI parallelization
   Dimitrios Manganas     : Further ROCIS development; embedding schemes
   Dimitrios Pantazis     : SARC Basis sets
   Taras Petrenko         : DFT Hessian,TD-DFT gradient, ASA, ECA, R-Raman, ABS, FL, XAS/XES, NRVS
   Peter Pinski           : DLPNO-MP2, DLPNO-MP2 Gradient
   Christoph Reimann      : Effective Core Potentials
   Marius Retegan         : Local ZFS, SOC
   Christoph Riplinger    : Optimizer, TS searches, QM/MM, DLPNO-CCSD(T), (RO)-DLPNO pert. Triples
   Tobias Risthaus        : Range-separated hybrids, TD-DFT gradient, RPA, STAB
   Michael Roemelt        : Original ROCIS implementation
   Masaaki Saitow         : Open-shell DLPNO-CCSD energy and density
   Barbara Sandhoefer     : DKH picture change effects
   Avijit Sen             : IP-ROCIS
   Kantharuban Sivalingam : CASSCF convergence, NEVPT2, FIC-MRCI
   Bernardo de Souza      : ESD, SOC TD-DFT
   Georgi Stoychev        : AutoAux, RI-MP2 NMR
   Willem Van den Heuvel  : Paramagnetic NMR
   Boris Wezisla          : Elementary symmetry handling
   Frank Wennmohs         : Technical directorship


 We gratefully acknowledge several colleagues who have allowed us to
 interface, adapt or use parts of their codes:
   Stefan Grimme, W. Hujo, H. Kruse,             : VdW corrections, initial TS optimization,
                  C. Bannwarth                     DFT functionals, gCP, sTDA/sTD-DF
   Ed Valeev, F. Pavosevic, A. Kumar             : LibInt (2-el integral package), F12 methods
   Garnet Chan, S. Sharma, J. Yang, R. Olivares  : DMRG
   Ulf Ekstrom                                   : XCFun DFT Library
   Mihaly Kallay                                 : mrcc  (arbitrary order and MRCC methods)
   Andreas Klamt, Michael Diedenhofen            : otool_cosmo (COSMO solvation model)
   Jiri Pittner, Ondrej Demel                    : Mk-CCSD
   Frank Weinhold                                : gennbo (NPA and NBO analysis)
   Christopher J. Cramer and Donald G. Truhlar   : smd solvation model
   Lars Goerigk                                  : TD-DFT with DH, B97 family of functionals
   V. Asgeirsson, H. Jonsson                     : NEB implementation
   FAccTs GmbH                                   : IRC, NEB, NEB-TS, Multilevel, MM, QM/MM, CI optimization
   S Lehtola, MJT Oliveira, MAL Marques          : LibXC Library


 Your calculation uses the libint2 library for the computation of 2-el integrals
 For citations please refer to: http://libint.valeyev.net

 Your ORCA version has been built with support for libXC version: 4.2.3
 For citations please refer to: https://tddft.org/programs/libxc/

 This ORCA versions uses:
   CBLAS   interface :  Fast vector & matrix operations
   LAPACKE interface :  Fast linear algebra routines
   SCALAPACK package :  Parallel linear algebra routines


----- Orbital basis set information -----
Your calculation utilizes the basis: aug-cc-pV(Q+d)Z 
             Al - Ar: T.H. Dunning, Jr., K. A. Peterson and A. K. Wilson, J. Chem. Phys.
                      114, 9244 (2001)

================================================================================
                                        WARNINGS
                       Please study these warnings very carefully!
================================================================================


WARNING: your system is open-shell and RHF/RKS was chosen
  ===> : WILL SWITCH to UHF/UKS


WARNING: MDCI localization with Augmented Hessian Foster-Boys
  ===> : Switching off randomization!

WARNING: Post HF methods need fully converged wavefunctions
  ===> : Setting SCFConvForced true
         You can overwrite this default with %scf ConvForced false 


INFO   : the flag for use of LIBINT has been found!

================================================================================
                                       INPUT FILE
================================================================================
NAME = 14_Si.in
|  1> #
|  2> # 14_Si CCSD(T)/aug-cc-pvq(+d)z
|  3> #
|  4> ! CCSD(T) aug-cc-pvq(+d)z tightscf
|  5> 
|  6> *xyz 0 3
|  7>  Si 0.0 0.0 0.0
|  8> *
|  9> 
| 10> %maxcore 5000 
| 11> 
| 12> %pal
| 13> nprocs 6
| 14> end
| 15> 
| 16> 
| 17>                          ****END OF INPUT****
================================================================================

                       ****************************
                       * Single Point Calculation *
                       ****************************

---------------------------------
CARTESIAN COORDINATES (ANGSTROEM)
---------------------------------
  Si     0.000000    0.000000    0.000000

----------------------------
CARTESIAN COORDINATES (A.U.)
----------------------------
  NO LB      ZA    FRAG     MASS         X           Y           Z
   0 Si   14.0000    0    28.086    0.000000    0.000000    0.000000

--------------------------------
INTERNAL COORDINATES (ANGSTROEM)
--------------------------------
 Si     0   0   0     0.000000000000     0.00000000     0.00000000

---------------------------
INTERNAL COORDINATES (A.U.)
---------------------------
 Si     0   0   0     0.000000000000     0.00000000     0.00000000

---------------------
BASIS SET INFORMATION
---------------------
There are 1 groups of distinct atoms

 Group   1 Type Si  : 43s20p5d3f2g contracted to 7s6p5d3f2g pattern {1313131111/881111/11111/111/11}

Atom   0Si   basis set group =>   1


           ************************************************************
           *        Program running with 6 parallel MPI-processes     *
           *              working on a common directory               *
           ************************************************************
------------------------------------------------------------------------------
                           ORCA GTO INTEGRAL CALCULATION
------------------------------------------------------------------------------

                         BASIS SET STATISTICS AND STARTUP INFO

 # of primitive gaussian shells          ...   73
 # of primitive gaussian functions       ...  167
 # of contracted shells                  ...   23
 # of contracted basis functions         ...   89
 Highest angular momentum                ...    4
 Maximum contraction depth               ...   13
 Integral package used                   ... LIBINT
 Integral threshhold            Thresh   ...  2.500e-11
 Primitive cut-off              TCut     ...  2.500e-12


------------------------------ INTEGRAL EVALUATION ----------------------------


 * One electron integrals 
 Pre-screening matrix                    ... done
 Shell pair data                         ... done (   0.000 sec)



           ************************************************************
           *        Program running with 6 parallel MPI-processes     *
           *              working on a common directory               *
           ************************************************************
-------------------------------------------------------------------------------
                                 ORCA SCF
-------------------------------------------------------------------------------

------------
SCF SETTINGS
------------
Hamiltonian:
 Ab initio Hamiltonian  Method          .... Hartree-Fock(GTOs)


General Settings:
 Integral files         IntName         .... 14_Si
 Hartree-Fock type      HFTyp           .... UHF
 Total Charge           Charge          ....    0
 Multiplicity           Mult            ....    3
 Number of Electrons    NEL             ....   14
 Basis Dimension        Dim             ....   89
 Nuclear Repulsion      ENuc            ....      0.0000000000 Eh

Convergence Acceleration:
 DIIS                   CNVDIIS         .... on
   Start iteration      DIISMaxIt       ....    12
   Startup error        DIISStart       ....  0.200000
   # of expansion vecs  DIISMaxEq       ....     5
   Bias factor          DIISBfac        ....   1.050
   Max. coefficient     DIISMaxC        ....  10.000
 Newton-Raphson         CNVNR           .... off
 SOSCF                  CNVSOSCF        .... off
 Level Shifting         CNVShift        .... on
   Level shift para.    LevelShift      ....    0.2500
   Turn off err/grad.   ShiftErr        ....    0.0010
 Zerner damping         CNVZerner       .... off
 Static damping         CNVDamp         .... on
   Fraction old density DampFac         ....    0.7000
   Max. Damping (<1)    DampMax         ....    0.9800
   Min. Damping (>=0)   DampMin         ....    0.0000
   Turn off err/grad.   DampErr         ....    0.1000
 Fernandez-Rico         CNVRico         .... off

SCF Procedure:
 Maximum # iterations   MaxIter         ....   125
 SCF integral mode      SCFMode         .... Direct
   Integral package                     .... LIBINT
 Reset frequency        DirectResetFreq ....    20
 Integral Threshold     Thresh          ....  2.500e-11 Eh
 Primitive CutOff       TCut            ....  2.500e-12 Eh

Convergence Tolerance:
 Convergence Check Mode ConvCheckMode   .... Total+1el-Energy
 Convergence forced     ConvForced      .... 1
 Energy Change          TolE            ....  1.000e-08 Eh
 1-El. energy change                    ....  1.000e-05 Eh
 DIIS Error             TolErr          ....  5.000e-07


Diagonalization of the overlap matrix:
Smallest eigenvalue                        ... 4.767e-04
Time for diagonalization                   ...    0.002 sec
Threshold for overlap eigenvalues          ... 1.000e-08
Number of eigenvalues below threshold      ... 0
Time for construction of square roots      ...    0.005 sec
Total time needed                          ...    0.007 sec

-------------------
DFT GRID GENERATION
-------------------

General Integration Accuracy     IntAcc      ...  4.340
Radial Grid Type                 RadialGrid  ... Gauss-Chebyshev
Angular Grid (max. acc.)         AngularGrid ... Lebedev-110
Angular grid pruning method      GridPruning ... 3 (G Style)
Weight generation scheme         WeightScheme... Becke
Basis function cutoff            BFCut       ...    1.0000e-11
Integration weight cutoff        WCut        ...    1.0000e-14
Grids for H and He will be reduced by one unit

# of grid points (after initial pruning)     ...   1866 (   0.0 sec)
# of grid points (after weights+screening)   ...   1866 (   0.0 sec)
Grid point division into batches done        ...    0.0 sec
Reduced shell lists constructed in    0.0 sec

Total number of grid points                  ...     1866
Total number of batches                      ...       30
Average number of points per batch           ...       62
Average number of grid points per atom       ...     1866
Average number of shells per batch           ...    14.17 (61.59%)
Average number of basis functions per batch  ...    62.50 (70.22%)
Average number of large shells per batch     ...    12.83 (90.59%)
Average number of large basis fcns per batch ...    54.50 (87.20%)
Maximum spatial batch extension              ...  19.45, 35.80, 35.80 au
Average spatial batch extension              ...   2.82,  4.19,  5.45 au

Time for grid setup =    0.016 sec

------------------------------
INITIAL GUESS: MODEL POTENTIAL
------------------------------
Loading Hartree-Fock densities                     ... done
Calculating cut-offs                               ... done
Setting up the integral package                    ... done
Initializing the effective Hamiltonian             ... done
Starting the Coulomb interaction                   ... done (   0.0 sec)
Reading the grid                                   ... done
Mapping shells                                     ... done
Starting the XC term evaluation                    ... done (   0.0 sec)
Transforming the Hamiltonian                       ... done (   0.0 sec)
Diagonalizing the Hamiltonian                      ... done (   0.0 sec)
Back transforming the eigenvectors                 ... done (   0.0 sec)
Now organizing SCF variables                       ... done
                      ------------------
                      INITIAL GUESS DONE (   0.1 sec)
                      ------------------
--------------
SCF ITERATIONS
--------------
ITER       Energy         Delta-E        Max-DP      RMS-DP      [F,P]     Damp
               ***  Starting incremental Fock matrix formation  ***
  0   -288.8408474943   0.000000000000 0.13885297  0.00287486  0.0948185 0.7000
  1   -288.8454831011  -0.004635606787 0.09895699  0.00204578  0.0657540 0.7000
                               ***Turning on DIIS***
  2   -288.8489239616  -0.003440860497 0.22826658  0.00471693  0.0448572 0.0000
  3   -288.8577663032  -0.008842341571 0.00861211  0.00026495  0.0056327 0.0000
  4   -288.8621947312  -0.004428428010 0.00456413  0.00009846  0.0019694 0.0000
  5   -288.8578843328   0.004310398370 0.00276078  0.00006117  0.0011447 0.0000
  6   -288.8569490419   0.000935290970 0.00148707  0.00003447  0.0005906 0.0000
  7   -288.8581520355  -0.001202993648 0.00024495  0.00000680  0.0000941 0.0000
  8   -288.8584586730  -0.000306637470 0.00013676  0.00000254  0.0000226 0.0000
  9   -288.8584465818   0.000012091148 0.00005321  0.00000081  0.0000067 0.0000
 10   -288.8584576897  -0.000011107854 0.00000899  0.00000017  0.0000016 0.0000
                            ***DIIS convergence achieved***

               *****************************************************
               *                     SUCCESS                       *
               *           SCF CONVERGED AFTER  11 CYCLES          *
               *****************************************************


----------------
TOTAL SCF ENERGY
----------------

Total Energy       :         -288.85846331 Eh           -7860.23839 eV

Components:
Nuclear Repulsion  :            0.00000000 Eh               0.00000 eV
Electronic Energy  :         -288.85846331 Eh           -7860.23839 eV
One Electron Energy:         -400.56853816 Eh          -10900.02407 eV
Two Electron Energy:          111.71007486 Eh            3039.78568 eV

Virial components:
Potential Energy   :         -577.71502315 Eh          -15720.42499 eV
Kinetic Energy     :          288.85655984 Eh            7860.18660 eV
Virial Ratio       :            2.00000659


---------------
SCF CONVERGENCE
---------------

  Last Energy change         ...   -5.6171e-06  Tolerance :   1.0000e-08
  Last MAX-Density change    ...    1.0176e-06  Tolerance :   1.0000e-07
  Last RMS-Density change    ...    2.9523e-08  Tolerance :   5.0000e-09
  Last DIIS Error            ...    2.3171e-07  Tolerance :   5.0000e-07

             **** THE GBW FILE WAS UPDATED (14_Si.gbw) ****
             **** DENSITY FILE WAS UPDATED (14_Si.scfp) ****
             **** ENERGY FILE WAS UPDATED (14_Si.en.tmp) ****
----------------------
UHF SPIN CONTAMINATION
----------------------

Expectation value of <S**2>     :     2.015641
Ideal value S*(S+1) for S=1.0   :     2.000000
Deviation                       :     0.015641

             **** THE GBW FILE WAS UPDATED (14_Si.gbw) ****
             **** DENSITY FILE WAS UPDATED (14_Si.scfp) ****
----------------
ORBITAL ENERGIES
----------------
                 SPIN UP ORBITALS
  NO   OCC          E(Eh)            E(eV) 
   0   1.0000     -68.815765     -1872.5722 
   1   1.0000      -6.160843      -167.6451 
   2   1.0000      -4.268141      -116.1420 
   3   1.0000      -4.268141      -116.1420 
   4   1.0000      -4.258478      -115.8791 
   5   1.0000      -0.619884       -16.8679 
   6   1.0000      -0.301359        -8.2004 
   7   1.0000      -0.301359        -8.2004 
   8   0.0000      -0.010131        -0.2757 
   9   0.0000       0.051732         1.4077 
  10   0.0000       0.054083         1.4717 
  11   0.0000       0.054083         1.4717 
  12   0.0000       0.062438         1.6990 
  13   0.0000       0.117179         3.1886 
  14   0.0000       0.117179         3.1886 
  15   0.0000       0.117337         3.1929 
  16   0.0000       0.117337         3.1929 
  17   0.0000       0.117666         3.2019 
  18   0.0000       0.273529         7.4431 
  19   0.0000       0.273529         7.4431 
  20   0.0000       0.291057         7.9201 
  21   0.0000       0.313186         8.5222 
  22   0.0000       0.314797         8.5660 
  23   0.0000       0.314797         8.5660 
  24   0.0000       0.327562         8.9134 
  25   0.0000       0.327562         8.9134 
  26   0.0000       0.333276         9.0689 
  27   0.0000       0.333417         9.0727 
  28   0.0000       0.333795         9.0830 
  29   0.0000       0.333795         9.0830 
  30   0.0000       0.336415         9.1543 
  31   0.0000       0.336415         9.1543 
  32   0.0000       0.341371         9.2892 
  33   0.0000       0.341371         9.2892 
  34   0.0000       0.830483        22.5986 
  35   0.0000       0.830483        22.5986 
  36   0.0000       0.831439        22.6246 
  37   0.0000       0.831439        22.6246 
  38   0.0000       0.832156        22.6441 
  39   0.0000       0.946038        25.7430 
  40   0.0000       0.947463        25.7818 
  41   0.0000       0.947463        25.7818 
  42   0.0000       0.951598        25.8943 
  43   0.0000       0.951598        25.8943 
  44   0.0000       0.957714        26.0607 
  45   0.0000       0.957714        26.0607 
  46   0.0000       1.020177        27.7604 
  47   0.0000       1.021398        27.7937 
  48   0.0000       1.021398        27.7937 
  49   0.0000       1.025079        27.8938 
  50   0.0000       1.025079        27.8938 
  51   0.0000       1.031266        28.0622 
  52   0.0000       1.031266        28.0622 
  53   0.0000       1.040046        28.3011 
  54   0.0000       1.040046        28.3011 
  55   0.0000       1.056945        28.7609 
  56   0.0000       1.056945        28.7609 
  57   0.0000       1.064328        28.9618 
  58   0.0000       1.252977        34.0952 
  59   0.0000       1.949010        53.0353 
  60   0.0000       1.953505        53.1576 
  61   0.0000       1.953505        53.1576 
  62   0.0000       1.967472        53.5376 
  63   0.0000       1.967472        53.5376 
  64   0.0000       2.374813        64.6220 
  65   0.0000       2.377010        64.6817 
  66   0.0000       2.377010        64.6817 
  67   0.0000       2.383625        64.8617 
  68   0.0000       2.383625        64.8617 
  69   0.0000       2.394707        65.1633 
  70   0.0000       2.394707        65.1633 
  71   0.0000       2.650588        72.1262 
  72   0.0000       2.652316        72.1732 
  73   0.0000       2.652316        72.1732 
  74   0.0000       2.657520        72.3148 
  75   0.0000       2.657520        72.3148 
  76   0.0000       2.666265        72.5528 
  77   0.0000       2.666265        72.5528 
  78   0.0000       2.678647        72.8897 
  79   0.0000       2.678647        72.8897 
  80   0.0000       5.151648       140.1835 
  81   0.0000       5.167576       140.6169 
  82   0.0000       5.167576       140.6169 
  83   0.0000       6.077451       165.3758 
  84   0.0000       6.081193       165.4777 
  85   0.0000       6.081193       165.4777 
  86   0.0000       6.092496       165.7852 
  87   0.0000       6.092496       165.7852 
  88   0.0000       9.016161       245.3422 

                 SPIN DOWN ORBITALS
  NO   OCC          E(Eh)            E(eV) 
   0   1.0000     -68.806871     -1872.3301 
   1   1.0000      -6.149805      -167.3447 
   2   1.0000      -4.253799      -115.7517 
   3   1.0000      -4.240521      -115.3905 
   4   1.0000      -4.240521      -115.3905 
   5   1.0000      -0.462903       -12.5962 
   6   0.0000       0.005115         0.1392 
   7   0.0000       0.031562         0.8588 
   8   0.0000       0.031562         0.8588 
   9   0.0000       0.058769         1.5992 
  10   0.0000       0.067534         1.8377 
  11   0.0000       0.091154         2.4804 
  12   0.0000       0.091154         2.4804 
  13   0.0000       0.123116         3.3501 
  14   0.0000       0.124909         3.3990 
  15   0.0000       0.124909         3.3990 
  16   0.0000       0.131925         3.5899 
  17   0.0000       0.131925         3.5899 
  18   0.0000       0.298841         8.1319 
  19   0.0000       0.327285         8.9059 
  20   0.0000       0.327285         8.9059 
  21   0.0000       0.335416         9.1271 
  22   0.0000       0.338686         9.2161 
  23   0.0000       0.340630         9.2690 
  24   0.0000       0.340630         9.2690 
  25   0.0000       0.344794         9.3823 
  26   0.0000       0.344794         9.3823 
  27   0.0000       0.353624         9.6226 
  28   0.0000       0.353624         9.6226 
  29   0.0000       0.361745         9.8436 
  30   0.0000       0.366386         9.9699 
  31   0.0000       0.366386         9.9699 
  32   0.0000       0.389834        10.6079 
  33   0.0000       0.389834        10.6079 
  34   0.0000       0.857104        23.3230 
  35   0.0000       0.865571        23.5534 
  36   0.0000       0.865571        23.5534 
  37   0.0000       0.895929        24.3795 
  38   0.0000       0.895929        24.3795 
  39   0.0000       0.966459        26.2987 
  40   0.0000       0.970973        26.4215 
  41   0.0000       0.970973        26.4215 
  42   0.0000       0.983846        26.7718 
  43   0.0000       0.983846        26.7718 
  44   0.0000       1.005812        27.3695 
  45   0.0000       1.005812        27.3695 
  46   0.0000       1.030919        28.0527 
  47   0.0000       1.032889        28.1064 
  48   0.0000       1.032889        28.1064 
  49   0.0000       1.038857        28.2687 
  50   0.0000       1.038857        28.2687 
  51   0.0000       1.048994        28.5446 
  52   0.0000       1.048994        28.5446 
  53   0.0000       1.063677        28.9441 
  54   0.0000       1.063677        28.9441 
  55   0.0000       1.073564        29.2132 
  56   0.0000       1.110922        30.2297 
  57   0.0000       1.110922        30.2297 
  58   0.0000       1.280502        34.8442 
  59   0.0000       1.960539        53.3490 
  60   0.0000       1.968232        53.5583 
  61   0.0000       1.968232        53.5583 
  62   0.0000       1.995195        54.2920 
  63   0.0000       1.995195        54.2920 
  64   0.0000       2.393157        65.1211 
  65   0.0000       2.398143        65.2568 
  66   0.0000       2.398143        65.2568 
  67   0.0000       2.413306        65.6694 
  68   0.0000       2.413306        65.6694 
  69   0.0000       2.439481        66.3816 
  70   0.0000       2.439481        66.3816 
  71   0.0000       2.666843        72.5685 
  72   0.0000       2.669868        72.6508 
  73   0.0000       2.669868        72.6508 
  74   0.0000       2.679013        72.8996 
  75   0.0000       2.679013        72.8996 
  76   0.0000       2.694492        73.3209 
  77   0.0000       2.694492        73.3209 
  78   0.0000       2.716713        73.9255 
  79   0.0000       2.716713        73.9255 
  80   0.0000       5.157699       140.3481 
  81   0.0000       5.194444       141.3480 
  82   0.0000       5.194444       141.3480 
  83   0.0000       6.082625       165.5166 
  84   0.0000       6.088312       165.6714 
  85   0.0000       6.088312       165.6714 
  86   0.0000       6.105539       166.1402 
  87   0.0000       6.105539       166.1402 
  88   0.0000       9.030104       245.7216 

                    ********************************
                    * MULLIKEN POPULATION ANALYSIS *
                    ********************************

--------------------------------------------
MULLIKEN ATOMIC CHARGES AND SPIN POPULATIONS
--------------------------------------------
   0 Si:   -0.000000    2.000000
Sum of atomic charges         :   -0.0000000
Sum of atomic spin populations:    2.0000000

-----------------------------------------------------
MULLIKEN REDUCED ORBITAL CHARGES AND SPIN POPULATIONS
-----------------------------------------------------
CHARGE
  0 Sis       :     5.992229  s :     5.992229
      pz      :     2.999755  p :     7.999945
      px      :     2.578150
      py      :     2.422040
      dz2     :     0.001940  d :     0.007770
      dxz     :     0.000002
      dyz     :     0.000003
      dx2y2   :     0.000142
      dxy     :     0.005683
      f0      :     0.000010  f :     0.000055
      f+1     :     0.000001
      f-1     :     0.000001
      f+2     :     0.000000
      f-2     :     0.000017
      f+3     :     0.000007
      f-3     :     0.000019
      g0      :     0.000000  g :     0.000001
      g+1     :     0.000000
      g-1     :     0.000000
      g+2     :     0.000000
      g-2     :     0.000000
      g+3     :     0.000000
      g-3     :     0.000000
      g+4     :     0.000001
      g-4     :     0.000000

SPIN
  0 Sis       :    -0.000177  s :    -0.000177
      pz      :     0.999756  p :     1.999949
      px      :     0.578151
      py      :     0.422041
      dz2     :     0.000044  d :     0.000178
      dxz     :     0.000000
      dyz     :     0.000000
      dx2y2   :     0.000003
      dxy     :     0.000130
      f0      :     0.000010  f :     0.000051
      f+1     :     0.000001
      f-1     :     0.000001
      f+2     :     0.000000
      f-2     :     0.000016
      f+3     :     0.000006
      f-3     :     0.000018
      g0      :    -0.000000  g :    -0.000001
      g+1     :    -0.000000
      g-1     :    -0.000000
      g+2     :    -0.000000
      g-2     :    -0.000000
      g+3     :    -0.000000
      g-3     :    -0.000000
      g+4     :    -0.000000
      g-4     :    -0.000000


                     *******************************
                     * LOEWDIN POPULATION ANALYSIS *
                     *******************************

-------------------------------------------
LOEWDIN ATOMIC CHARGES AND SPIN POPULATIONS
-------------------------------------------
   0 Si:   -0.000000    2.000000

----------------------------------------------------
LOEWDIN REDUCED ORBITAL CHARGES AND SPIN POPULATIONS
----------------------------------------------------
CHARGE
  0 Sis       :     5.992229  s :     5.992229
      pz      :     2.999755  p :     7.999945
      px      :     2.578150
      py      :     2.422040
      dz2     :     0.001940  d :     0.007770
      dxz     :     0.000002
      dyz     :     0.000003
      dx2y2   :     0.000142
      dxy     :     0.005683
      f0      :     0.000010  f :     0.000055
      f+1     :     0.000001
      f-1     :     0.000001
      f+2     :     0.000000
      f-2     :     0.000017
      f+3     :     0.000007
      f-3     :     0.000019
      g0      :     0.000000  g :     0.000001
      g+1     :     0.000000
      g-1     :     0.000000
      g+2     :     0.000000
      g-2     :     0.000000
      g+3     :     0.000000
      g-3     :     0.000000
      g+4     :     0.000001
      g-4     :     0.000000

SPIN
  0 Sis       :    -0.000177  s :    -0.000177
      pz      :     0.999756  p :     1.999949
      px      :     0.578151
      py      :     0.422041
      dz2     :     0.000044  d :     0.000178
      dxz     :     0.000000
      dyz     :     0.000000
      dx2y2   :     0.000003
      dxy     :     0.000130
      f0      :     0.000010  f :     0.000051
      f+1     :     0.000001
      f-1     :     0.000001
      f+2     :     0.000000
      f-2     :     0.000016
      f+3     :     0.000006
      f-3     :     0.000018
      g0      :    -0.000000  g :    -0.000001
      g+1     :    -0.000000
      g-1     :    -0.000000
      g+2     :    -0.000000
      g-2     :    -0.000000
      g+3     :    -0.000000
      g-3     :    -0.000000
      g+4     :    -0.000000
      g-4     :    -0.000000


                      *****************************
                      * MAYER POPULATION ANALYSIS *
                      *****************************

  NA   - Mulliken gross atomic population
  ZA   - Total nuclear charge
  QA   - Mulliken gross atomic charge
  VA   - Mayer's total valence
  BVA  - Mayer's bonded valence
  FA   - Mayer's free valence

  ATOM       NA         ZA         QA         VA         BVA        FA
  0 Si    14.0000    14.0000    -0.0000     2.0313     0.0000     2.0313

  Mayer bond orders larger than 0.100000


-------
TIMINGS
-------

Total SCF time: 0 days 0 hours 0 min 4 sec 

Total time                  ....       4.421 sec
Sum of individual times     ....       4.154 sec  ( 93.9%)

Fock matrix formation       ....       3.895 sec  ( 88.1%)
Diagonalization             ....       0.045 sec  (  1.0%)
Density matrix formation    ....       0.005 sec  (  0.1%)
Population analysis         ....       0.030 sec  (  0.7%)
Initial guess               ....       0.107 sec  (  2.4%)
Orbital Transformation      ....       0.000 sec  (  0.0%)
Orbital Orthonormalization  ....       0.000 sec  (  0.0%)
DIIS solution               ....       0.056 sec  (  1.3%)


           ************************************************************
           *        Program running with 6 parallel MPI-processes     *
           *              working on a common directory               *
           ************************************************************


------------------------------------------------------------------------------- 
                              ORCA-MATRIX DRIVEN CI                            
------------------------------------------------------------------------------- 

--------------------------------
AUTOMATIC CHOICE OF INCORE LEVEL
--------------------------------

Memory available                           ...   2500.00 MB
Memory needed for S+T                      ...      0.90 MB
Memory needed for J+K                      ...      1.81 MB
Memory needed for DIIS                     ...     12.61 MB
Memory needed for 3-ext                    ...     12.16 MB
Memory needed for 4-ext                    ...    166.24 MB
Memory needed for triples                  ...     20.27 MB
 -> Final InCoreLevel    ... 5
 -> check shows that triples correction can be computed


Wavefunction type
-----------------
Correlation treatment                      ...      CCSD     
Single excitations                         ... ON
Orbital optimization                       ... OFF
Calculation of Z vector                    ... OFF
Calculation of Brueckner orbitals          ... OFF
Perturbative triple excitations            ... ON
Calculation of F12 correction              ... OFF
Frozen core treatment                      ... chemical core (10 el)
Reference Wavefunction                     ... UHF
  Alpha-MOs occ    :     5 ...    7 (  3 MO's/  3 electrons)
  Beta-MOs occ     :     5 ...    5 (  1 MO's/  1 electrons)
  Alpha-MOs virt   :     8 ...   88 ( 81 MO's              )
  Beta-MOs virt    :     6 ...   88 ( 83 MO's              )
Number of AO's                             ...     89
Number of electrons                        ...     14
Number of correlated electrons             ...      4

Algorithmic settings
--------------------
Integral transformation                    ... AO direct full transformation
K(C) Formation                             ... FULL-MO TRAFO
Maximum number of iterations               ...        50
Convergence tolerance (max. residuum)      ... 1.000e-05
Level shift for amplitude update           ... 2.000e-01
Maximum number of DIIS vectors             ...         7
DIIS turned on at iteration                ...         0
Damping before turning on DIIS             ...     0.500
Damping after turning on DIIS              ...     0.000
Pair specific amplitude update             ... OFF
Natural orbital iterations                 ... OFF
Perturbative natural orbital generation    ... OFF
Printlevel                                 ... 2

Memory handling:
----------------
Maximum memory for working arrays          ...   2500 MB
Data storage in matrix containers          ... UNCOMPRESSED
Data type for integral storage             ... DOUBLE
In-Core Storage of quantities:
   Amplitudes+Sigma Vector      ... YES
   J+K operators                ... YES
   DIIS vectors                 ... YES
   3-external integrals         ... YES
   4-external integrals         ... YES


Initializing the integral package          ... done
Warning: reference  - re-canonicalizations have been set to INT 1 VIRT 1

--------------------------
UNRESTRICTED FOCK OPERATOR
--------------------------

<ss|ss>:          406 b            0 skpd (  0.0%)    0.006 s ( 0.014 ms/b)
<ss|sp>:         1176 b            0 skpd (  0.0%)    0.024 s ( 0.020 ms/b)
<ss|sd>:          980 b            0 skpd (  0.0%)    0.004 s ( 0.004 ms/b)
<ss|sf>:          588 b            0 skpd (  0.0%)    0.003 s ( 0.006 ms/b)
<ss|sg>:          392 b            0 skpd (  0.0%)    0.003 s ( 0.007 ms/b)
<ss|pp>:          588 b            0 skpd (  0.0%)    0.011 s ( 0.019 ms/b)
<ss|pd>:          840 b            0 skpd (  0.0%)    0.003 s ( 0.004 ms/b)
<ss|pf>:          504 b            0 skpd (  0.0%)    0.003 s ( 0.007 ms/b)
<ss|pg>:          336 b            0 skpd (  0.0%)    0.003 s ( 0.008 ms/b)
<ss|dd>:          420 b            0 skpd (  0.0%)    0.001 s ( 0.002 ms/b)
<ss|df>:          420 b            0 skpd (  0.0%)    0.001 s ( 0.002 ms/b)
<ss|dg>:          280 b            0 skpd (  0.0%)    0.001 s ( 0.004 ms/b)
<ss|ff>:          168 b            0 skpd (  0.0%)    0.001 s ( 0.003 ms/b)
<ss|fg>:          168 b            0 skpd (  0.0%)    0.001 s ( 0.005 ms/b)
<ss|gg>:           84 b            0 skpd (  0.0%)    0.001 s ( 0.013 ms/b)
<sp|sp>:          903 b            0 skpd (  0.0%)    0.012 s ( 0.014 ms/b)
<sp|sd>:         1470 b            0 skpd (  0.0%)    0.005 s ( 0.003 ms/b)
<sp|sf>:          882 b            0 skpd (  0.0%)    0.004 s ( 0.005 ms/b)
<sp|sg>:          588 b            0 skpd (  0.0%)    0.004 s ( 0.006 ms/b)
<sp|pp>:          882 b            0 skpd (  0.0%)    0.010 s ( 0.011 ms/b)
<sp|pd>:         1260 b            0 skpd (  0.0%)    0.005 s ( 0.004 ms/b)
<sp|pf>:          756 b            0 skpd (  0.0%)    0.005 s ( 0.007 ms/b)
<sp|pg>:          504 b            0 skpd (  0.0%)    0.004 s ( 0.008 ms/b)
<sp|dd>:          630 b            0 skpd (  0.0%)    0.001 s ( 0.002 ms/b)
<sp|df>:          630 b            1 skpd (  0.2%)    0.002 s ( 0.003 ms/b)
<sp|dg>:          420 b            1 skpd (  0.2%)    0.002 s ( 0.005 ms/b)
<sp|ff>:          252 b            0 skpd (  0.0%)    0.001 s ( 0.004 ms/b)
<sp|fg>:          252 b            0 skpd (  0.0%)    0.001 s ( 0.006 ms/b)
<sp|gg>:          126 b            0 skpd (  0.0%)    0.002 s ( 0.016 ms/b)
<sd|sd>:          630 b            0 skpd (  0.0%)    0.001 s ( 0.002 ms/b)
<sd|sf>:          735 b            3 skpd (  0.4%)    0.002 s ( 0.003 ms/b)
<sd|sg>:          490 b            2 skpd (  0.4%)    0.002 s ( 0.004 ms/b)
<sd|pp>:          735 b            0 skpd (  0.0%)    0.005 s ( 0.007 ms/b)
<sd|pd>:         1050 b           13 skpd (  1.2%)    0.003 s ( 0.003 ms/b)
<sd|pf>:          630 b            5 skpd (  0.8%)    0.003 s ( 0.005 ms/b)
<sd|pg>:          420 b           14 skpd (  3.3%)    0.003 s ( 0.007 ms/b)
<sd|dd>:          525 b            1 skpd (  0.2%)    0.001 s ( 0.002 ms/b)
<sd|df>:          525 b            7 skpd (  1.3%)    0.002 s ( 0.003 ms/b)
<sd|dg>:          350 b            4 skpd (  1.1%)    0.002 s ( 0.005 ms/b)
<sd|ff>:          210 b            1 skpd (  0.5%)    0.001 s ( 0.005 ms/b)
<sd|fg>:          210 b            3 skpd (  1.4%)    0.001 s ( 0.007 ms/b)
<sd|gg>:          105 b            0 skpd (  0.0%)    0.002 s ( 0.018 ms/b)
<sf|sf>:          231 b            2 skpd (  0.9%)    0.002 s ( 0.007 ms/b)
<sf|sg>:          294 b            4 skpd (  1.4%)    0.002 s ( 0.008 ms/b)
<sf|pp>:          441 b            0 skpd (  0.0%)    0.006 s ( 0.015 ms/b)
<sf|pd>:          630 b           10 skpd (  1.6%)    0.004 s ( 0.006 ms/b)
<sf|pf>:          378 b            6 skpd (  1.6%)    0.004 s ( 0.010 ms/b)
<sf|pg>:          252 b            7 skpd (  2.8%)    0.004 s ( 0.015 ms/b)
<sf|dd>:          315 b            5 skpd (  1.6%)    0.001 s ( 0.004 ms/b)
<sf|df>:          315 b           13 skpd (  4.1%)    0.002 s ( 0.007 ms/b)
<sf|dg>:          210 b           11 skpd (  5.2%)    0.002 s ( 0.010 ms/b)
<sf|ff>:          126 b            6 skpd (  4.8%)    0.001 s ( 0.010 ms/b)
<sf|fg>:          126 b            8 skpd (  6.3%)    0.002 s ( 0.014 ms/b)
<sf|gg>:           63 b            6 skpd (  9.5%)    0.002 s ( 0.036 ms/b)
<sg|sg>:          105 b            2 skpd (  1.9%)    0.003 s ( 0.026 ms/b)
<sg|pp>:          294 b            0 skpd (  0.0%)    0.008 s ( 0.029 ms/b)
<sg|pd>:          420 b           27 skpd (  6.4%)    0.004 s ( 0.010 ms/b)
<sg|pf>:          252 b            8 skpd (  3.2%)    0.004 s ( 0.018 ms/b)
<sg|pg>:          168 b           26 skpd ( 15.5%)    0.004 s ( 0.027 ms/b)
<sg|dd>:          210 b            5 skpd (  2.4%)    0.001 s ( 0.006 ms/b)
<sg|df>:          210 b           11 skpd (  5.2%)    0.002 s ( 0.012 ms/b)
<sg|dg>:          140 b            9 skpd (  6.4%)    0.003 s ( 0.020 ms/b)
<sg|ff>:           84 b            6 skpd (  7.1%)    0.001 s ( 0.018 ms/b)
<sg|fg>:           84 b           12 skpd ( 14.3%)    0.002 s ( 0.023 ms/b)
<sg|gg>:           42 b            6 skpd ( 14.3%)    0.003 s ( 0.071 ms/b)
<pp|pp>:          231 b            0 skpd (  0.0%)    0.005 s ( 0.022 ms/b)
<pp|pd>:          630 b            0 skpd (  0.0%)    0.004 s ( 0.006 ms/b)
<pp|pf>:          378 b            0 skpd (  0.0%)    0.004 s ( 0.011 ms/b)
<pp|pg>:          252 b            0 skpd (  0.0%)    0.004 s ( 0.015 ms/b)
<pp|dd>:          315 b            0 skpd (  0.0%)    0.001 s ( 0.004 ms/b)
<pp|df>:          315 b            0 skpd (  0.0%)    0.002 s ( 0.007 ms/b)
<pp|dg>:          210 b            0 skpd (  0.0%)    0.002 s ( 0.010 ms/b)
<pp|ff>:          126 b            0 skpd (  0.0%)    0.001 s ( 0.009 ms/b)
<pp|fg>:          126 b            0 skpd (  0.0%)    0.002 s ( 0.013 ms/b)
<pp|gg>:           63 b            0 skpd (  0.0%)    0.002 s ( 0.036 ms/b)
<pd|pd>:          465 b            0 skpd (  0.0%)    0.002 s ( 0.005 ms/b)
<pd|pf>:          540 b            0 skpd (  0.0%)    0.004 s ( 0.008 ms/b)
<pd|pg>:          360 b            0 skpd (  0.0%)    0.004 s ( 0.011 ms/b)
<pd|dd>:          450 b            0 skpd (  0.0%)    0.002 s ( 0.005 ms/b)
<pd|df>:          450 b            0 skpd (  0.0%)    0.003 s ( 0.007 ms/b)
<pd|dg>:          300 b            0 skpd (  0.0%)    0.003 s ( 0.010 ms/b)
<pd|ff>:          180 b            0 skpd (  0.0%)    0.002 s ( 0.009 ms/b)
<pd|fg>:          180 b            0 skpd (  0.0%)    0.002 s ( 0.013 ms/b)
<pd|gg>:           90 b            0 skpd (  0.0%)    0.003 s ( 0.038 ms/b)
<pf|pf>:          171 b            0 skpd (  0.0%)    0.003 s ( 0.015 ms/b)
<pf|pg>:          216 b            0 skpd (  0.0%)    0.005 s ( 0.021 ms/b)
<pf|dd>:          270 b            0 skpd (  0.0%)    0.002 s ( 0.006 ms/b)
<pf|df>:          270 b            0 skpd (  0.0%)    0.003 s ( 0.012 ms/b)
<pf|dg>:          180 b            0 skpd (  0.0%)    0.003 s ( 0.017 ms/b)
<pf|ff>:          108 b            0 skpd (  0.0%)    0.002 s ( 0.018 ms/b)
<pf|fg>:          108 b            0 skpd (  0.0%)    0.003 s ( 0.025 ms/b)
<pf|gg>:           54 b            0 skpd (  0.0%)    0.004 s ( 0.066 ms/b)
<pg|pg>:           78 b            0 skpd (  0.0%)    0.005 s ( 0.058 ms/b)
<pg|dd>:          180 b            0 skpd (  0.0%)    0.002 s ( 0.011 ms/b)
<pg|df>:          180 b            0 skpd (  0.0%)    0.003 s ( 0.019 ms/b)
<pg|dg>:          120 b            2 skpd (  1.7%)    0.004 s ( 0.030 ms/b)
<pg|ff>:           72 b            0 skpd (  0.0%)    0.002 s ( 0.025 ms/b)
<pg|fg>:           72 b            0 skpd (  0.0%)    0.003 s ( 0.040 ms/b)
<pg|gg>:           36 b            0 skpd (  0.0%)    0.005 s ( 0.127 ms/b)
<dd|dd>:          120 b            0 skpd (  0.0%)    0.001 s ( 0.007 ms/b)
<dd|df>:          225 b            0 skpd (  0.0%)    0.002 s ( 0.010 ms/b)
<dd|dg>:          150 b            0 skpd (  0.0%)    0.002 s ( 0.013 ms/b)
<dd|ff>:           90 b            0 skpd (  0.0%)    0.001 s ( 0.012 ms/b)
<dd|fg>:           90 b            0 skpd (  0.0%)    0.002 s ( 0.017 ms/b)
<dd|gg>:           45 b            0 skpd (  0.0%)    0.002 s ( 0.049 ms/b)
<df|df>:          120 b            0 skpd (  0.0%)    0.002 s ( 0.017 ms/b)
<df|dg>:          150 b            0 skpd (  0.0%)    0.003 s ( 0.021 ms/b)
<df|ff>:           90 b            0 skpd (  0.0%)    0.002 s ( 0.024 ms/b)
<df|fg>:           90 b            0 skpd (  0.0%)    0.003 s ( 0.031 ms/b)
<df|gg>:           45 b            0 skpd (  0.0%)    0.004 s ( 0.083 ms/b)
<dg|dg>:           55 b            0 skpd (  0.0%)    0.002 s ( 0.040 ms/b)
<dg|ff>:           60 b            0 skpd (  0.0%)    0.002 s ( 0.027 ms/b)
<dg|fg>:           60 b            0 skpd (  0.0%)    0.003 s ( 0.044 ms/b)
<dg|gg>:           30 b            0 skpd (  0.0%)    0.005 s ( 0.158 ms/b)
<ff|ff>:           21 b            0 skpd (  0.0%)    0.001 s ( 0.051 ms/b)
<ff|fg>:           36 b            0 skpd (  0.0%)    0.002 s ( 0.052 ms/b)
<ff|gg>:           18 b            0 skpd (  0.0%)    0.003 s ( 0.143 ms/b)
<fg|fg>:           21 b            0 skpd (  0.0%)    0.003 s ( 0.130 ms/b)
<fg|gg>:           18 b            0 skpd (  0.0%)    0.005 s ( 0.258 ms/b)
<gg|gg>:            6 b            0 skpd (  0.0%)    0.004 s ( 0.665 ms/b)
Recanonicalizing the internal orbitals
Recanonicalizing the virtual orbitals
Time needed for Fock operator              ...            0.394 sec
Reference energy                           ...   -288.858464437
Warning: for UHF the TrafoType has to be JK
Warning: for UHF the K(C)-option cannot be MO but must be AOX

-------------------------------
PARTIAL EXCHANGE TRANSFORMATION
-------------------------------

Transformation type                        ... two-operators
Generation of integrals (i,mue|j,nue)      ... ON
Generation of integrals (mue,kappa|nue,tau)... ON
Generation of integrals (i,mue|a,nue)      ... ON
Dimension of the basis                     ...   89
Number of internal alpha-MOs               ...    3 (   5-   7)
Number of internal beta-MOs                ...    1 (   5-   5)
Number of external alpha-MOs               ...   81 (   8-  88)
Number of external beta-MOs                ...   83 (   6-  88)
Pair cutoff                                ... 0.000e+00 Eh
Number of AO pairs in the trafo            ... 4005
Total Number of distinct AO pairs          ... 4005
Memory devoted for trafo                   ... 2500.0 MB 
Max. Number of MO pairs treated together   ... 41368      
Number Format for Storage                  ... Double (8 Byte)
Integral package used                      ... LIBINT

Starting integral evaluation:
    ... done with AO integral generation
Closing buffer AOK[aa] ( 0.00 GB; CompressionRatio= 0.86)
Closing buffer AOK[bb] ( 0.00 GB; CompressionRatio= 0.40)
Closing buffer AOK[ab] ( 0.00 GB; CompressionRatio= 0.67)
Closing buffer AOK[ba] ( 0.00 GB; CompressionRatio= 0.67)
Collecting buffer AOK 
Closing buffer IAAO1[aa] ( 0.00 GB; CompressionRatio= 0.99)
Closing buffer IAAO1[bb] ( 0.00 GB; CompressionRatio= 0.98)
Closing buffer IAAO1[ab] ( 0.00 GB; CompressionRatio= 0.99)
Closing buffer IAAO1[ba] ( 0.00 GB; CompressionRatio= 0.98)
Closing buffer IAAO2[aa] ( 0.00 GB; CompressionRatio= 0.99)
Closing buffer IAAO2[bb] ( 0.00 GB; CompressionRatio= 0.98)
Closing buffer IAAO2[ab] ( 0.00 GB; CompressionRatio= 0.99)
Closing buffer IAAO2[ba] ( 0.00 GB; CompressionRatio= 0.98)
Collecting buffer IAAO 
Closing buffer PRQS    ( 0.03 GB; CompressionRatio= 1.00)
Collecting buffer PRQS 
Number of alpha/alpha MO pairs in trafo    ...    6
Number of beta /beta  MO pairs in trafo    ...    1
Number of alpha/ beta MO pairs in trafo    ...    3
------------------------
SORTING OF (i,mue|j,nue)
------------------------

SORTING OF ALPHA/ALPHA PAIRS
IBATCH = 1 of  1
Closing buffer KAO[aa] ( 0.00 GB; CompressionRatio= 1.00)
Collecting buffer KAO 
SORTING OF BETA /BETA  PAIRS
IBATCH = 1 of  1
Closing buffer KAO[bb] ( 0.00 GB; CompressionRatio= 1.00)
Collecting buffer KAO 
SORTING OF ALPHA/BETA  PAIRS
IBATCH = 1 of  1
Closing buffer KAO[ab] ( 0.00 GB; CompressionRatio= 0.999810665825)
Collecting buffer KAO[ab] 
------------------------
SORTING OF (i,mue|a,nue)
------------------------

Number of alpha/alpha (i,a) pairs in trafo  ...  243
Number of beta /beta  (i,a) pairs in trafo  ...   83
Number of alpha/ beta (i,a) pairs in trafo  ...  249
Number of beta /alpha (i,a) pairs in trafo  ...   81
Setting up the alpha/alpha list             ... done
Setting up the beta /beta  list             ... done
Setting up the alpha/beta  list             ... done
Setting up the beta /alpha list             ... done
    ... Now sorting (i,mue|a,nue)integrals
    ... Integrals (i,b|a,c) will be made on the fly
SORTING OF ALPHA/ALPHA PAIRS
IBATCH = 1 of  1
Closing buffer IPAQ[aa]  0.00 GB; CompressionRatio= 1.00)
SORTING OF BETA /BETA  PAIRS
IBATCH = 1 of  1
Closing buffer IPAQ[bb]( 0.00 GB; CompressionRatio= 1.00)
SORTING OF ALPHA/BETA  PAIRS (NMatSort_ab=42)
IBATCH = 1 of  1
Closing buffer IPAQ[ab]( 0.00 GB; CompressionRatio= 1.00)
SORTING OF BETA/ALPHA  PAIRS
IBATCH = 1 of  1
Closing buffer IPAQ[ba]( 0.00 GB; CompressionRatio= 1.00)
N(AO-Batches) Done                         ...     19044 
N(AO-Batches) Skipped                      ...         0 
N(IJ)-pairs Skipped                        ...         0 
TOTAL TIME for half transformation         ...     7.044 sec
AO-integral generation                     ...     0.839 sec
Half transformation                        ...     2.857 sec
K-integral sorting                         ...     0.369 sec
<ss|**>: 
------------------------------
PARTIAL COULOMB TRANSFORMATION
------------------------------

Transformation type                        ... two-operators
Dimension of the basis                     ...   89
Number of internal alpha-MOs               ...    3 (5-7)
Number of internal beta-MOs                ...    1 (5-5)
Pair cutoff                                ... 0.000e+00 Eh
Number of AO pairs included in the trafo   ... 4005
Total Number of distinct AO pairs          ... 4005
Memory devoted for trafo                   ... 2500.0 MB 
Max. Number of MO pairs treated together   ... 81817      
Max. Number of MOs treated per batch       ...  919      
Number Format for Storage                  ... Double (8 Byte)
AO-integral source                         ... DIRECT
Integral package used                      ... LIBINT

Starting integral evaluation:
        7728 b        0 skpd     0.086 s (  0.011 ms/b)
<sp|**>:        11592 b        0 skpd     0.110 s (  0.010 ms/b)
<sd|**>:         9660 b        0 skpd     0.063 s (  0.007 ms/b)
<sf|**>:         5796 b        0 skpd     0.072 s (  0.012 ms/b)
<sg|**>:         3864 b        0 skpd     0.081 s (  0.021 ms/b)
<pp|**>: <pd|**>:         5796 b        0 skpd     0.096 s (  0.017 ms/b)
        8280 b        0 skpd     0.142 s (  0.017 ms/b)
<pf|**>:         4968 b        0 skpd     0.121 s (  0.024 ms/b)
<pg|**>:         3312 b        0 skpd     0.116 s (  0.035 ms/b)
<dd|**>:         4140 b        0 skpd     0.090 s (  0.022 ms/b)
<df|**>:         4140 b        0 skpd     0.160 s (  0.039 ms/b)
<dg|**>:         2760 b        0 skpd     0.137 s (  0.050 ms/b)
<ff|**>:         1656 b        0 skpd     0.074 s (  0.045 ms/b)
<fg|**>:         1656 b        0 skpd     0.103 s (  0.062 ms/b)
<gg|**>:          828 b        0 skpd     0.099 s (  0.119 ms/b)
Closing buffer AOJ[aa] ( 0.00 GB; CompressionRatio= 0.80)
Closing buffer AOJ[bb] ( 0.00 GB; CompressionRatio= 0.00)
Collecting buffer AOJ 
    ... done with AO integral generation
Number of Alpha-MO pairs included          ...    6
Number of Beta-MO pairs included           ...    1
    ... Now sorting integrals
SORTING ALPHA/ALPHA PAIRS
IBATCH = 1 of  1
Closing buffer JAO[aa] ( 0.00 GB; CompressionRatio= 1.00)
SORTING BETA/BETA PAIRS
IBATCH = 1 of  1
Closing buffer JAO[bb] ( 0.00 GB; CompressionRatio= 1.00)
Collecting buffer JAO 
TOTAL TIME for half transformation         ...     1.594 sec
AO-integral generation                     ...     1.013 sec
Half transformation                        ...     0.540 sec
J-integral sorting                         ...     0.029 sec

-------------------------- SECOND HALF TRANSFORMATION -------------------------
Formation of (ij|kl),(ij|ka), (ij|ab)      ... ok (     0.032 sec)
Formation of (ik|jl),(ik|ja), (ia|jb)      ... ok (     0.051 sec)


-----------------------
SPIN UNRESTRICTED GUESS
-----------------------

Entering MDCI_UHF_Guess, Tailored=0
Spin-components of the MP2 energy:
EMP2(aa)=     -0.010254299
EMP2(bb)=      0.000000000
EMP2(ab)=     -0.049923126

Initial guess performed in     0.002 sec
E(0)                                       ...   -288.858464437
E(MP2)                                     ...     -0.060177425
Initial E(tot)                             ...   -288.918641862
<T|T>                                      ...      0.037590605
Number of pairs included                   ... 6

------------------------------------------------
                  UHF COUPLED CLUSTER ITERATIONS
------------------------------------------------

Number of amplitudes to be optimized       ...        30171

Iter       E(tot)           E(Corr)          Delta-E          Residual     Time      <S|S>**1/2
  0   -288.918641862     -0.060177425     -0.000000000      0.016655322    0.54      0.000000236
                           *** Turning on DIIS ***
  1   -288.928011213     -0.069546776     -0.009369351      0.009180714    0.54      0.011844531
  2   -288.934162820     -0.075698383     -0.006151607      0.002725409    0.55      0.022889515
  3   -288.934926754     -0.076462317     -0.000763935      0.000835046    0.52      0.026907283
  4   -288.935098754     -0.076634317     -0.000171999      0.000188094    0.53      0.028173406
  5   -288.935108888     -0.076644451     -0.000010134      0.000045808    0.52      0.028311407
  6   -288.935109845     -0.076645408     -0.000000957      0.000017146    0.51      0.028321908
  7   -288.935110614     -0.076646178     -0.000000769      0.000002808    0.53      0.028325425
               --- The Coupled-Cluster iterations have converged ---

----------------------
COUPLED CLUSTER ENERGY
----------------------

E(0)                                       ...   -288.858464437
E(CORR)                                    ...     -0.076646178
E(TOT)                                     ...   -288.935110614
Singles norm <S|S>**1/2                    ...      0.028325425 ( 0.025076746, 0.003248679)  
T1 diagnostic                              ...      0.014162713                              

------------------
LARGEST AMPLITUDES
------------------
   5a->  8a   5b->  6b       0.074091
   5a->  8a   5b-> 10b       0.049370
   7a-> 24a   5b->  6b       0.042871
   6a-> 25a   5b->  6b       0.042871
   5a->  8a   5b-> 18b       0.040965
   7a-> 22a   6a-> 23a       0.037844
   7a-> 23a   6a-> 22a       0.037844
   7a-> 23a   5b-> 11b       0.037212
   7a-> 22a   5b-> 12b       0.037212
   6a-> 22a   5b-> 11b       0.037212
   6a-> 23a   5b-> 12b       0.037212
   5a-> 12a   5b->  6b       0.037185
   5a-> 20a   5b->  6b       0.034948
   7a->  8a   5b-> 30b       0.030807
   6a->  8a   5b-> 31b       0.030807
   7a-> 23a   5b->  7b       0.028266

----------------------
UHF TRIPLES CORRECTION (Algorithm 1)
----------------------

Multiplier for the singles contribution    ...      1.000000000

SPIN-CASE Alpha-Alpha-Alpha:
10% done
20% done
30% done
40% done
50% done
60% done
70% done
80% done
90% done


SPIN-CASE Beta-Beta-Beta:

SPIN-CASE Alpha-Alpha-Beta:
10% done
20% done
30% done
40% done
50% done
60% done
70% done
80% done
90% done


SPIN-CASE Beta-Beta-Alpha:

Triples Correction (T)                     ...     -0.002878057
    alpha-alpha-alpha ... -0.000077274 (  2.7%)
    alpha-alpha-beta  ... -0.002800783 ( 97.3%)
    alpha-beta -beta  ...  0.000000000 ( -0.0%)
    beta -beta -beta  ...  0.000000000 ( -0.0%)
Scaling of triples based on CCSD energies (Peterson et al. Molecular Physics 113, 1551 (2015))
E(T*) = f*E(T) where f = E(F12-CCSD)/E(CCSD) 
f = CCSD (with F12)/ CCSD (without F12)    ...      1.000000000
Scaled triples correction (T)              ...     -0.002878057

Final correlation energy                   ...     -0.079524234
E(CCSD)                                    ...   -288.935110614
E(CCSD(T))                                 ...   -288.937988671



        !!!!!!!!!!!!!!!!!!!!!!!!!!!!!!!!!!!!!!!!!!!!!!!!!!!!!!!!!!!!!!!!!!!!!!!!!! 
        !  Warning: Densities are linearized densities                           !
        !!!!!!!!!!!!!!!!!!!!!!!!!!!!!!!!!!!!!!!!!!!!!!!!!!!!!!!!!!!!!!!!!!!!!!!!!! 

NORM  =      1.072851724 sqrt=     1.035785559
W(HF) =      0.932095254
------------------------------------------------------------------------------
                           ORCA POPULATION ANALYSIS
------------------------------------------------------------------------------
Input electron density              ... 14_Si.mdcip
Input spin density                  ... 14_Si.mdcir
BaseName (.gbw .S,...)              ... 14_Si

                    ********************************
                    * MULLIKEN POPULATION ANALYSIS *
                    ********************************

------------------------------------------
MULLIKEN ATOMIC CHARGES AND SPIN DENSITIES
------------------------------------------
   0 Si:   -0.000000    2.000000
Sum of atomic charges       :   -0.0000000
Sum of atomic spin densities:    2.0000000

---------------------------------------------------
MULLIKEN REDUCED ORBITAL CHARGES AND SPIN DENSITIES
---------------------------------------------------
CHARGE
  0 Sis       :     5.913840  s :     5.913840
      pz      :     2.988263  p :     8.022933
      px      :     2.590902
      py      :     2.443768
      dz2     :     0.013599  d :     0.059644
      dxz     :     0.013159
      dyz     :     0.012376
      dx2y2   :     0.010261
      dxy     :     0.010248
      f0      :     0.000605  f :     0.003260
      f+1     :     0.000597
      f-1     :     0.000533
      f+2     :     0.000434
      f-2     :     0.000472
      f+3     :     0.000310
      f-3     :     0.000309
      g0      :     0.000044  g :     0.000322
      g+1     :     0.000044
      g-1     :     0.000041
      g+2     :     0.000039
      g-2     :     0.000039
      g+3     :     0.000033
      g-3     :     0.000033
      g+4     :     0.000025
      g-4     :     0.000025

SPIN
  0 Sis       :     0.038523  s :     0.038523
      pz      :     0.963819  p :     1.923610
      px      :     0.555492
      py      :     0.404299
      dz2     :     0.010080  d :     0.036335
      dxz     :     0.009259
      dyz     :     0.007948
      dx2y2   :     0.004412
      dxy     :     0.004635
      f0      :     0.000235  f :     0.001384
      f+1     :     0.000232
      f-1     :     0.000215
      f+2     :     0.000186
      f-2     :     0.000200
      f+3     :     0.000158
      f-3     :     0.000158
      g0      :     0.000020  g :     0.000149
      g+1     :     0.000021
      g-1     :     0.000019
      g+2     :     0.000018
      g-2     :     0.000018
      g+3     :     0.000015
      g-3     :     0.000015
      g+4     :     0.000011
      g-4     :     0.000011


                     *******************************
                     * LOEWDIN POPULATION ANALYSIS *
                     *******************************

-----------------------------------------
LOEWDIN ATOMIC CHARGES AND SPIN DENSITIES
-----------------------------------------
   0 Si:   -0.000000    2.000000

--------------------------------------------------
LOEWDIN REDUCED ORBITAL CHARGES AND SPIN DENSITIES
--------------------------------------------------
CHARGE
  0 Sis       :     5.913840  s :     5.913840
      pz      :     2.988263  p :     8.022933
      px      :     2.590902
      py      :     2.443768
      dz2     :     0.013599  d :     0.059644
      dxz     :     0.013159
      dyz     :     0.012376
      dx2y2   :     0.010261
      dxy     :     0.010248
      f0      :     0.000605  f :     0.003260
      f+1     :     0.000597
      f-1     :     0.000533
      f+2     :     0.000434
      f-2     :     0.000472
      f+3     :     0.000310
      f-3     :     0.000309
      g0      :     0.000044  g :     0.000322
      g+1     :     0.000044
      g-1     :     0.000041
      g+2     :     0.000039
      g-2     :     0.000039
      g+3     :     0.000033
      g-3     :     0.000033
      g+4     :     0.000025
      g-4     :     0.000025

SPIN
  0 Sis       :     0.038523  s :     0.038523
      pz      :     0.963819  p :     1.923610
      px      :     0.555492
      py      :     0.404299
      dz2     :     0.010080  d :     0.036335
      dxz     :     0.009259
      dyz     :     0.007948
      dx2y2   :     0.004412
      dxy     :     0.004635
      f0      :     0.000235  f :     0.001384
      f+1     :     0.000232
      f-1     :     0.000215
      f+2     :     0.000186
      f-2     :     0.000200
      f+3     :     0.000158
      f-3     :     0.000158
      g0      :     0.000020  g :     0.000149
      g+1     :     0.000021
      g-1     :     0.000019
      g+2     :     0.000018
      g-2     :     0.000018
      g+3     :     0.000015
      g-3     :     0.000015
      g+4     :     0.000011
      g-4     :     0.000011


                      *****************************
                      * MAYER POPULATION ANALYSIS *
                      *****************************

  NA   - Mulliken gross atomic population
  ZA   - Total nuclear charge
  QA   - Mulliken gross atomic charge
  VA   - Mayer's total valence
  BVA  - Mayer's bonded valence
  FA   - Mayer's free valence

  ATOM       NA         ZA         QA         VA         BVA        FA
  0 Si    14.0000    14.0000    -0.0000     2.4194     0.0000     2.4194





------------------------------------------------------------------------------- 
                                     TIMINGS                                   
------------------------------------------------------------------------------- 


Total execution time                   ...       13.722 sec

Fock Matrix Formation                  ...        0.394 sec (  2.9%)
Initial Guess                          ...        0.002 sec (  0.0%)
DIIS Solver                            ...        0.013 sec (  0.1%)
State Vector Update                    ...        0.001 sec (  0.0%)
Sigma-vector construction              ...        4.214 sec ( 30.7%)
  <D|H|D>(2-ext)                       ...        0.004 sec (  0.1% of sigma)
  <D|H|D>(4-ext)                       ...        1.792 sec ( 42.5% of sigma)
  <S|H|0>                              ...        0.010 sec (  0.2% of sigma)
  <D|H|S>(1-ext)                       ...        0.003 sec (  0.1% of sigma)
  Fock-dressing                        ...        2.184 sec ( 51.8% of sigma)
  (ij|ab),(ia|jb)-dressing             ...        0.141 sec (  3.3% of sigma)
Total Time for computing (T)           ...        0.096 sec (  0.7% of ALL)
  I/O of integral and amplitudes       ...        0.035 sec ( 36.6% of (T))
  External N**7 contributions          ...        0.013 sec ( 13.9% of (T))
  Internal N**7 contributions          ...        0.004 sec (  4.1% of (T))
  N**6 triples energy contributions    ...        0.014 sec ( 14.9% of (T))


-------------------------   --------------------
FINAL SINGLE POINT ENERGY      -288.937988671212
-------------------------   --------------------


                            ***************************************
                            *     ORCA property calculations      *
                            ***************************************

                                    ---------------------
                                    Active property flags
                                    ---------------------
   (+) Dipole Moment


------------------------------------------------------------------------------
                       ORCA ELECTRIC PROPERTIES CALCULATION
------------------------------------------------------------------------------

Dipole Moment Calculation                       ... on
Quadrupole Moment Calculation                   ... off
Polarizability Calculation                      ... off
GBWName                                         ... 14_Si.gbw
Electron density file                           ... 14_Si.scfp
The origin for moment calculation is the CENTER OF MASS  = ( 0.000000,  0.000000  0.000000)

-------------
DIPOLE MOMENT
-------------
                                X             Y             Z
Electronic contribution:      0.00000       0.00000      -0.00000
Nuclear contribution   :      0.00000       0.00000       0.00000
                        -----------------------------------------
Total Dipole Moment    :      0.00000       0.00000      -0.00000
                        -----------------------------------------
Magnitude (a.u.)       :      0.00000
Magnitude (Debye)      :      0.00000



--------------------
Rotational spectrum 
--------------------
 
Rotational constants in cm-1:     0.000000     0.000000     0.000000 
Rotational constants in MHz :     0.000000     0.000000     0.000000 

 Dipole components along the rotational axes: 
x,y,z [a.u.] :     0.000000     0.000000    -0.000000 
x,y,z [Debye]:     0.000000     0.000000    -0.000000 

 

                           *** MDCI DENSITY ***

------------------------------------------------------------------------------
                       ORCA ELECTRIC PROPERTIES CALCULATION
------------------------------------------------------------------------------

Dipole Moment Calculation                       ... on
Quadrupole Moment Calculation                   ... off
Polarizability Calculation                      ... off
GBWName                                         ... 14_Si.gbw
Electron density file                           ... 14_Si.mdcip
The origin for moment calculation is the CENTER OF MASS  = ( 0.000000,  0.000000  0.000000)

-------------
DIPOLE MOMENT
-------------
                                X             Y             Z
Electronic contribution:      0.00000       0.00000      -0.00000
Nuclear contribution   :      0.00000       0.00000       0.00000
                        -----------------------------------------
Total Dipole Moment    :      0.00000       0.00000      -0.00000
                        -----------------------------------------
Magnitude (a.u.)       :      0.00000
Magnitude (Debye)      :      0.00000



--------------------
Rotational spectrum 
--------------------
 
Rotational constants in cm-1:     0.000000     0.000000     0.000000 
Rotational constants in MHz :     0.000000     0.000000     0.000000 

 Dipole components along the rotational axes: 
x,y,z [a.u.] :     0.000000     0.000000    -0.000000 
x,y,z [Debye]:     0.000000     0.000000    -0.000000 

 

Timings for individual modules:

Sum of individual times         ...       19.581 sec (=   0.326 min)
GTO integral calculation        ...        0.609 sec (=   0.010 min)   3.1 %
SCF iterations                  ...        4.713 sec (=   0.079 min)  24.1 %
MDCI module                     ...       14.258 sec (=   0.238 min)  72.8 %
                             ****ORCA TERMINATED NORMALLY****
TOTAL RUN TIME: 0 days 0 hours 0 minutes 20 seconds 188 msec
