
                                 *****************
                                 * O   R   C   A *
                                 *****************

           --- An Ab Initio, DFT and Semiempirical electronic structure package ---

                  #######################################################
                  #                        -***-                        #
                  #          Department of theory and spectroscopy      #
                  #               Directorship: Frank Neese             #
                  #        Max Planck Institute fuer Kohlenforschung    #
                  #                Kaiser Wilhelm Platz 1               #
                  #                 D-45470 Muelheim/Ruhr               #
                  #                      Germany                        #
                  #                                                     #
                  #                  All rights reserved                #
                  #                        -***-                        #
                  #######################################################


                         Program Version 4.2.0 -  RELEASE  -


 With contributions from (in alphabetic order):
   Daniel Aravena         : Magnetic Suceptibility
   Michael Atanasov       : Ab Initio Ligand Field Theory (pilot matlab implementation)
   Alexander A. Auer      : GIAO ZORA, VPT2
   Ute Becker             : Parallelization
   Giovanni Bistoni       : ED, misc. LED, open-shell LED, HFLED
   Martin Brehm           : Molecular dynamics
   Dmytro Bykov           : SCF Hessian
   Vijay G. Chilkuri      : MRCI spin determinant printing, contributions to CSF-ICE
   Dipayan Datta          : RHF DLPNO-CCSD density
   Achintya Kumar Dutta   : EOM-CC, STEOM-CC
   Dmitry Ganyushin       : Spin-Orbit,Spin-Spin,Magnetic field MRCI
   Miquel Garcia          : C-PCM Hessian, Gaussian charge scheme
   Yang Guo               : DLPNO-NEVPT2, CIM, IAO-localization
   Andreas Hansen         : Spin unrestricted coupled pair/coupled cluster methods
   Benjamin Helmich-Paris : CASSCF linear response (MC-RPA)
   Lee Huntington         : MR-EOM, pCC
   Robert Izsak           : Overlap fitted RIJCOSX, COSX-SCS-MP3, EOM
   Christian Kollmar      : KDIIS, OOCD, Brueckner-CCSD(T), CCSD density
   Simone Kossmann        : Meta GGA functionals, TD-DFT gradient, OOMP2, MP2 Hessian
   Martin Krupicka        : AUTO-CI
   Lucas Lang             : DCDCAS
   Dagmar Lenk            : GEPOL surface, SMD
   Dimitrios Liakos       : Extrapolation schemes; Compound Job, initial MDCI parallelization
   Dimitrios Manganas     : Further ROCIS development; embedding schemes
   Dimitrios Pantazis     : SARC Basis sets
   Taras Petrenko         : DFT Hessian,TD-DFT gradient, ASA, ECA, R-Raman, ABS, FL, XAS/XES, NRVS
   Peter Pinski           : DLPNO-MP2, DLPNO-MP2 Gradient
   Christoph Reimann      : Effective Core Potentials
   Marius Retegan         : Local ZFS, SOC
   Christoph Riplinger    : Optimizer, TS searches, QM/MM, DLPNO-CCSD(T), (RO)-DLPNO pert. Triples
   Tobias Risthaus        : Range-separated hybrids, TD-DFT gradient, RPA, STAB
   Michael Roemelt        : Original ROCIS implementation
   Masaaki Saitow         : Open-shell DLPNO-CCSD energy and density
   Barbara Sandhoefer     : DKH picture change effects
   Avijit Sen             : IP-ROCIS
   Kantharuban Sivalingam : CASSCF convergence, NEVPT2, FIC-MRCI
   Bernardo de Souza      : ESD, SOC TD-DFT
   Georgi Stoychev        : AutoAux, RI-MP2 NMR
   Willem Van den Heuvel  : Paramagnetic NMR
   Boris Wezisla          : Elementary symmetry handling
   Frank Wennmohs         : Technical directorship


 We gratefully acknowledge several colleagues who have allowed us to
 interface, adapt or use parts of their codes:
   Stefan Grimme, W. Hujo, H. Kruse,             : VdW corrections, initial TS optimization,
                  C. Bannwarth                     DFT functionals, gCP, sTDA/sTD-DF
   Ed Valeev, F. Pavosevic, A. Kumar             : LibInt (2-el integral package), F12 methods
   Garnet Chan, S. Sharma, J. Yang, R. Olivares  : DMRG
   Ulf Ekstrom                                   : XCFun DFT Library
   Mihaly Kallay                                 : mrcc  (arbitrary order and MRCC methods)
   Andreas Klamt, Michael Diedenhofen            : otool_cosmo (COSMO solvation model)
   Jiri Pittner, Ondrej Demel                    : Mk-CCSD
   Frank Weinhold                                : gennbo (NPA and NBO analysis)
   Christopher J. Cramer and Donald G. Truhlar   : smd solvation model
   Lars Goerigk                                  : TD-DFT with DH, B97 family of functionals
   V. Asgeirsson, H. Jonsson                     : NEB implementation
   FAccTs GmbH                                   : IRC, NEB, NEB-TS, Multilevel, MM, QM/MM, CI optimization
   S Lehtola, MJT Oliveira, MAL Marques          : LibXC Library


 Your calculation uses the libint2 library for the computation of 2-el integrals
 For citations please refer to: http://libint.valeyev.net

 Your ORCA version has been built with support for libXC version: 4.2.3
 For citations please refer to: https://tddft.org/programs/libxc/

 This ORCA versions uses:
   CBLAS   interface :  Fast vector & matrix operations
   LAPACKE interface :  Fast linear algebra routines
   SCALAPACK package :  Parallel linear algebra routines


----- Orbital basis set information -----
Your calculation utilizes the basis: aug-cc-pV(Q+d)Z 
             Al - Ar: T.H. Dunning, Jr., K. A. Peterson and A. K. Wilson, J. Chem. Phys.
                      114, 9244 (2001)

================================================================================
                                        WARNINGS
                       Please study these warnings very carefully!
================================================================================


WARNING: your system is open-shell and RHF/RKS was chosen
  ===> : WILL SWITCH to UHF/UKS


WARNING: MDCI localization with Augmented Hessian Foster-Boys
  ===> : Switching off randomization!

WARNING: Post HF methods need fully converged wavefunctions
  ===> : Setting SCFConvForced true
         You can overwrite this default with %scf ConvForced false 


INFO   : the flag for use of LIBINT has been found!

================================================================================
                                       INPUT FILE
================================================================================
NAME = 34_Se.in
|  1> #
|  2> # 34_Se CCSD(T)/aug-cc-pvq(+d)z
|  3> #
|  4> ! CCSD(T) aug-cc-pvq(+d)z tightscf
|  5> 
|  6> *xyz 0 3
|  7>  Se 0.0 0.0 0.0
|  8> *
|  9> 
| 10> %maxcore 5000 
| 11> 
| 12> %pal
| 13> nprocs 24
| 14> end
| 15> 
| 16> 
| 17>                          ****END OF INPUT****
================================================================================

                       ****************************
                       * Single Point Calculation *
                       ****************************

---------------------------------
CARTESIAN COORDINATES (ANGSTROEM)
---------------------------------
  Se     0.000000    0.000000    0.000000

----------------------------
CARTESIAN COORDINATES (A.U.)
----------------------------
  NO LB      ZA    FRAG     MASS         X           Y           Z
   0 Se   34.0000    0    78.960    0.000000    0.000000    0.000000

--------------------------------
INTERNAL COORDINATES (ANGSTROEM)
--------------------------------
 Se     0   0   0     0.000000000000     0.00000000     0.00000000

---------------------------
INTERNAL COORDINATES (A.U.)
---------------------------
 Se     0   0   0     0.000000000000     0.00000000     0.00000000

---------------------
BASIS SET INFORMATION
---------------------
There are 1 groups of distinct atoms

 Group   1 Type Se  : 76s43p13d3f2g contracted to 8s7p5d3f2g pattern {181818181111/1313131111/91111/111/11}

Atom   0Se   basis set group =>   1


           ************************************************************
           *        Program running with 24 parallel MPI-processes    *
           *              working on a common directory               *
           ************************************************************
------------------------------------------------------------------------------
                           ORCA GTO INTEGRAL CALCULATION
------------------------------------------------------------------------------

                         BASIS SET STATISTICS AND STARTUP INFO

 # of primitive gaussian shells          ...  137
 # of primitive gaussian functions       ...  309
 # of contracted shells                  ...   25
 # of contracted basis functions         ...   93
 Highest angular momentum                ...    4
 Maximum contraction depth               ...   18
 Integral package used                   ... LIBINT
 Integral threshhold            Thresh   ...  2.500e-11
 Primitive cut-off              TCut     ...  2.500e-12


------------------------------ INTEGRAL EVALUATION ----------------------------


 * One electron integrals 
 Pre-screening matrix                    ... done
 Shell pair data                         ... done (   0.000 sec)



           ************************************************************
           *        Program running with 24 parallel MPI-processes    *
           *              working on a common directory               *
           ************************************************************
-------------------------------------------------------------------------------
                                 ORCA SCF
-------------------------------------------------------------------------------

------------
SCF SETTINGS
------------
Hamiltonian:
 Ab initio Hamiltonian  Method          .... Hartree-Fock(GTOs)


General Settings:
 Integral files         IntName         .... 34_Se
 Hartree-Fock type      HFTyp           .... UHF
 Total Charge           Charge          ....    0
 Multiplicity           Mult            ....    3
 Number of Electrons    NEL             ....   34
 Basis Dimension        Dim             ....   93
 Nuclear Repulsion      ENuc            ....      0.0000000000 Eh

Convergence Acceleration:
 DIIS                   CNVDIIS         .... on
   Start iteration      DIISMaxIt       ....    12
   Startup error        DIISStart       ....  0.200000
   # of expansion vecs  DIISMaxEq       ....     5
   Bias factor          DIISBfac        ....   1.050
   Max. coefficient     DIISMaxC        ....  10.000
 Newton-Raphson         CNVNR           .... off
 SOSCF                  CNVSOSCF        .... off
 Level Shifting         CNVShift        .... on
   Level shift para.    LevelShift      ....    0.2500
   Turn off err/grad.   ShiftErr        ....    0.0010
 Zerner damping         CNVZerner       .... off
 Static damping         CNVDamp         .... on
   Fraction old density DampFac         ....    0.7000
   Max. Damping (<1)    DampMax         ....    0.9800
   Min. Damping (>=0)   DampMin         ....    0.0000
   Turn off err/grad.   DampErr         ....    0.1000
 Fernandez-Rico         CNVRico         .... off

SCF Procedure:
 Maximum # iterations   MaxIter         ....   125
 SCF integral mode      SCFMode         .... Direct
   Integral package                     .... LIBINT
 Reset frequency        DirectResetFreq ....    20
 Integral Threshold     Thresh          ....  2.500e-11 Eh
 Primitive CutOff       TCut            ....  2.500e-12 Eh

Convergence Tolerance:
 Convergence Check Mode ConvCheckMode   .... Total+1el-Energy
 Convergence forced     ConvForced      .... 1
 Energy Change          TolE            ....  1.000e-08 Eh
 1-El. energy change                    ....  1.000e-05 Eh
 DIIS Error             TolErr          ....  5.000e-07


Diagonalization of the overlap matrix:
Smallest eigenvalue                        ... 6.409e-04
Time for diagonalization                   ...    0.018 sec
Threshold for overlap eigenvalues          ... 1.000e-08
Number of eigenvalues below threshold      ... 0
Time for construction of square roots      ...    0.008 sec
Total time needed                          ...    0.026 sec

-------------------
DFT GRID GENERATION
-------------------

General Integration Accuracy     IntAcc      ...  4.340
Radial Grid Type                 RadialGrid  ... Gauss-Chebyshev
Angular Grid (max. acc.)         AngularGrid ... Lebedev-110
Angular grid pruning method      GridPruning ... 3 (G Style)
Weight generation scheme         WeightScheme... Becke
Basis function cutoff            BFCut       ...    1.0000e-11
Integration weight cutoff        WCut        ...    1.0000e-14
Grids for H and He will be reduced by one unit

# of grid points (after initial pruning)     ...   2950 (   0.0 sec)
# of grid points (after weights+screening)   ...   2950 (   0.0 sec)
Grid point division into batches done        ...    0.0 sec
Reduced shell lists constructed in    0.0 sec

Total number of grid points                  ...     2950
Total number of batches                      ...       47
Average number of points per batch           ...       62
Average number of grid points per atom       ...     2950
Average number of shells per batch           ...    12.00 (48.00%)
Average number of basis functions per batch  ...    52.00 (55.91%)
Average number of large shells per batch     ...    10.67 (88.89%)
Average number of large basis fcns per batch ...    46.67 (89.74%)
Maximum spatial batch extension              ...  14.66, 21.55, 21.55 au
Average spatial batch extension              ...   0.62,  0.92,  0.92 au

Time for grid setup =    0.017 sec

------------------------------
INITIAL GUESS: MODEL POTENTIAL
------------------------------
Loading Hartree-Fock densities                     ... done
Calculating cut-offs                               ... done
Setting up the integral package                    ... done
Initializing the effective Hamiltonian             ... done
Starting the Coulomb interaction                   ... done (   0.0 sec)
Reading the grid                                   ... done
Mapping shells                                     ... done
Starting the XC term evaluation                    ... done (   0.0 sec)
Transforming the Hamiltonian                       ... done (   0.0 sec)
Diagonalizing the Hamiltonian                      ... done (   0.0 sec)
Back transforming the eigenvectors                 ... done (   0.0 sec)
Now organizing SCF variables                       ... done
                      ------------------
                      INITIAL GUESS DONE (   0.1 sec)
                      ------------------
--------------
SCF ITERATIONS
--------------
ITER       Energy         Delta-E        Max-DP      RMS-DP      [F,P]     Damp
               ***  Starting incremental Fock matrix formation  ***
  0  -2399.8353621837   0.000000000000 0.06279874  0.00149147  0.1843057 0.7000
  1  -2399.8475005857  -0.012138401992 0.03770009  0.00098483  0.1112944 0.7000
                               ***Turning on DIIS***
  2  -2399.8554886836  -0.007988097903 0.07688772  0.00216271  0.0658152 0.0000
  3  -2399.9931951969  -0.137706513316 0.02887740  0.00062274  0.0214284 0.0000
  4  -2399.8208798814   0.172315315492 0.00385992  0.00012157  0.0062326 0.0000
  5  -2399.8828040539  -0.061924172479 0.00229448  0.00005126  0.0015175 0.0000
  6  -2399.8782244622   0.004579591670 0.00127289  0.00002905  0.0006695 0.0000
  7  -2399.8754005906   0.002823871652 0.00016627  0.00000550  0.0001137 0.0000
  8  -2399.8751354133   0.000265177317 0.00005486  0.00000179  0.0000284 0.0000
  9  -2399.8751712127  -0.000035799409 0.00002071  0.00000062  0.0000051 0.0000
 10  -2399.8751555120   0.000015700710 0.00000715  0.00000021  0.0000011 0.0000
                            ***DIIS convergence achieved***

               *****************************************************
               *                     SUCCESS                       *
               *           SCF CONVERGED AFTER  11 CYCLES          *
               *****************************************************


----------------
TOTAL SCF ENERGY
----------------

Total Energy       :        -2399.87516146 Eh          -65303.92313 eV

Components:
Nuclear Repulsion  :            0.00000000 Eh               0.00000 eV
Electronic Energy  :        -2399.87516146 Eh          -65303.92313 eV
One Electron Energy:        -3343.43491067 Eh          -90979.48923 eV
Two Electron Energy:          943.55974921 Eh           25675.56610 eV

Virial components:
Potential Energy   :        -4799.75156751 Eh         -130607.88013 eV
Kinetic Energy     :         2399.87640605 Eh           65303.95700 eV
Virial Ratio       :            1.99999948


---------------
SCF CONVERGENCE
---------------

  Last Energy change         ...   -5.9522e-06  Tolerance :   1.0000e-08
  Last MAX-Density change    ...    4.0085e-06  Tolerance :   1.0000e-07
  Last RMS-Density change    ...    1.1563e-07  Tolerance :   5.0000e-09
  Last DIIS Error            ...    4.1526e-07  Tolerance :   5.0000e-07

             **** THE GBW FILE WAS UPDATED (34_Se.gbw) ****
             **** DENSITY FILE WAS UPDATED (34_Se.scfp) ****
             **** ENERGY FILE WAS UPDATED (34_Se.en.tmp) ****
----------------------
UHF SPIN CONTAMINATION
----------------------

Expectation value of <S**2>     :     2.011693
Ideal value S*(S+1) for S=1.0   :     2.000000
Deviation                       :     0.011693

             **** THE GBW FILE WAS UPDATED (34_Se.gbw) ****
             **** DENSITY FILE WAS UPDATED (34_Se.scfp) ****
----------------
ORBITAL ENERGIES
----------------
                 SPIN UP ORBITALS
  NO   OCC          E(Eh)            E(eV) 
   0   1.0000    -460.870365    -12540.9202 
   1   1.0000     -60.670062     -1650.9163 
   2   1.0000     -54.274135     -1476.8743 
   3   1.0000     -54.274135     -1476.8743 
   4   1.0000     -54.268081     -1476.7096 
   5   1.0000      -8.938280      -243.2230 
   6   1.0000      -6.676764      -181.6840 
   7   1.0000      -6.676764      -181.6840 
   8   1.0000      -6.656850      -181.1421 
   9   1.0000      -2.663065       -72.4657 
  10   1.0000      -2.663065       -72.4657 
  11   1.0000      -2.649024       -72.0836 
  12   1.0000      -2.649024       -72.0836 
  13   1.0000      -2.644435       -71.9587 
  14   1.0000      -0.936575       -25.4855 
  15   1.0000      -0.448152       -12.1948 
  16   1.0000      -0.448152       -12.1948 
  17   1.0000      -0.384417       -10.4605 
  18   0.0000       0.064160         1.7459 
  19   0.0000       0.064160         1.7459 
  20   0.0000       0.069050         1.8790 
  21   0.0000       0.069594         1.8937 
  22   0.0000       0.160245         4.3605 
  23   0.0000       0.160245         4.3605 
  24   0.0000       0.170196         4.6313 
  25   0.0000       0.170196         4.6313 
  26   0.0000       0.174080         4.7369 
  27   0.0000       0.302897         8.2423 
  28   0.0000       0.302897         8.2423 
  29   0.0000       0.321968         8.7612 
  30   0.0000       0.423877        11.5343 
  31   0.0000       0.427582        11.6351 
  32   0.0000       0.427582        11.6351 
  33   0.0000       0.452790        12.3210 
  34   0.0000       0.452790        12.3210 
  35   0.0000       0.464268        12.6334 
  36   0.0000       0.467199        12.7131 
  37   0.0000       0.467199        12.7131 
  38   0.0000       0.477515        12.9938 
  39   0.0000       0.477515        12.9938 
  40   0.0000       0.484107        13.1732 
  41   0.0000       0.484107        13.1732 
  42   0.0000       0.486403        13.2357 
  43   0.0000       1.089220        29.6392 
  44   0.0000       1.089220        29.6392 
  45   0.0000       1.126654        30.6578 
  46   0.0000       1.199646        32.6440 
  47   0.0000       1.199646        32.6440 
  48   0.0000       1.226969        33.3875 
  49   0.0000       1.226969        33.3875 
  50   0.0000       1.230987        33.4969 
  51   0.0000       1.230987        33.4969 
  52   0.0000       1.242664        33.8146 
  53   0.0000       1.248828        33.9823 
  54   0.0000       1.248828        33.9823 
  55   0.0000       1.251270        34.0488 
  56   0.0000       1.251270        34.0488 
  57   0.0000       1.263374        34.3781 
  58   0.0000       1.263374        34.3781 
  59   0.0000       1.266725        34.4693 
  60   0.0000       1.266725        34.4693 
  61   0.0000       1.272093        34.6154 
  62   0.0000       1.274149        34.6714 
  63   0.0000       1.274149        34.6714 
  64   0.0000       1.280787        34.8520 
  65   0.0000       1.280787        34.8520 
  66   0.0000       1.283032        34.9131 
  67   0.0000       1.722672        46.8763 
  68   0.0000       2.820810        76.7582 
  69   0.0000       2.820810        76.7582 
  70   0.0000       2.848090        77.5005 
  71   0.0000       2.848090        77.5005 
  72   0.0000       2.865094        77.9632 
  73   0.0000       2.865094        77.9632 
  74   0.0000       2.870890        78.1209 
  75   0.0000       3.147169        85.6388 
  76   0.0000       3.147169        85.6388 
  77   0.0000       3.170534        86.2746 
  78   0.0000       3.170534        86.2746 
  79   0.0000       3.187699        86.7417 
  80   0.0000       3.187699        86.7417 
  81   0.0000       3.198203        87.0275 
  82   0.0000       3.198203        87.0275 
  83   0.0000       3.201740        87.1238 
  84   0.0000       3.352857        91.2359 
  85   0.0000       3.352857        91.2359 
  86   0.0000       3.381779        92.0229 
  87   0.0000       3.381779        92.0229 
  88   0.0000       3.392223        92.3071 
  89   0.0000       3.558387        96.8286 
  90   0.0000       3.558387        96.8286 
  91   0.0000       3.600996        97.9881 
  92   0.0000      10.852193       295.3032 

                 SPIN DOWN ORBITALS
  NO   OCC          E(Eh)            E(eV) 
   0   1.0000    -460.863659    -12540.7377 
   1   1.0000     -60.667073     -1650.8350 
   2   1.0000     -54.266335     -1476.6621 
   3   1.0000     -54.264404     -1476.6095 
   4   1.0000     -54.264404     -1476.6095 
   5   1.0000      -8.925280      -242.8692 
   6   1.0000      -6.654148      -181.0686 
   7   1.0000      -6.651426      -180.9945 
   8   1.0000      -6.651426      -180.9945 
   9   1.0000      -2.649999       -72.1101 
  10   1.0000      -2.649999       -72.1101 
  11   1.0000      -2.642409       -71.9036 
  12   1.0000      -2.642409       -71.9036 
  13   1.0000      -2.640012       -71.8384 
  14   1.0000      -0.741990       -20.1906 
  15   1.0000      -0.349092        -9.4993 
  16   0.0000      -0.006278        -0.1708 
  17   0.0000      -0.006278        -0.1708 
  18   0.0000       0.070536         1.9194 
  19   0.0000       0.076428         2.0797 
  20   0.0000       0.080129         2.1804 
  21   0.0000       0.080129         2.1804 
  22   0.0000       0.179121         4.8741 
  23   0.0000       0.179121         4.8741 
  24   0.0000       0.179534         4.8854 
  25   0.0000       0.179534         4.8854 
  26   0.0000       0.179886         4.8950 
  27   0.0000       0.327832         8.9208 
  28   0.0000       0.345514         9.4019 
  29   0.0000       0.345514         9.4019 
  30   0.0000       0.451295        12.2804 
  31   0.0000       0.481615        13.1054 
  32   0.0000       0.481615        13.1054 
  33   0.0000       0.486849        13.2478 
  34   0.0000       0.486849        13.2478 
  35   0.0000       0.490073        13.3356 
  36   0.0000       0.490073        13.3356 
  37   0.0000       0.491119        13.3640 
  38   0.0000       0.493324        13.4240 
  39   0.0000       0.497033        13.5250 
  40   0.0000       0.497033        13.5250 
  41   0.0000       0.510860        13.9012 
  42   0.0000       0.510860        13.9012 
  43   0.0000       1.138515        30.9806 
  44   0.0000       1.146080        31.1864 
  45   0.0000       1.146080        31.1864 
  46   0.0000       1.271884        34.6097 
  47   0.0000       1.272388        34.6235 
  48   0.0000       1.272388        34.6235 
  49   0.0000       1.273452        34.6524 
  50   0.0000       1.273452        34.6524 
  51   0.0000       1.278734        34.7961 
  52   0.0000       1.278734        34.7961 
  53   0.0000       1.280848        34.8537 
  54   0.0000       1.280848        34.8537 
  55   0.0000       1.286988        35.0207 
  56   0.0000       1.286988        35.0207 
  57   0.0000       1.287878        35.0449 
  58   0.0000       1.287878        35.0449 
  59   0.0000       1.291605        35.1464 
  60   0.0000       1.291605        35.1464 
  61   0.0000       1.291857        35.1532 
  62   0.0000       1.291857        35.1532 
  63   0.0000       1.292892        35.1814 
  64   0.0000       1.294658        35.2294 
  65   0.0000       1.294658        35.2294 
  66   0.0000       1.295557        35.2539 
  67   0.0000       1.756843        47.8061 
  68   0.0000       2.873577        78.1940 
  69   0.0000       2.873577        78.1940 
  70   0.0000       2.884225        78.4838 
  71   0.0000       2.884225        78.4838 
  72   0.0000       2.890603        78.6573 
  73   0.0000       2.890603        78.6573 
  74   0.0000       2.892724        78.7150 
  75   0.0000       3.195940        86.9660 
  76   0.0000       3.195940        86.9660 
  77   0.0000       3.207271        87.2743 
  78   0.0000       3.207271        87.2743 
  79   0.0000       3.215377        87.4949 
  80   0.0000       3.215377        87.4949 
  81   0.0000       3.220240        87.6272 
  82   0.0000       3.220240        87.6272 
  83   0.0000       3.221861        87.6713 
  84   0.0000       3.392575        92.3167 
  85   0.0000       3.392575        92.3167 
  86   0.0000       3.403826        92.6228 
  87   0.0000       3.403826        92.6228 
  88   0.0000       3.407586        92.7251 
  89   0.0000       3.600212        97.9667 
  90   0.0000       3.600212        97.9667 
  91   0.0000       3.611181        98.2652 
  92   0.0000      10.869577       295.7762 

                    ********************************
                    * MULLIKEN POPULATION ANALYSIS *
                    ********************************

--------------------------------------------
MULLIKEN ATOMIC CHARGES AND SPIN POPULATIONS
--------------------------------------------
   0 Se:    0.000000    2.000000
Sum of atomic charges         :    0.0000000
Sum of atomic spin populations:    2.0000000

-----------------------------------------------------
MULLIKEN REDUCED ORBITAL CHARGES AND SPIN POPULATIONS
-----------------------------------------------------
CHARGE
  0 Ses       :     7.995329  s :     7.995329
      pz      :     5.001639  p :    15.997871
      px      :     5.211506
      py      :     5.784726
      dz2     :     2.001151  d :    10.004664
      dxz     :     2.000005
      dyz     :     2.000023
      dx2y2   :     2.001150
      dxy     :     2.002334
      f0      :     0.000208  f :     0.002129
      f+1     :     0.000108
      f-1     :     0.000308
      f+2     :     0.000117
      f-2     :     0.000235
      f+3     :     0.000633
      f-3     :     0.000519
      g0      :     0.000001  g :     0.000008
      g+1     :     0.000000
      g-1     :     0.000001
      g+2     :     0.000000
      g-2     :     0.000001
      g+3     :     0.000001
      g-3     :     0.000001
      g+4     :     0.000002
      g-4     :     0.000002

SPIN
  0 Ses       :     0.001743  s :     0.001743
      pz      :     0.997250  p :     1.998009
      px      :     0.787217
      py      :     0.213542
      dz2     :    -0.000431  d :    -0.001750
      dxz     :    -0.000003
      dyz     :    -0.000010
      dx2y2   :    -0.000432
      dxy     :    -0.000873
      f0      :     0.000207  f :     0.001991
      f+1     :     0.000097
      f-1     :     0.000269
      f+2     :     0.000117
      f-2     :     0.000234
      f+3     :     0.000549
      f-3     :     0.000518
      g0      :     0.000001  g :     0.000007
      g+1     :     0.000000
      g-1     :     0.000001
      g+2     :     0.000000
      g-2     :     0.000001
      g+3     :     0.000001
      g-3     :     0.000001
      g+4     :     0.000001
      g-4     :     0.000001


                     *******************************
                     * LOEWDIN POPULATION ANALYSIS *
                     *******************************

-------------------------------------------
LOEWDIN ATOMIC CHARGES AND SPIN POPULATIONS
-------------------------------------------
   0 Se:    0.000000    2.000000

----------------------------------------------------
LOEWDIN REDUCED ORBITAL CHARGES AND SPIN POPULATIONS
----------------------------------------------------
CHARGE
  0 Ses       :     7.995329  s :     7.995329
      pz      :     5.001639  p :    15.997871
      px      :     5.211506
      py      :     5.784726
      dz2     :     2.001151  d :    10.004664
      dxz     :     2.000005
      dyz     :     2.000023
      dx2y2   :     2.001150
      dxy     :     2.002334
      f0      :     0.000208  f :     0.002129
      f+1     :     0.000108
      f-1     :     0.000308
      f+2     :     0.000117
      f-2     :     0.000235
      f+3     :     0.000633
      f-3     :     0.000519
      g0      :     0.000001  g :     0.000008
      g+1     :     0.000000
      g-1     :     0.000001
      g+2     :     0.000000
      g-2     :     0.000001
      g+3     :     0.000001
      g-3     :     0.000001
      g+4     :     0.000002
      g-4     :     0.000002

SPIN
  0 Ses       :     0.001743  s :     0.001743
      pz      :     0.997250  p :     1.998009
      px      :     0.787217
      py      :     0.213542
      dz2     :    -0.000431  d :    -0.001750
      dxz     :    -0.000003
      dyz     :    -0.000010
      dx2y2   :    -0.000432
      dxy     :    -0.000873
      f0      :     0.000207  f :     0.001991
      f+1     :     0.000097
      f-1     :     0.000269
      f+2     :     0.000117
      f-2     :     0.000234
      f+3     :     0.000549
      f-3     :     0.000518
      g0      :     0.000001  g :     0.000007
      g+1     :     0.000000
      g-1     :     0.000001
      g+2     :     0.000000
      g-2     :     0.000001
      g+3     :     0.000001
      g-3     :     0.000001
      g+4     :     0.000001
      g-4     :     0.000001


                      *****************************
                      * MAYER POPULATION ANALYSIS *
                      *****************************

  NA   - Mulliken gross atomic population
  ZA   - Total nuclear charge
  QA   - Mulliken gross atomic charge
  VA   - Mayer's total valence
  BVA  - Mayer's bonded valence
  FA   - Mayer's free valence

  ATOM       NA         ZA         QA         VA         BVA        FA
  0 Se    34.0000    34.0000     0.0000     2.0234     0.0000     2.0234

  Mayer bond orders larger than 0.100000


-------
TIMINGS
-------

Total SCF time: 0 days 0 hours 0 min 11 sec 

Total time                  ....      11.348 sec
Sum of individual times     ....      11.016 sec  ( 97.1%)

Fock matrix formation       ....      10.843 sec  ( 95.5%)
Diagonalization             ....       0.026 sec  (  0.2%)
Density matrix formation    ....       0.005 sec  (  0.0%)
Population analysis         ....       0.004 sec  (  0.0%)
Initial guess               ....       0.105 sec  (  0.9%)
Orbital Transformation      ....       0.000 sec  (  0.0%)
Orbital Orthonormalization  ....       0.000 sec  (  0.0%)
DIIS solution               ....       0.016 sec  (  0.1%)


           ************************************************************
           *        Program running with 24 parallel MPI-processes    *
           *              working on a common directory               *
           ************************************************************


------------------------------------------------------------------------------- 
                              ORCA-MATRIX DRIVEN CI                            
------------------------------------------------------------------------------- 

--------------------------------
AUTOMATIC CHOICE OF INCORE LEVEL
--------------------------------

Memory available                           ...   2500.00 MB
Memory needed for S+T                      ...      5.79 MB
Memory needed for J+K                      ...     11.64 MB
Memory needed for DIIS                     ...     81.11 MB
Memory needed for 3-ext                    ...     28.97 MB
Memory needed for 4-ext                    ...    122.31 MB
Memory needed for triples                  ...     16.09 MB
 -> Final InCoreLevel    ... 5
 -> check shows that triples correction can be computed


Wavefunction type
-----------------
Correlation treatment                      ...      CCSD     
Single excitations                         ... ON
Orbital optimization                       ... OFF
Calculation of Z vector                    ... OFF
Calculation of Brueckner orbitals          ... OFF
Perturbative triple excitations            ... ON
Calculation of F12 correction              ... OFF
Frozen core treatment                      ... chemical core (18 el)
Reference Wavefunction                     ... UHF
  Alpha-MOs occ    :     9 ...   17 (  9 MO's/  9 electrons)
  Beta-MOs occ     :     9 ...   15 (  7 MO's/  7 electrons)
  Alpha-MOs virt   :    18 ...   92 ( 75 MO's              )
  Beta-MOs virt    :    16 ...   92 ( 77 MO's              )
Number of AO's                             ...     93
Number of electrons                        ...     34
Number of correlated electrons             ...     16

Algorithmic settings
--------------------
Integral transformation                    ... AO direct full transformation
K(C) Formation                             ... FULL-MO TRAFO
Maximum number of iterations               ...        50
Convergence tolerance (max. residuum)      ... 1.000e-05
Level shift for amplitude update           ... 2.000e-01
Maximum number of DIIS vectors             ...         7
DIIS turned on at iteration                ...         0
Damping before turning on DIIS             ...     0.500
Damping after turning on DIIS              ...     0.000
Pair specific amplitude update             ... OFF
Natural orbital iterations                 ... OFF
Perturbative natural orbital generation    ... OFF
Printlevel                                 ... 2

Memory handling:
----------------
Maximum memory for working arrays          ...   2500 MB
Data storage in matrix containers          ... UNCOMPRESSED
Data type for integral storage             ... DOUBLE
In-Core Storage of quantities:
   Amplitudes+Sigma Vector      ... YES
   J+K operators                ... YES
   DIIS vectors                 ... YES
   3-external integrals         ... YES
   4-external integrals         ... YES


Initializing the integral package          ... done
Warning: reference  - re-canonicalizations have been set to INT 1 VIRT 1

--------------------------
UNRESTRICTED FOCK OPERATOR
--------------------------

<ss|ss>:          666 b            0 skpd (  0.0%)    0.033 s ( 0.049 ms/b)
<ss|sp>:         2016 b            0 skpd (  0.0%)    0.205 s ( 0.102 ms/b)
<ss|sd>:         1440 b            2 skpd (  0.1%)    0.183 s ( 0.127 ms/b)
<ss|sf>:          864 b            4 skpd (  0.5%)    0.009 s ( 0.011 ms/b)
<ss|sg>:          576 b            5 skpd (  0.9%)    0.009 s ( 0.017 ms/b)
<ss|pp>:         1008 b            0 skpd (  0.0%)    0.121 s ( 0.120 ms/b)
<ss|pd>:         1260 b            1 skpd (  0.1%)    0.096 s ( 0.076 ms/b)
<ss|pf>:          756 b            1 skpd (  0.1%)    0.009 s ( 0.012 ms/b)
<ss|pg>:          504 b            1 skpd (  0.2%)    0.013 s ( 0.025 ms/b)
<ss|dd>:          540 b            0 skpd (  0.0%)    0.066 s ( 0.122 ms/b)
<ss|df>:          540 b            0 skpd (  0.0%)    0.009 s ( 0.017 ms/b)
<ss|dg>:          360 b            0 skpd (  0.0%)    0.014 s ( 0.038 ms/b)
<ss|ff>:          216 b            0 skpd (  0.0%)    0.002 s ( 0.007 ms/b)
<ss|fg>:          216 b            0 skpd (  0.0%)    0.002 s ( 0.010 ms/b)
<ss|gg>:          108 b            0 skpd (  0.0%)    0.003 s ( 0.030 ms/b)
<sp|sp>:         1596 b            2 skpd (  0.1%)    0.139 s ( 0.087 ms/b)
<sp|sd>:         2240 b           26 skpd (  1.2%)    0.211 s ( 0.096 ms/b)
<sp|sf>:         1344 b           32 skpd (  2.4%)    0.012 s ( 0.009 ms/b)
<sp|sg>:          896 b           58 skpd (  6.5%)    0.016 s ( 0.019 ms/b)
<sp|pp>:         1568 b            1 skpd (  0.1%)    0.129 s ( 0.083 ms/b)
<sp|pd>:         1960 b            5 skpd (  0.3%)    0.117 s ( 0.060 ms/b)
<sp|pf>:         1176 b            8 skpd (  0.7%)    0.016 s ( 0.013 ms/b)
<sp|pg>:          784 b            7 skpd (  0.9%)    0.023 s ( 0.029 ms/b)
<sp|dd>:          840 b            0 skpd (  0.0%)    0.107 s ( 0.128 ms/b)
<sp|df>:          840 b            0 skpd (  0.0%)    0.017 s ( 0.021 ms/b)
<sp|dg>:          560 b            3 skpd (  0.5%)    0.028 s ( 0.051 ms/b)
<sp|ff>:          336 b            0 skpd (  0.0%)    0.003 s ( 0.010 ms/b)
<sp|fg>:          336 b            0 skpd (  0.0%)    0.005 s ( 0.014 ms/b)
<sp|gg>:          168 b            2 skpd (  1.2%)    0.006 s ( 0.039 ms/b)
<sd|sd>:          820 b           17 skpd (  2.1%)    0.047 s ( 0.059 ms/b)
<sd|sf>:          960 b           49 skpd (  5.1%)    0.007 s ( 0.008 ms/b)
<sd|sg>:          640 b           40 skpd (  6.2%)    0.010 s ( 0.017 ms/b)
<sd|pp>:         1120 b            6 skpd (  0.5%)    0.063 s ( 0.057 ms/b)
<sd|pd>:         1400 b           33 skpd (  2.4%)    0.067 s ( 0.049 ms/b)
<sd|pf>:          840 b           25 skpd (  3.0%)    0.010 s ( 0.013 ms/b)
<sd|pg>:          560 b           38 skpd (  6.8%)    0.017 s ( 0.033 ms/b)
<sd|dd>:          600 b            3 skpd (  0.5%)    0.071 s ( 0.120 ms/b)
<sd|df>:          600 b            6 skpd (  1.0%)    0.014 s ( 0.024 ms/b)
<sd|dg>:          400 b            5 skpd (  1.2%)    0.022 s ( 0.055 ms/b)
<sd|ff>:          240 b            0 skpd (  0.0%)    0.003 s ( 0.013 ms/b)
<sd|fg>:          240 b            7 skpd (  2.9%)    0.004 s ( 0.019 ms/b)
<sd|gg>:          120 b            3 skpd (  2.5%)    0.006 s ( 0.055 ms/b)
<sf|sf>:          300 b           36 skpd ( 12.0%)    0.002 s ( 0.009 ms/b)
<sf|sg>:          384 b           63 skpd ( 16.4%)    0.004 s ( 0.012 ms/b)
<sf|pp>:          672 b            8 skpd (  1.2%)    0.024 s ( 0.036 ms/b)
<sf|pd>:          840 b           35 skpd (  4.2%)    0.030 s ( 0.037 ms/b)
<sf|pf>:          504 b           27 skpd (  5.4%)    0.005 s ( 0.011 ms/b)
<sf|pg>:          336 b           28 skpd (  8.3%)    0.009 s ( 0.029 ms/b)
<sf|dd>:          360 b           10 skpd (  2.8%)    0.037 s ( 0.107 ms/b)
<sf|df>:          360 b           19 skpd (  5.3%)    0.007 s ( 0.021 ms/b)
<sf|dg>:          240 b           20 skpd (  8.3%)    0.012 s ( 0.053 ms/b)
<sf|ff>:          144 b            5 skpd (  3.5%)    0.002 s ( 0.014 ms/b)
<sf|fg>:          144 b            6 skpd (  4.2%)    0.003 s ( 0.020 ms/b)
<sf|gg>:           72 b            8 skpd ( 11.1%)    0.003 s ( 0.055 ms/b)
<sg|sg>:          136 b           25 skpd ( 18.4%)    0.004 s ( 0.038 ms/b)
<sg|pp>:          448 b           11 skpd (  2.5%)    0.031 s ( 0.070 ms/b)
<sg|pd>:          560 b           65 skpd ( 11.6%)    0.040 s ( 0.081 ms/b)
<sg|pf>:          336 b           29 skpd (  8.6%)    0.007 s ( 0.022 ms/b)
<sg|pg>:          224 b           58 skpd ( 25.9%)    0.007 s ( 0.043 ms/b)
<sg|dd>:          240 b           10 skpd (  4.2%)    0.049 s ( 0.212 ms/b)
<sg|df>:          240 b           27 skpd ( 11.2%)    0.010 s ( 0.045 ms/b)
<sg|dg>:          160 b           19 skpd ( 11.9%)    0.016 s ( 0.112 ms/b)
<sg|ff>:           96 b            4 skpd (  4.2%)    0.002 s ( 0.027 ms/b)
<sg|fg>:           96 b           18 skpd ( 18.8%)    0.003 s ( 0.033 ms/b)
<sg|gg>:           48 b            8 skpd ( 16.7%)    0.004 s ( 0.107 ms/b)
<pp|pp>:          406 b            0 skpd (  0.0%)    0.078 s ( 0.191 ms/b)
<pp|pd>:          980 b            0 skpd (  0.0%)    0.089 s ( 0.091 ms/b)
<pp|pf>:          588 b            0 skpd (  0.0%)    0.013 s ( 0.023 ms/b)
<pp|pg>:          392 b            0 skpd (  0.0%)    0.022 s ( 0.057 ms/b)
<pp|dd>:          420 b            0 skpd (  0.0%)    0.091 s ( 0.216 ms/b)
<pp|df>:          420 b            0 skpd (  0.0%)    0.018 s ( 0.043 ms/b)
<pp|dg>:          280 b            0 skpd (  0.0%)    0.028 s ( 0.100 ms/b)
<pp|ff>:          168 b            0 skpd (  0.0%)    0.004 s ( 0.022 ms/b)
<pp|fg>:          168 b            0 skpd (  0.0%)    0.006 s ( 0.033 ms/b)
<pp|gg>:           84 b            0 skpd (  0.0%)    0.008 s ( 0.101 ms/b)
<pd|pd>:          630 b            0 skpd (  0.0%)    0.075 s ( 0.120 ms/b)
<pd|pf>:          735 b            1 skpd (  0.1%)    0.014 s ( 0.019 ms/b)
<pd|pg>:          490 b            0 skpd (  0.0%)    0.026 s ( 0.052 ms/b)
<pd|dd>:          525 b            0 skpd (  0.0%)    0.096 s ( 0.183 ms/b)
<pd|df>:          525 b            0 skpd (  0.0%)    0.021 s ( 0.039 ms/b)
<pd|dg>:          350 b            0 skpd (  0.0%)    0.033 s ( 0.094 ms/b)
<pd|ff>:          210 b            0 skpd (  0.0%)    0.005 s ( 0.024 ms/b)
<pd|fg>:          210 b            0 skpd (  0.0%)    0.007 s ( 0.036 ms/b)
<pd|gg>:          105 b            0 skpd (  0.0%)    0.011 s ( 0.104 ms/b)
<pf|pf>:          231 b            0 skpd (  0.0%)    0.006 s ( 0.026 ms/b)
<pf|pg>:          294 b            0 skpd (  0.0%)    0.013 s ( 0.043 ms/b)
<pf|dd>:          315 b            0 skpd (  0.0%)    0.043 s ( 0.137 ms/b)
<pf|df>:          315 b            1 skpd (  0.3%)    0.010 s ( 0.032 ms/b)
<pf|dg>:          210 b            1 skpd (  0.5%)    0.016 s ( 0.078 ms/b)
<pf|ff>:          126 b            0 skpd (  0.0%)    0.003 s ( 0.025 ms/b)
<pf|fg>:          126 b            0 skpd (  0.0%)    0.005 s ( 0.036 ms/b)
<pf|gg>:           63 b            0 skpd (  0.0%)    0.006 s ( 0.100 ms/b)
<pg|pg>:          105 b            1 skpd (  1.0%)    0.015 s ( 0.141 ms/b)
<pg|dd>:          210 b            0 skpd (  0.0%)    0.060 s ( 0.286 ms/b)
<pg|df>:          210 b            1 skpd (  0.5%)    0.013 s ( 0.062 ms/b)
<pg|dg>:          140 b            5 skpd (  3.6%)    0.021 s ( 0.157 ms/b)
<pg|ff>:           84 b            0 skpd (  0.0%)    0.003 s ( 0.038 ms/b)
<pg|fg>:           84 b            0 skpd (  0.0%)    0.005 s ( 0.061 ms/b)
<pg|gg>:           42 b            2 skpd (  4.8%)    0.007 s ( 0.177 ms/b)
<dd|dd>:          120 b            0 skpd (  0.0%)    0.043 s ( 0.362 ms/b)
<dd|df>:          225 b            0 skpd (  0.0%)    0.010 s ( 0.046 ms/b)
<dd|dg>:          150 b            0 skpd (  0.0%)    0.016 s ( 0.109 ms/b)
<dd|ff>:           90 b            0 skpd (  0.0%)    0.003 s ( 0.031 ms/b)
<dd|fg>:           90 b            0 skpd (  0.0%)    0.004 s ( 0.046 ms/b)
<dd|gg>:           45 b            0 skpd (  0.0%)    0.006 s ( 0.134 ms/b)
<df|df>:          120 b            0 skpd (  0.0%)    0.005 s ( 0.038 ms/b)
<df|dg>:          150 b            0 skpd (  0.0%)    0.011 s ( 0.071 ms/b)
<df|ff>:           90 b            0 skpd (  0.0%)    0.003 s ( 0.032 ms/b)
<df|fg>:           90 b            0 skpd (  0.0%)    0.004 s ( 0.043 ms/b)
<df|gg>:           45 b            0 skpd (  0.0%)    0.005 s ( 0.119 ms/b)
<dg|dg>:           55 b            0 skpd (  0.0%)    0.008 s ( 0.141 ms/b)
<dg|ff>:           60 b            0 skpd (  0.0%)    0.002 s ( 0.041 ms/b)
<dg|fg>:           60 b            0 skpd (  0.0%)    0.004 s ( 0.065 ms/b)
<dg|gg>:           30 b            0 skpd (  0.0%)    0.006 s ( 0.210 ms/b)
<ff|ff>:           21 b            0 skpd (  0.0%)    0.001 s ( 0.052 ms/b)
<ff|fg>:           36 b            0 skpd (  0.0%)    0.002 s ( 0.054 ms/b)
<ff|gg>:           18 b            0 skpd (  0.0%)    0.003 s ( 0.156 ms/b)
<fg|fg>:           21 b            0 skpd (  0.0%)    0.003 s ( 0.132 ms/b)
<fg|gg>:           18 b            0 skpd (  0.0%)    0.005 s ( 0.272 ms/b)
<gg|gg>:            6 b            0 skpd (  0.0%)    0.004 s ( 0.645 ms/b)
Recanonicalizing the internal orbitals
Recanonicalizing the virtual orbitals
Time needed for Fock operator              ...            3.356 sec
Reference energy                           ...  -2399.875161475
Warning: for UHF the TrafoType has to be JK
Warning: for UHF the K(C)-option cannot be MO but must be AOX

-------------------------------
PARTIAL EXCHANGE TRANSFORMATION
-------------------------------

Transformation type                        ... two-operators
Generation of integrals (i,mue|j,nue)      ... ON
Generation of integrals (mue,kappa|nue,tau)... ON
Generation of integrals (i,mue|a,nue)      ... ON
Dimension of the basis                     ...   93
Number of internal alpha-MOs               ...    9 (   9-  17)
Number of internal beta-MOs                ...    7 (   9-  15)
Number of external alpha-MOs               ...   75 (  18-  92)
Number of external beta-MOs                ...   77 (  16-  92)
Pair cutoff                                ... 0.000e+00 Eh
Number of AO pairs in the trafo            ... 4371
Total Number of distinct AO pairs          ... 4371
Memory devoted for trafo                   ... 2500.0 MB 
Max. Number of MO pairs treated together   ... 37886      
Number Format for Storage                  ... Double (8 Byte)
Integral package used                      ... LIBINT

Starting integral evaluation:
    ... done with AO integral generation
Closing buffer AOK[aa] ( 0.00 GB; CompressionRatio= 0.98)
Closing buffer AOK[bb] ( 0.00 GB; CompressionRatio= 0.97)
Closing buffer AOK[ab] ( 0.00 GB; CompressionRatio= 0.98)
Closing buffer AOK[ba] ( 0.00 GB; CompressionRatio= 0.98)
Collecting buffer AOK 
Closing buffer IAAO1[aa] ( 0.00 GB; CompressionRatio= 1.00)
Closing buffer IAAO1[bb] ( 0.00 GB; CompressionRatio= 1.00)
Closing buffer IAAO1[ab] ( 0.00 GB; CompressionRatio= 1.00)
Closing buffer IAAO1[ba] ( 0.00 GB; CompressionRatio= 1.00)
Closing buffer IAAO2[aa] ( 0.00 GB; CompressionRatio= 1.00)
Closing buffer IAAO2[bb] ( 0.00 GB; CompressionRatio= 1.00)
Closing buffer IAAO2[ab] ( 0.00 GB; CompressionRatio= 1.00)
Closing buffer IAAO2[ba] ( 0.00 GB; CompressionRatio= 1.00)
Collecting buffer IAAO 
Closing buffer PRQS    ( 0.00 GB; CompressionRatio= 1.00)
Collecting buffer PRQS 
Number of alpha/alpha MO pairs in trafo    ...   45
Number of beta /beta  MO pairs in trafo    ...   28
Number of alpha/ beta MO pairs in trafo    ...   63
------------------------
SORTING OF (i,mue|j,nue)
------------------------

SORTING OF ALPHA/ALPHA PAIRS
IBATCH = 1 of  1
Closing buffer KAO[aa] ( 0.00 GB; CompressionRatio= 1.00)
Collecting buffer KAO 
SORTING OF BETA /BETA  PAIRS
IBATCH = 1 of  1
Closing buffer KAO[bb] ( 0.00 GB; CompressionRatio= 1.00)
Collecting buffer KAO 
SORTING OF ALPHA/BETA  PAIRS
IBATCH = 1 of  1
Closing buffer KAO[ab] ( 0.00 GB; CompressionRatio= 0.999826599619)
Collecting buffer KAO[ab] 
------------------------
SORTING OF (i,mue|a,nue)
------------------------

Number of alpha/alpha (i,a) pairs in trafo  ...  675
Number of beta /beta  (i,a) pairs in trafo  ...  539
Number of alpha/ beta (i,a) pairs in trafo  ...  693
Number of beta /alpha (i,a) pairs in trafo  ...  525
Setting up the alpha/alpha list             ... done
Setting up the beta /beta  list             ... done
Setting up the alpha/beta  list             ... done
Setting up the beta /alpha list             ... done
    ... Now sorting (i,mue|a,nue)integrals
    ... Integrals (i,b|a,c) will be made on the fly
SORTING OF ALPHA/ALPHA PAIRS
IBATCH = 1 of  1
Closing buffer IPAQ[aa]  0.00 GB; CompressionRatio= 1.00)
SORTING OF BETA /BETA  PAIRS
IBATCH = 1 of  1
Closing buffer IPAQ[bb]( 0.00 GB; CompressionRatio= 1.00)
SORTING OF ALPHA/BETA  PAIRS (NMatSort_ab=29)
IBATCH = 1 of  1
Closing buffer IPAQ[ab]( 0.00 GB; CompressionRatio= 1.00)
SORTING OF BETA/ALPHA  PAIRS
IBATCH = 1 of  1
Closing buffer IPAQ[ba]( 0.00 GB; CompressionRatio= 1.00)
N(AO-Batches) Done                         ...      1250 
N(AO-Batches) Skipped                      ...         0 
N(IJ)-pairs Skipped                        ...         0 
TOTAL TIME for half transformation         ...     8.540 sec
AO-integral generation                     ...     0.403 sec
Half transformation                        ...     0.003 sec
K-integral sorting                         ...     0.479 sec
<ss|**>: 
------------------------------
PARTIAL COULOMB TRANSFORMATION
------------------------------

Transformation type                        ... two-operators
Dimension of the basis                     ...   93
Number of internal alpha-MOs               ...    9 (9-17)
Number of internal beta-MOs                ...    7 (9-15)
Pair cutoff                                ... 0.000e+00 Eh
Number of AO pairs included in the trafo   ... 4371
Total Number of distinct AO pairs          ... 4371
Memory devoted for trafo                   ... 2500.0 MB 
Max. Number of MO pairs treated together   ... 74966      
Max. Number of MOs treated per batch       ...  806      
Number Format for Storage                  ... Double (8 Byte)
AO-integral source                         ... DIRECT
Integral package used                      ... LIBINT

Starting integral evaluation:
       11700 b        0 skpd     0.340 s (  0.029 ms/b)
<sp|**>: <sd|**>:        18200 b        0 skpd     0.871 s (  0.048 ms/b)
<sf|**>:        13000 b        0 skpd     0.909 s (  0.070 ms/b)
<sg|**>:         7800 b        0 skpd     0.079 s (  0.010 ms/b)
<pp|**>:         5200 b        0 skpd     0.137 s (  0.026 ms/b)
        9100 b        0 skpd     0.607 s (  0.067 ms/b)
<pd|**>:        11375 b        0 skpd     0.692 s (  0.061 ms/b)
<pf|**>:         6825 b        0 skpd     0.108 s (  0.016 ms/b)
<pg|**>:         4550 b        0 skpd     0.193 s (  0.042 ms/b)
<dd|**>:         4875 b        0 skpd     0.741 s (  0.152 ms/b)
<df|**>:         4875 b        0 skpd     0.148 s (  0.030 ms/b)
<dg|**>:         3250 b        0 skpd     0.236 s (  0.073 ms/b)
<ff|**>:         1950 b        0 skpd     0.035 s (  0.018 ms/b)
<fg|**>:         1950 b        0 skpd     0.052 s (  0.026 ms/b)
<gg|**>:          975 b        0 skpd     0.078 s (  0.080 ms/b)
Closing buffer AOJ[aa] ( 0.00 GB; CompressionRatio= 0.97)
Closing buffer AOJ[bb] ( 0.00 GB; CompressionRatio= 0.00)
Collecting buffer AOJ 
    ... done with AO integral generation
Number of Alpha-MO pairs included          ...   45
Number of Beta-MO pairs included           ...   28
    ... Now sorting integrals
SORTING ALPHA/ALPHA PAIRS
IBATCH = 1 of  1
Closing buffer JAO[aa] ( 0.00 GB; CompressionRatio= 1.00)
SORTING BETA/BETA PAIRS
IBATCH = 1 of  1
Closing buffer JAO[bb] ( 0.00 GB; CompressionRatio= 1.00)
Collecting buffer JAO 
TOTAL TIME for half transformation         ...     5.246 sec
AO-integral generation                     ...     5.219 sec
Half transformation                        ...     0.009 sec
J-integral sorting                         ...     0.012 sec

-------------------------- SECOND HALF TRANSFORMATION -------------------------
Formation of (ij|kl),(ij|ka), (ij|ab)      ... ok (     0.031 sec)
Formation of (ik|jl),(ik|ja), (ia|jb)      ... ok (     0.047 sec)


-----------------------
SPIN UNRESTRICTED GUESS
-----------------------

Entering MDCI_UHF_Guess, Tailored=0
Spin-components of the MP2 energy:
EMP2(aa)=     -0.046932710
EMP2(bb)=     -0.023708905
EMP2(ab)=     -0.160852727

Initial guess performed in     0.017 sec
E(0)                                       ...  -2399.875161475
E(MP2)                                     ...     -0.231494342
Initial E(tot)                             ...  -2400.106655817
<T|T>                                      ...      0.060859904
Number of pairs included                   ... 120

------------------------------------------------
                  UHF COUPLED CLUSTER ITERATIONS
------------------------------------------------

Number of amplitudes to be optimized       ...       527907

Iter       E(tot)           E(Corr)          Delta-E          Residual     Time      <S|S>**1/2
  0  -2400.106655817     -0.231494342     -0.000000000      0.022281394    2.60      0.000001644
                           *** Turning on DIIS ***
  1  -2400.108480549     -0.233319075     -0.001824733      0.007165035    2.97      0.020961861
  2  -2400.114046456     -0.238884982     -0.005565907      0.003682518    3.00      0.024478399
  3  -2400.115763404     -0.240601930     -0.001716948      0.001031811    3.01      0.027910719
  4  -2400.115988302     -0.240826827     -0.000224898      0.000153983    3.00      0.028829710
  5  -2400.116009417     -0.240847943     -0.000021115      0.000074938    3.00      0.028999648
  6  -2400.116014364     -0.240852889     -0.000004947      0.000037373    3.02      0.029017671
  7  -2400.116014136     -0.240852662      0.000000228      0.000013205    3.03      0.029011532
  8  -2400.116014167     -0.240852692     -0.000000031      0.000004562    3.00      0.029007567
               --- The Coupled-Cluster iterations have converged ---

----------------------
COUPLED CLUSTER ENERGY
----------------------

E(0)                                       ...  -2399.875161475
E(CORR)                                    ...     -0.240852692
E(TOT)                                     ...  -2400.116014167
Singles norm <S|S>**1/2                    ...      0.029007567 ( 0.013191129, 0.015816438)  
T1 diagnostic                              ...      0.007251892                              

------------------
LARGEST AMPLITUDES
------------------
  17a-> 35a  15b-> 38b       0.035894
  16a-> 31a  14b-> 16b       0.031779
  15a-> 32a  14b-> 16b       0.031779
  16a-> 32a  14b-> 17b       0.031779
  15a-> 31a  14b-> 17b       0.031779
  17a-> 33a  14b-> 16b       0.030893
  17a-> 34a  14b-> 17b       0.030893
  17a-> 33a  15b-> 39b       0.027455
  17a-> 34a  15b-> 40b       0.027455
  16a-> 31a  15a-> 32a       0.023897
  16a-> 32a  15a-> 31a       0.023897
  14b-> 38b  -1b-> -1b       0.022084
  17a-> 33a  16a-> 35a       0.022070
  17a-> 35a  16a-> 33a       0.022070
  17a-> 34a  15a-> 35a       0.022070
  17a-> 35a  15a-> 34a       0.022070

----------------------
UHF TRIPLES CORRECTION (Algorithm 1)
----------------------

Multiplier for the singles contribution    ...      1.000000000

SPIN-CASE Alpha-Alpha-Alpha:
10% done
20% done
30% done
40% done
50% done
60% done
70% done
80% done
90% done


SPIN-CASE Beta-Beta-Beta:
10% done
20% done
30% done
40% done
50% done
60% done
70% done
80% done
90% done


SPIN-CASE Alpha-Alpha-Beta:
10% done
20% done
30% done
40% done
50% done
60% done
70% done
80% done
90% done


SPIN-CASE Beta-Beta-Alpha:
10% done
20% done
30% done
40% done
50% done
60% done
70% done
80% done
90% done


Triples Correction (T)                     ...     -0.008110335
    alpha-alpha-alpha ... -0.000494462 (  6.1%)
    alpha-alpha-beta  ... -0.005000313 ( 61.7%)
    alpha-beta -beta  ... -0.002465499 ( 30.4%)
    beta -beta -beta  ... -0.000150061 (  1.9%)
Scaling of triples based on CCSD energies (Peterson et al. Molecular Physics 113, 1551 (2015))
E(T*) = f*E(T) where f = E(F12-CCSD)/E(CCSD) 
f = CCSD (with F12)/ CCSD (without F12)    ...      1.000000000
Scaled triples correction (T)              ...     -0.008110335

Final correlation energy                   ...     -0.248963027
E(CCSD)                                    ...  -2400.116014167
E(CCSD(T))                                 ...  -2400.124124502



        !!!!!!!!!!!!!!!!!!!!!!!!!!!!!!!!!!!!!!!!!!!!!!!!!!!!!!!!!!!!!!!!!!!!!!!!!! 
        !  Warning: Densities are linearized densities                           !
        !!!!!!!!!!!!!!!!!!!!!!!!!!!!!!!!!!!!!!!!!!!!!!!!!!!!!!!!!!!!!!!!!!!!!!!!!! 

NORM  =      1.078119146 sqrt=     1.038325164
W(HF) =      0.927541268
------------------------------------------------------------------------------
                           ORCA POPULATION ANALYSIS
------------------------------------------------------------------------------
Input electron density              ... 34_Se.mdcip
Input spin density                  ... 34_Se.mdcir
BaseName (.gbw .S,...)              ... 34_Se

                    ********************************
                    * MULLIKEN POPULATION ANALYSIS *
                    ********************************

------------------------------------------
MULLIKEN ATOMIC CHARGES AND SPIN DENSITIES
------------------------------------------
   0 Se:    0.000000    2.000000
Sum of atomic charges       :    0.0000000
Sum of atomic spin densities:    2.0000000

---------------------------------------------------
MULLIKEN REDUCED ORBITAL CHARGES AND SPIN DENSITIES
---------------------------------------------------
CHARGE
  0 Ses       :     7.964903  s :     7.964903
      pz      :     4.998138  p :    15.948722
      px      :     5.199837
      py      :     5.750748
      dz2     :     2.012141  d :    10.067539
      dxz     :     2.011620
      dyz     :     2.013993
      dx2y2   :     2.014882
      dxy     :     2.014903
      f0      :     0.001975  f :     0.016731
      f+1     :     0.001705
      f-1     :     0.002430
      f+2     :     0.002377
      f-2     :     0.002390
      f+3     :     0.002916
      f-3     :     0.002938
      g0      :     0.000188  g :     0.002105
      g+1     :     0.000156
      g-1     :     0.000235
      g+2     :     0.000214
      g-2     :     0.000215
      g+3     :     0.000249
      g-3     :     0.000249
      g+4     :     0.000299
      g-4     :     0.000299

SPIN
  0 Ses       :     0.019262  s :     0.019262
      pz      :     0.969168  p :     1.943270
      px      :     0.765371
      py      :     0.208730
      dz2     :     0.008033  d :     0.031604
      dxz     :     0.008604
      dyz     :     0.005656
      dx2y2   :     0.004628
      dxy     :     0.004682
      f0      :     0.000667  f :     0.005836
      f+1     :     0.000559
      f-1     :     0.000850
      f+2     :     0.000828
      f-2     :     0.000834
      f+3     :     0.001045
      f-3     :     0.001054
      g0      :     0.000016  g :     0.000029
      g+1     :     0.000025
      g-1     :     0.000003
      g+2     :     0.000007
      g-2     :     0.000008
      g+3     :    -0.000002
      g-3     :    -0.000002
      g+4     :    -0.000013
      g-4     :    -0.000013


                     *******************************
                     * LOEWDIN POPULATION ANALYSIS *
                     *******************************

-----------------------------------------
LOEWDIN ATOMIC CHARGES AND SPIN DENSITIES
-----------------------------------------
   0 Se:    0.000000    2.000000

--------------------------------------------------
LOEWDIN REDUCED ORBITAL CHARGES AND SPIN DENSITIES
--------------------------------------------------
CHARGE
  0 Ses       :     7.964903  s :     7.964903
      pz      :     4.998138  p :    15.948722
      px      :     5.199837
      py      :     5.750748
      dz2     :     2.012141  d :    10.067539
      dxz     :     2.011620
      dyz     :     2.013993
      dx2y2   :     2.014882
      dxy     :     2.014903
      f0      :     0.001975  f :     0.016731
      f+1     :     0.001705
      f-1     :     0.002430
      f+2     :     0.002377
      f-2     :     0.002390
      f+3     :     0.002916
      f-3     :     0.002938
      g0      :     0.000188  g :     0.002105
      g+1     :     0.000156
      g-1     :     0.000235
      g+2     :     0.000214
      g-2     :     0.000215
      g+3     :     0.000249
      g-3     :     0.000249
      g+4     :     0.000299
      g-4     :     0.000299

SPIN
  0 Ses       :     0.019262  s :     0.019262
      pz      :     0.969168  p :     1.943270
      px      :     0.765371
      py      :     0.208730
      dz2     :     0.008033  d :     0.031604
      dxz     :     0.008604
      dyz     :     0.005656
      dx2y2   :     0.004628
      dxy     :     0.004682
      f0      :     0.000667  f :     0.005836
      f+1     :     0.000559
      f-1     :     0.000850
      f+2     :     0.000828
      f-2     :     0.000834
      f+3     :     0.001045
      f-3     :     0.001054
      g0      :     0.000016  g :     0.000029
      g+1     :     0.000025
      g-1     :     0.000003
      g+2     :     0.000007
      g-2     :     0.000008
      g+3     :    -0.000002
      g-3     :    -0.000002
      g+4     :    -0.000013
      g-4     :    -0.000013


                      *****************************
                      * MAYER POPULATION ANALYSIS *
                      *****************************

  NA   - Mulliken gross atomic population
  ZA   - Total nuclear charge
  QA   - Mulliken gross atomic charge
  VA   - Mayer's total valence
  BVA  - Mayer's bonded valence
  FA   - Mayer's free valence

  ATOM       NA         ZA         QA         VA         BVA        FA
  0 Se    34.0000    34.0000     0.0000     2.4903     0.0000     2.4903





------------------------------------------------------------------------------- 
                                     TIMINGS                                   
------------------------------------------------------------------------------- 


Total execution time                   ...       45.914 sec

Fock Matrix Formation                  ...        3.356 sec (  7.3%)
Initial Guess                          ...        0.017 sec (  0.0%)
DIIS Solver                            ...        0.339 sec (  0.7%)
State Vector Update                    ...        0.017 sec (  0.0%)
Sigma-vector construction              ...       26.277 sec ( 57.2%)
  <0|H|D>                              ...        0.001 sec (  0.0% of sigma)
  <D|H|D>(0-ext Fock)                  ...        0.006 sec (  0.0% of sigma)
  <D|H|D>(0-ext)                       ...        0.019 sec (  0.1% of sigma)
  <D|H|D>(2-ext Fock)                  ...        0.002 sec (  0.0% of sigma)
  <D|H|D>(2-ext)                       ...        0.082 sec (  0.3% of sigma)
  <D|H|D>(4-ext)                       ...        3.903 sec ( 14.9% of sigma)
  <S|H|0>                              ...        0.167 sec (  0.6% of sigma)
  <S|H|S>                              ...        0.001 sec (  0.0% of sigma)
  <S|H|D>(1-ext)                       ...        0.002 sec (  0.0% of sigma)
  <D|H|S>(1-ext)                       ...        0.033 sec (  0.1% of sigma)
  Fock-dressing                        ...       20.822 sec ( 79.2% of sigma)
  (ik|jl)-dressing                     ...        0.023 sec (  0.1% of sigma)
  (ij|ab),(ia|jb)-dressing             ...        0.939 sec (  3.6% of sigma)
  Pair energies                        ...        0.002 sec (  0.0% of sigma)
Total Time for computing (T)           ...        0.872 sec (  1.9% of ALL)
  I/O of integral and amplitudes       ...        0.238 sec ( 27.3% of (T))
  External N**7 contributions          ...        0.211 sec ( 24.1% of (T))
  Internal N**7 contributions          ...        0.115 sec ( 13.2% of (T))
  N**6 triples energy contributions    ...        0.280 sec ( 32.1% of (T))


-------------------------   --------------------
FINAL SINGLE POINT ENERGY     -2400.124124501687
-------------------------   --------------------


                            ***************************************
                            *     ORCA property calculations      *
                            ***************************************

                                    ---------------------
                                    Active property flags
                                    ---------------------
   (+) Dipole Moment


------------------------------------------------------------------------------
                       ORCA ELECTRIC PROPERTIES CALCULATION
------------------------------------------------------------------------------

Dipole Moment Calculation                       ... on
Quadrupole Moment Calculation                   ... off
Polarizability Calculation                      ... off
GBWName                                         ... 34_Se.gbw
Electron density file                           ... 34_Se.scfp
The origin for moment calculation is the CENTER OF MASS  = ( 0.000000,  0.000000  0.000000)

-------------
DIPOLE MOMENT
-------------
                                X             Y             Z
Electronic contribution:     -0.00000      -0.00000      -0.00000
Nuclear contribution   :      0.00000       0.00000       0.00000
                        -----------------------------------------
Total Dipole Moment    :     -0.00000      -0.00000      -0.00000
                        -----------------------------------------
Magnitude (a.u.)       :      0.00000
Magnitude (Debye)      :      0.00000



--------------------
Rotational spectrum 
--------------------
 
Rotational constants in cm-1:     0.000000     0.000000     0.000000 
Rotational constants in MHz :     0.000000     0.000000     0.000000 

 Dipole components along the rotational axes: 
x,y,z [a.u.] :    -0.000000    -0.000000    -0.000000 
x,y,z [Debye]:    -0.000000    -0.000000    -0.000000 

 

                           *** MDCI DENSITY ***

------------------------------------------------------------------------------
                       ORCA ELECTRIC PROPERTIES CALCULATION
------------------------------------------------------------------------------

Dipole Moment Calculation                       ... on
Quadrupole Moment Calculation                   ... off
Polarizability Calculation                      ... off
GBWName                                         ... 34_Se.gbw
Electron density file                           ... 34_Se.mdcip
The origin for moment calculation is the CENTER OF MASS  = ( 0.000000,  0.000000  0.000000)

-------------
DIPOLE MOMENT
-------------
                                X             Y             Z
Electronic contribution:     -0.00000      -0.00000       0.00000
Nuclear contribution   :      0.00000       0.00000       0.00000
                        -----------------------------------------
Total Dipole Moment    :     -0.00000      -0.00000       0.00000
                        -----------------------------------------
Magnitude (a.u.)       :      0.00000
Magnitude (Debye)      :      0.00000



--------------------
Rotational spectrum 
--------------------
 
Rotational constants in cm-1:     0.000000     0.000000     0.000000 
Rotational constants in MHz :     0.000000     0.000000     0.000000 

 Dipole components along the rotational axes: 
x,y,z [a.u.] :    -0.000000    -0.000000     0.000000 
x,y,z [Debye]:    -0.000000    -0.000000     0.000000 

 

Timings for individual modules:

Sum of individual times         ...       60.667 sec (=   1.011 min)
GTO integral calculation        ...        1.846 sec (=   0.031 min)   3.0 %
SCF iterations                  ...       12.094 sec (=   0.202 min)  19.9 %
MDCI module                     ...       46.727 sec (=   0.779 min)  77.0 %
                             ****ORCA TERMINATED NORMALLY****
TOTAL RUN TIME: 0 days 0 hours 1 minutes 1 seconds 482 msec
