
                                 *****************
                                 * O   R   C   A *
                                 *****************

           --- An Ab Initio, DFT and Semiempirical electronic structure package ---

                  #######################################################
                  #                        -***-                        #
                  #          Department of theory and spectroscopy      #
                  #               Directorship: Frank Neese             #
                  #        Max Planck Institute fuer Kohlenforschung    #
                  #                Kaiser Wilhelm Platz 1               #
                  #                 D-45470 Muelheim/Ruhr               #
                  #                      Germany                        #
                  #                                                     #
                  #                  All rights reserved                #
                  #                        -***-                        #
                  #######################################################


                         Program Version 4.2.0 -  RELEASE  -


 With contributions from (in alphabetic order):
   Daniel Aravena         : Magnetic Suceptibility
   Michael Atanasov       : Ab Initio Ligand Field Theory (pilot matlab implementation)
   Alexander A. Auer      : GIAO ZORA, VPT2
   Ute Becker             : Parallelization
   Giovanni Bistoni       : ED, misc. LED, open-shell LED, HFLED
   Martin Brehm           : Molecular dynamics
   Dmytro Bykov           : SCF Hessian
   Vijay G. Chilkuri      : MRCI spin determinant printing, contributions to CSF-ICE
   Dipayan Datta          : RHF DLPNO-CCSD density
   Achintya Kumar Dutta   : EOM-CC, STEOM-CC
   Dmitry Ganyushin       : Spin-Orbit,Spin-Spin,Magnetic field MRCI
   Miquel Garcia          : C-PCM Hessian, Gaussian charge scheme
   Yang Guo               : DLPNO-NEVPT2, CIM, IAO-localization
   Andreas Hansen         : Spin unrestricted coupled pair/coupled cluster methods
   Benjamin Helmich-Paris : CASSCF linear response (MC-RPA)
   Lee Huntington         : MR-EOM, pCC
   Robert Izsak           : Overlap fitted RIJCOSX, COSX-SCS-MP3, EOM
   Christian Kollmar      : KDIIS, OOCD, Brueckner-CCSD(T), CCSD density
   Simone Kossmann        : Meta GGA functionals, TD-DFT gradient, OOMP2, MP2 Hessian
   Martin Krupicka        : AUTO-CI
   Lucas Lang             : DCDCAS
   Dagmar Lenk            : GEPOL surface, SMD
   Dimitrios Liakos       : Extrapolation schemes; Compound Job, initial MDCI parallelization
   Dimitrios Manganas     : Further ROCIS development; embedding schemes
   Dimitrios Pantazis     : SARC Basis sets
   Taras Petrenko         : DFT Hessian,TD-DFT gradient, ASA, ECA, R-Raman, ABS, FL, XAS/XES, NRVS
   Peter Pinski           : DLPNO-MP2, DLPNO-MP2 Gradient
   Christoph Reimann      : Effective Core Potentials
   Marius Retegan         : Local ZFS, SOC
   Christoph Riplinger    : Optimizer, TS searches, QM/MM, DLPNO-CCSD(T), (RO)-DLPNO pert. Triples
   Tobias Risthaus        : Range-separated hybrids, TD-DFT gradient, RPA, STAB
   Michael Roemelt        : Original ROCIS implementation
   Masaaki Saitow         : Open-shell DLPNO-CCSD energy and density
   Barbara Sandhoefer     : DKH picture change effects
   Avijit Sen             : IP-ROCIS
   Kantharuban Sivalingam : CASSCF convergence, NEVPT2, FIC-MRCI
   Bernardo de Souza      : ESD, SOC TD-DFT
   Georgi Stoychev        : AutoAux, RI-MP2 NMR
   Willem Van den Heuvel  : Paramagnetic NMR
   Boris Wezisla          : Elementary symmetry handling
   Frank Wennmohs         : Technical directorship


 We gratefully acknowledge several colleagues who have allowed us to
 interface, adapt or use parts of their codes:
   Stefan Grimme, W. Hujo, H. Kruse,             : VdW corrections, initial TS optimization,
                  C. Bannwarth                     DFT functionals, gCP, sTDA/sTD-DF
   Ed Valeev, F. Pavosevic, A. Kumar             : LibInt (2-el integral package), F12 methods
   Garnet Chan, S. Sharma, J. Yang, R. Olivares  : DMRG
   Ulf Ekstrom                                   : XCFun DFT Library
   Mihaly Kallay                                 : mrcc  (arbitrary order and MRCC methods)
   Andreas Klamt, Michael Diedenhofen            : otool_cosmo (COSMO solvation model)
   Jiri Pittner, Ondrej Demel                    : Mk-CCSD
   Frank Weinhold                                : gennbo (NPA and NBO analysis)
   Christopher J. Cramer and Donald G. Truhlar   : smd solvation model
   Lars Goerigk                                  : TD-DFT with DH, B97 family of functionals
   V. Asgeirsson, H. Jonsson                     : NEB implementation
   FAccTs GmbH                                   : IRC, NEB, NEB-TS, Multilevel, MM, QM/MM, CI optimization
   S Lehtola, MJT Oliveira, MAL Marques          : LibXC Library


 Your calculation uses the libint2 library for the computation of 2-el integrals
 For citations please refer to: http://libint.valeyev.net

 Your ORCA version has been built with support for libXC version: 4.2.3
 For citations please refer to: https://tddft.org/programs/libxc/

 This ORCA versions uses:
   CBLAS   interface :  Fast vector & matrix operations
   LAPACKE interface :  Fast linear algebra routines
   SCALAPACK package :  Parallel linear algebra routines


----- Orbital basis set information -----
Your calculation utilizes the basis: aug-cc-pV(T+d)Z 
             Al - Ar: T.H. Dunning, Jr., K. A. Peterson and A. K. Wilson, J. Chem. Phys.
                      114, 9244 (2001)

================================================================================
                                        WARNINGS
                       Please study these warnings very carefully!
================================================================================


WARNING: your system is open-shell and RHF/RKS was chosen
  ===> : WILL SWITCH to UHF/UKS


WARNING: No MP2 level density has been requested!
         To caclulate MP2 level properties use
         %mp2 Density relaxed end
         or
         %mp2 Density unrelaxed end

WARNING: Post HF methods need fully converged wavefunctions
  ===> : Setting SCFConvForced true
         You can overwrite this default with %scf ConvForced false 


INFO   : the flag for use of LIBINT has been found!

================================================================================
                                       INPUT FILE
================================================================================
NAME = 01_H.in
|  1> #
|  2> # 01_H CCSD(T)/aug-cc-pvt(+d)z
|  3> #
|  4> ! MP2 aug-cc-pvt(+d)z tightscf
|  5> 
|  6> *xyz 0 2
|  7>  H 0.0 0.0 0.0
|  8> *
|  9> 
| 10> 
| 11>                          ****END OF INPUT****
================================================================================

                       ****************************
                       * Single Point Calculation *
                       ****************************

---------------------------------
CARTESIAN COORDINATES (ANGSTROEM)
---------------------------------
  H      0.000000    0.000000    0.000000

----------------------------
CARTESIAN COORDINATES (A.U.)
----------------------------
  NO LB      ZA    FRAG     MASS         X           Y           Z
   0 H     1.0000    0     1.008    0.000000    0.000000    0.000000

--------------------------------
INTERNAL COORDINATES (ANGSTROEM)
--------------------------------
 H      0   0   0     0.000000000000     0.00000000     0.00000000

---------------------------
INTERNAL COORDINATES (A.U.)
---------------------------
 H      0   0   0     0.000000000000     0.00000000     0.00000000

---------------------
BASIS SET INFORMATION
---------------------
There are 1 groups of distinct atoms

 Group   1 Type H   : 6s3p2d contracted to 4s3p2d pattern {3111/111/11}

Atom   0H    basis set group =>   1
------------------------------------------------------------------------------
                           ORCA GTO INTEGRAL CALCULATION
------------------------------------------------------------------------------

                         BASIS SET STATISTICS AND STARTUP INFO

 # of primitive gaussian shells          ...   11
 # of primitive gaussian functions       ...   25
 # of contracted shells                  ...    9
 # of contracted basis functions         ...   23
 Highest angular momentum                ...    2
 Maximum contraction depth               ...    3
 Integral package used                   ... LIBINT
 Integral threshhold            Thresh   ...  2.500e-11
 Primitive cut-off              TCut     ...  2.500e-12


------------------------------ INTEGRAL EVALUATION ----------------------------


 * One electron integrals 
 Pre-screening matrix                    ... done
 Shell pair data                         ... done (   0.000 sec)

-------------------------------------------------------------------------------
                                 ORCA SCF
-------------------------------------------------------------------------------

------------
SCF SETTINGS
------------
Hamiltonian:
 Ab initio Hamiltonian  Method          .... Hartree-Fock(GTOs)


General Settings:
 Integral files         IntName         .... 01_H
 Hartree-Fock type      HFTyp           .... UHF
 Total Charge           Charge          ....    0
 Multiplicity           Mult            ....    2
 Number of Electrons    NEL             ....    1
 Basis Dimension        Dim             ....   23
 Nuclear Repulsion      ENuc            ....      0.0000000000 Eh

Convergence Acceleration:
 DIIS                   CNVDIIS         .... on
   Start iteration      DIISMaxIt       ....    12
   Startup error        DIISStart       ....  0.200000
   # of expansion vecs  DIISMaxEq       ....     5
   Bias factor          DIISBfac        ....   1.050
   Max. coefficient     DIISMaxC        ....  10.000
 Newton-Raphson         CNVNR           .... off
 SOSCF                  CNVSOSCF        .... off
 Level Shifting         CNVShift        .... on
   Level shift para.    LevelShift      ....    0.2500
   Turn off err/grad.   ShiftErr        ....    0.0010
 Zerner damping         CNVZerner       .... off
 Static damping         CNVDamp         .... on
   Fraction old density DampFac         ....    0.7000
   Max. Damping (<1)    DampMax         ....    0.9800
   Min. Damping (>=0)   DampMin         ....    0.0000
   Turn off err/grad.   DampErr         ....    0.1000
 Fernandez-Rico         CNVRico         .... off

SCF Procedure:
 Maximum # iterations   MaxIter         ....   125
 SCF integral mode      SCFMode         .... Direct
   Integral package                     .... LIBINT
 Reset frequency        DirectResetFreq ....    20
 Integral Threshold     Thresh          ....  2.500e-11 Eh
 Primitive CutOff       TCut            ....  2.500e-12 Eh

Convergence Tolerance:
 Convergence Check Mode ConvCheckMode   .... Total+1el-Energy
 Convergence forced     ConvForced      .... 1
 Energy Change          TolE            ....  1.000e-08 Eh
 1-El. energy change                    ....  1.000e-05 Eh
 DIIS Error             TolErr          ....  5.000e-07


Diagonalization of the overlap matrix:
Smallest eigenvalue                        ... 6.823e-02
Time for diagonalization                   ...    0.005 sec
Threshold for overlap eigenvalues          ... 1.000e-08
Number of eigenvalues below threshold      ... 0
Time for construction of square roots      ...    0.020 sec
Total time needed                          ...    0.025 sec

-------------------
DFT GRID GENERATION
-------------------

General Integration Accuracy     IntAcc      ...  4.340
Radial Grid Type                 RadialGrid  ... Gauss-Chebyshev
Angular Grid (max. acc.)         AngularGrid ... Lebedev-110
Angular grid pruning method      GridPruning ... 3 (G Style)
Weight generation scheme         WeightScheme... Becke
Basis function cutoff            BFCut       ...    1.0000e-11
Integration weight cutoff        WCut        ...    1.0000e-14
Grids for H and He will be reduced by one unit

# of grid points (after initial pruning)     ...    794 (   0.0 sec)
# of grid points (after weights+screening)   ...    794 (   0.0 sec)
Grid point division into batches done        ...    0.0 sec
Reduced shell lists constructed in    0.0 sec

Total number of grid points                  ...      794
Total number of batches                      ...       13
Average number of points per batch           ...       61
Average number of grid points per atom       ...      794
Average number of shells per batch           ...     8.36 (92.86%)
Average number of basis functions per batch  ...    21.36 (92.86%)
Average number of large shells per batch     ...     8.36 (100.00%)
Average number of large basis fcns per batch ...    21.36 (100.00%)
Maximum spatial batch extension              ...  17.62, 21.59, 21.59 au
Average spatial batch extension              ...   6.10,  8.93,  9.49 au

Time for grid setup =    0.006 sec

------------------------------
INITIAL GUESS: MODEL POTENTIAL
------------------------------
Loading Hartree-Fock densities                     ... done
Calculating cut-offs                               ... done
Setting up the integral package                    ... done
Initializing the effective Hamiltonian             ... done
Starting the Coulomb interaction                   ... done (   0.0 sec)
Reading the grid                                   ... done
Mapping shells                                     ... done
Starting the XC term evaluation                    ... done (   0.0 sec)
Transforming the Hamiltonian                       ... done (   0.0 sec)
Diagonalizing the Hamiltonian                      ... done (   0.0 sec)
Back transforming the eigenvectors                 ... done (   0.0 sec)
Now organizing SCF variables                       ... done
                      ------------------
                      INITIAL GUESS DONE (   0.1 sec)
                      ------------------
--------------
SCF ITERATIONS
--------------
ITER       Energy         Delta-E        Max-DP      RMS-DP      [F,P]     Damp
               ***  Starting incremental Fock matrix formation  ***
  0     -0.4943162061   0.000000000000 0.01241108  0.00055535  0.0442298 0.7000
  1     -0.4953170752  -0.001000869119 0.01245844  0.00056038  0.0378524 0.7000
                               ***Turning on DIIS***
  2     -0.4962450692  -0.000927993982 0.03619803  0.00160403  0.0315508 0.0000
  3     -0.4995727670  -0.003327697889 0.02110882  0.00090049  0.0134927 0.0000
  4     -0.4998555824  -0.000282815325 0.00611101  0.00024919  0.0036639 0.0000
  5     -0.4998291221   0.000026460311 0.00150050  0.00006526  0.0012577 0.0000
  6     -0.4998174539   0.000011668194 0.00075230  0.00003536  0.0004586 0.0000
  7     -0.4998206641  -0.000003210217 0.00014178  0.00000651  0.0000326 0.0000
  8     -0.4998211723  -0.000000508187 0.00001176  0.00000051  0.0000029 0.0000
                 **** Energy Check signals convergence ****

               *****************************************************
               *                     SUCCESS                       *
               *           SCF CONVERGED AFTER   9 CYCLES          *
               *****************************************************


----------------
TOTAL SCF ENERGY
----------------

Total Energy       :           -0.49982118 Eh             -13.60083 eV

Components:
Nuclear Repulsion  :            0.00000000 Eh               0.00000 eV
Electronic Energy  :           -0.49982118 Eh             -13.60083 eV
One Electron Energy:           -0.49982118 Eh             -13.60083 eV
Two Electron Energy:            0.00000000 Eh               0.00000 eV

Virial components:
Potential Energy   :           -0.99912707 Eh             -27.18763 eV
Kinetic Energy     :            0.49930589 Eh              13.58680 eV
Virial Ratio       :            2.00103200


---------------
SCF CONVERGENCE
---------------

  Last Energy change         ...   -3.7213e-09  Tolerance :   1.0000e-08
  Last MAX-Density change    ...    4.0173e-07  Tolerance :   1.0000e-07
  Last RMS-Density change    ...    1.7643e-08  Tolerance :   5.0000e-09
  Last DIIS Error            ...    9.0785e-08  Tolerance :   5.0000e-07

             **** THE GBW FILE WAS UPDATED (01_H.gbw) ****
             **** DENSITY FILE WAS UPDATED (01_H.scfp) ****
             **** ENERGY FILE WAS UPDATED (01_H.en.tmp) ****
----------------------
UHF SPIN CONTAMINATION
----------------------

Expectation value of <S**2>     :     0.750000
Ideal value S*(S+1) for S=0.5   :     0.750000
Deviation                       :     0.000000

             **** THE GBW FILE WAS UPDATED (01_H.gbw) ****
             **** DENSITY FILE WAS UPDATED (01_H.scfp) ****
----------------
ORBITAL ENERGIES
----------------
                 SPIN UP ORBITALS
  NO   OCC          E(Eh)            E(eV) 
   0   1.0000      -0.499821       -13.6008 
   1   0.0000       0.057750         1.5715 
   2   0.0000       0.205840         5.6012 
   3   0.0000       0.205840         5.6012 
   4   0.0000       0.205840         5.6012 
   5   0.0000       0.450835        12.2679 
   6   0.0000       0.806883        21.9564 
   7   0.0000       0.806883        21.9564 
   8   0.0000       0.806883        21.9564 
   9   0.0000       0.806883        21.9564 
  10   0.0000       0.806883        21.9564 
  11   0.0000       0.985070        26.8051 
  12   0.0000       0.985070        26.8051 
  13   0.0000       0.985070        26.8051 
  14   0.0000       2.567992        69.8786 
  15   0.0000       3.839355       104.4742 
  16   0.0000       3.839355       104.4742 
  17   0.0000       3.839355       104.4742 
  18   0.0000       3.839355       104.4742 
  19   0.0000       3.839355       104.4742 
  20   0.0000       4.046461       110.1098 
  21   0.0000       4.046461       110.1098 
  22   0.0000       4.046461       110.1098 

                 SPIN DOWN ORBITALS
  NO   OCC          E(Eh)            E(eV) 
   0   0.0000       0.015600         0.4245 
   1   0.0000       0.123745         3.3673 
   2   0.0000       0.232645         6.3306 
   3   0.0000       0.232645         6.3306 
   4   0.0000       0.232645         6.3306 
   5   0.0000       0.575552        15.6616 
   6   0.0000       0.827531        22.5183 
   7   0.0000       0.827531        22.5183 
   8   0.0000       0.827531        22.5183 
   9   0.0000       0.827531        22.5183 
  10   0.0000       0.827531        22.5183 
  11   0.0000       1.067542        29.0493 
  12   0.0000       1.067542        29.0493 
  13   0.0000       1.067542        29.0493 
  14   0.0000       2.694432        73.3192 
  15   0.0000       3.888770       105.8188 
  16   0.0000       3.888770       105.8188 
  17   0.0000       3.888770       105.8188 
  18   0.0000       3.888770       105.8188 
  19   0.0000       3.888770       105.8188 
  20   0.0000       4.128433       112.3404 
  21   0.0000       4.128433       112.3404 
  22   0.0000       4.128433       112.3404 

                    ********************************
                    * MULLIKEN POPULATION ANALYSIS *
                    ********************************

--------------------------------------------
MULLIKEN ATOMIC CHARGES AND SPIN POPULATIONS
--------------------------------------------
   0 H :   -0.000000    1.000000
Sum of atomic charges         :   -0.0000000
Sum of atomic spin populations:    1.0000000

-----------------------------------------------------
MULLIKEN REDUCED ORBITAL CHARGES AND SPIN POPULATIONS
-----------------------------------------------------
CHARGE
  0 H s       :     1.000000  s :     1.000000
      pz      :     0.000000  p :     0.000000
      px      :     0.000000
      py      :     0.000000
      dz2     :     0.000000  d :     0.000000
      dxz     :     0.000000
      dyz     :     0.000000
      dx2y2   :     0.000000
      dxy     :     0.000000

SPIN
  0 H s       :     1.000000  s :     1.000000
      pz      :     0.000000  p :     0.000000
      px      :     0.000000
      py      :     0.000000
      dz2     :     0.000000  d :     0.000000
      dxz     :     0.000000
      dyz     :     0.000000
      dx2y2   :     0.000000
      dxy     :     0.000000


                     *******************************
                     * LOEWDIN POPULATION ANALYSIS *
                     *******************************

-------------------------------------------
LOEWDIN ATOMIC CHARGES AND SPIN POPULATIONS
-------------------------------------------
   0 H :   -0.000000    1.000000

----------------------------------------------------
LOEWDIN REDUCED ORBITAL CHARGES AND SPIN POPULATIONS
----------------------------------------------------
CHARGE
  0 H s       :     1.000000  s :     1.000000
      pz      :     0.000000  p :     0.000000
      px      :     0.000000
      py      :     0.000000
      dz2     :     0.000000  d :     0.000000
      dxz     :     0.000000
      dyz     :     0.000000
      dx2y2   :     0.000000
      dxy     :     0.000000

SPIN
  0 H s       :     1.000000  s :     1.000000
      pz      :     0.000000  p :     0.000000
      px      :     0.000000
      py      :     0.000000
      dz2     :     0.000000  d :     0.000000
      dxz     :     0.000000
      dyz     :     0.000000
      dx2y2   :     0.000000
      dxy     :     0.000000


                      *****************************
                      * MAYER POPULATION ANALYSIS *
                      *****************************

  NA   - Mulliken gross atomic population
  ZA   - Total nuclear charge
  QA   - Mulliken gross atomic charge
  VA   - Mayer's total valence
  BVA  - Mayer's bonded valence
  FA   - Mayer's free valence

  ATOM       NA         ZA         QA         VA         BVA        FA
  0 H      1.0000     1.0000    -0.0000     1.0000     0.0000     1.0000

  Mayer bond orders larger than 0.100000


Local spin analysis not attempted because no beta electrons available
--------------------------
ATOM BASIS FOR ELEMENT H 
--------------------------
 NewGTO H 
 S 6
    1         33.870000000000         0.006057369429
    2          5.095000000000         0.045228624605
    3          1.159000000000         0.202466674752
    4          0.325800000000         0.506307220202
    5          0.102700000000         0.376592020913
    6          0.025260000000         0.007884940561
 S 6
    1         33.870000000000         0.001760286174
    2          5.095000000000         0.013143547457
    3          1.159000000000         0.058837304278
    4          0.325800000000         0.009949804116
    5          0.102700000000         0.707689527358
    6          0.025260000000        -1.360135055862
 S 6
    1         33.870000000000         0.002546729809
    2          5.095000000000         0.019015694490
    3          1.159000000000         0.085124066121
    4          0.325800000000         1.489274022678
    5          0.102700000000        -2.210344024734
    6          0.025260000000         0.803028415261
 S 6
    1         33.870000000000         0.040009672571
    2          5.095000000000         0.298740646810
    3          1.159000000000         1.337317371485
    4          0.325800000000        -2.098971457758
    5          0.102700000000         1.207315693954
    6          0.025260000000        -0.327076390835
 P 3
    1          1.407000000000         0.032166083302
    2          0.388000000000        -0.089698415907
    3          0.102000000000         1.045908581900
 P 3
    1          1.407000000000        -0.092080555654
    2          0.388000000000         1.310834720866
    3          0.102000000000        -0.708969058265
 P 3
    1          1.407000000000         1.323278682256
    2          0.388000000000        -0.952833656869
    3          0.102000000000         0.309158659052
 D 2
    1          1.057000000000        -0.070438611179
    2          0.247000000000         1.027979506785
 D 2
    1          1.057000000000         1.103106021813
    2          0.247000000000        -0.406279001348
 end
  // -----------------------------------------------
  // The basis set
  // -----------------------------------------------
  BAS[ATNO] = new BFNGauss[NSH];
  // Basis function   1 L = s
  InitBFNGauss(BAS[ATNO][  0]);
  BAS[ATNO][  0].l  = 0;
  BAS[ATNO][  0].ng = 6;
  BAS[ATNO][  0].a[  0] =        33.870000000000;     BAS[ATNO][  0].d[  0] =         0.006057369429;
  BAS[ATNO][  0].a[  1] =         5.095000000000;     BAS[ATNO][  0].d[  1] =         0.045228624605;
  BAS[ATNO][  0].a[  2] =         1.159000000000;     BAS[ATNO][  0].d[  2] =         0.202466674752;
  BAS[ATNO][  0].a[  3] =         0.325800000000;     BAS[ATNO][  0].d[  3] =         0.506307220202;
  BAS[ATNO][  0].a[  4] =         0.102700000000;     BAS[ATNO][  0].d[  4] =         0.376592020913;
  BAS[ATNO][  0].a[  5] =         0.025260000000;     BAS[ATNO][  0].d[  5] =         0.007884940561;

  // Basis function   2 L = s
  InitBFNGauss(BAS[ATNO][  1]);
  BAS[ATNO][  1].l  = 0;
  BAS[ATNO][  1].ng = 6;
  BAS[ATNO][  1].a[  0] =        33.870000000000;     BAS[ATNO][  1].d[  0] =        -0.001760286174;
  BAS[ATNO][  1].a[  1] =         5.095000000000;     BAS[ATNO][  1].d[  1] =        -0.013143547457;
  BAS[ATNO][  1].a[  2] =         1.159000000000;     BAS[ATNO][  1].d[  2] =        -0.058837304278;
  BAS[ATNO][  1].a[  3] =         0.325800000000;     BAS[ATNO][  1].d[  3] =        -0.009949804116;
  BAS[ATNO][  1].a[  4] =         0.102700000000;     BAS[ATNO][  1].d[  4] =        -0.707689527358;
  BAS[ATNO][  1].a[  5] =         0.025260000000;     BAS[ATNO][  1].d[  5] =         1.360135055862;

  // Basis function   3 L = s
  InitBFNGauss(BAS[ATNO][  2]);
  BAS[ATNO][  2].l  = 0;
  BAS[ATNO][  2].ng = 6;
  BAS[ATNO][  2].a[  0] =        33.870000000000;     BAS[ATNO][  2].d[  0] =        -0.002546729809;
  BAS[ATNO][  2].a[  1] =         5.095000000000;     BAS[ATNO][  2].d[  1] =        -0.019015694490;
  BAS[ATNO][  2].a[  2] =         1.159000000000;     BAS[ATNO][  2].d[  2] =        -0.085124066121;
  BAS[ATNO][  2].a[  3] =         0.325800000000;     BAS[ATNO][  2].d[  3] =        -1.489274022678;
  BAS[ATNO][  2].a[  4] =         0.102700000000;     BAS[ATNO][  2].d[  4] =         2.210344024734;
  BAS[ATNO][  2].a[  5] =         0.025260000000;     BAS[ATNO][  2].d[  5] =        -0.803028415261;

  // Basis function   4 L = s
  InitBFNGauss(BAS[ATNO][  3]);
  BAS[ATNO][  3].l  = 0;
  BAS[ATNO][  3].ng = 6;
  BAS[ATNO][  3].a[  0] =        33.870000000000;     BAS[ATNO][  3].d[  0] =        -0.040009672571;
  BAS[ATNO][  3].a[  1] =         5.095000000000;     BAS[ATNO][  3].d[  1] =        -0.298740646810;
  BAS[ATNO][  3].a[  2] =         1.159000000000;     BAS[ATNO][  3].d[  2] =        -1.337317371485;
  BAS[ATNO][  3].a[  3] =         0.325800000000;     BAS[ATNO][  3].d[  3] =         2.098971457758;
  BAS[ATNO][  3].a[  4] =         0.102700000000;     BAS[ATNO][  3].d[  4] =        -1.207315693954;
  BAS[ATNO][  3].a[  5] =         0.025260000000;     BAS[ATNO][  3].d[  5] =         0.327076390835;

  // Basis function   5 L = p
  InitBFNGauss(BAS[ATNO][  4]);
  BAS[ATNO][  4].l  = 1;
  BAS[ATNO][  4].ng = 3;
  BAS[ATNO][  4].a[  0] =         1.407000000000;     BAS[ATNO][  4].d[  0] =         0.032166083302;
  BAS[ATNO][  4].a[  1] =         0.388000000000;     BAS[ATNO][  4].d[  1] =        -0.089698415907;
  BAS[ATNO][  4].a[  2] =         0.102000000000;     BAS[ATNO][  4].d[  2] =         1.045908581900;

  // Basis function   6 L = p
  InitBFNGauss(BAS[ATNO][  5]);
  BAS[ATNO][  5].l  = 1;
  BAS[ATNO][  5].ng = 3;
  BAS[ATNO][  5].a[  0] =         1.407000000000;     BAS[ATNO][  5].d[  0] =        -0.092080555654;
  BAS[ATNO][  5].a[  1] =         0.388000000000;     BAS[ATNO][  5].d[  1] =         1.310834720866;
  BAS[ATNO][  5].a[  2] =         0.102000000000;     BAS[ATNO][  5].d[  2] =        -0.708969058265;

  // Basis function   7 L = p
  InitBFNGauss(BAS[ATNO][  6]);
  BAS[ATNO][  6].l  = 1;
  BAS[ATNO][  6].ng = 3;
  BAS[ATNO][  6].a[  0] =         1.407000000000;     BAS[ATNO][  6].d[  0] =         1.323278682256;
  BAS[ATNO][  6].a[  1] =         0.388000000000;     BAS[ATNO][  6].d[  1] =        -0.952833656869;
  BAS[ATNO][  6].a[  2] =         0.102000000000;     BAS[ATNO][  6].d[  2] =         0.309158659052;

  // Basis function   8 L = d
  InitBFNGauss(BAS[ATNO][  7]);
  BAS[ATNO][  7].l  = 2;
  BAS[ATNO][  7].ng = 2;
  BAS[ATNO][  7].a[  0] =         1.057000000000;     BAS[ATNO][  7].d[  0] =        -0.070438611179;
  BAS[ATNO][  7].a[  1] =         0.247000000000;     BAS[ATNO][  7].d[  1] =         1.027979506785;

  // Basis function   9 L = d
  InitBFNGauss(BAS[ATNO][  8]);
  BAS[ATNO][  8].l  = 2;
  BAS[ATNO][  8].ng = 2;
  BAS[ATNO][  8].a[  0] =         1.057000000000;     BAS[ATNO][  8].d[  0] =         1.103106021813;
  BAS[ATNO][  8].a[  1] =         0.247000000000;     BAS[ATNO][  8].d[  1] =        -0.406279001348;

-------------------------------------------
RADIAL EXPECTATION VALUES <R**-3> TO <R**3>
-------------------------------------------
   0 :     0.000000     1.985039     0.999127     1.501538     3.008307     7.534414
   1 :     0.000000     0.124720     0.201070     6.233479    42.564514   312.386110
   2 :     0.000000     0.913236     0.562174     3.343767    16.035588    99.695293
   3 :     0.000000     9.140292     1.914613     1.347832     3.897044    18.952417
   4 :     0.065211     0.126307     0.327145     3.429708    12.878994    52.196538
   5 :     0.065211     0.126307     0.327145     3.429708    12.878994    52.196538
   6 :     0.065211     0.126307     0.327145     3.429708    12.878994    52.196538
   7 :     0.427582     0.458284     0.610581     2.105014     5.900824    21.222538
   8 :     0.427582     0.458284     0.610581     2.105014     5.900824    21.222538
   9 :     0.427582     0.458284     0.610581     2.105014     5.900824    21.222538
  10 :     3.999708     1.944742     1.231683     1.124823     1.948478     5.190443
  11 :     3.999708     1.944742     1.231683     1.124823     1.948478     5.190443
  12 :     3.999708     1.944742     1.231683     1.124823     1.948478     5.190443
  13 :     0.087345     0.180823     0.408916     2.623048     7.329637   108.458473
  14 :     0.087345     0.180823     0.408916     2.623048     7.329637   108.458473
  15 :     0.087345     0.180823     0.408916     2.623048     7.329637   108.458473
  16 :     0.087345     0.180823     0.408916     2.623048     7.329637   108.458473
  17 :     0.087345     0.180823     0.408916     2.623048     7.329637   108.458473
  18 :     0.971550     0.862377     0.872100     1.331170     2.159059    22.199988
  19 :     0.971550     0.862377     0.872100     1.331170     2.159059    22.199988
  20 :     0.971550     0.862377     0.872100     1.331170     2.159059    22.199988
  21 :     0.971550     0.862377     0.872100     1.331170     2.159059    22.199988
  22 :     0.971550     0.862377     0.872100     1.331170     2.159059    22.199988
-------
TIMINGS
-------

Total SCF time: 0 days 0 hours 0 min 1 sec 

Total time                  ....       1.116 sec
Sum of individual times     ....       0.894 sec  ( 80.1%)

Fock matrix formation       ....       0.766 sec  ( 68.6%)
Diagonalization             ....       0.003 sec  (  0.2%)
Density matrix formation    ....       0.000 sec  (  0.0%)
Population analysis         ....       0.015 sec  (  1.3%)
Initial guess               ....       0.088 sec  (  7.9%)
Orbital Transformation      ....       0.000 sec  (  0.0%)
Orbital Orthonormalization  ....       0.000 sec  (  0.0%)
DIIS solution               ....       0.017 sec  (  1.5%)

------------------------------------------------------------------------------
                                ORCA  MP2 
------------------------------------------------------------------------------

Freezing NCore=0 chemical core electrons
Warning: Single electron - no MP2 correction

---------------------------------------
MP2 TOTAL ENERGY:       -0.499821176 Eh
---------------------------------------

-------------------------   --------------------
FINAL SINGLE POINT ENERGY        -0.499821175990
-------------------------   --------------------


                            ***************************************
                            *     ORCA property calculations      *
                            ***************************************


  WARNING: The energy has been calculated at the MP2 level but the densities
           used in the property calculations are still SCF densities
           MP2 response densities have not been calculated 
           use %mp2 Density relaxed end
           or  %mp2 Density unrelaxed end

                                    ---------------------
                                    Active property flags
                                    ---------------------
   (+) Dipole Moment


------------------------------------------------------------------------------
                       ORCA ELECTRIC PROPERTIES CALCULATION
------------------------------------------------------------------------------

Dipole Moment Calculation                       ... on
Quadrupole Moment Calculation                   ... off
Polarizability Calculation                      ... off
GBWName                                         ... 01_H.gbw
Electron density file                           ... 01_H.scfp
The origin for moment calculation is the CENTER OF MASS  = ( 0.000000,  0.000000  0.000000)

-------------
DIPOLE MOMENT
-------------
                                X             Y             Z
Electronic contribution:      0.00000      -0.00000       0.00000
Nuclear contribution   :      0.00000       0.00000       0.00000
                        -----------------------------------------
Total Dipole Moment    :      0.00000      -0.00000       0.00000
                        -----------------------------------------
Magnitude (a.u.)       :      0.00000
Magnitude (Debye)      :      0.00000



--------------------
Rotational spectrum 
--------------------
 
Rotational constants in cm-1:     0.000000     0.000000     0.000000 
Rotational constants in MHz :     0.000000     0.000000     0.000000 

 Dipole components along the rotational axes: 
x,y,z [a.u.] :     0.000000    -0.000000     0.000000 
x,y,z [Debye]:     0.000000    -0.000000     0.000000 

 

Timings for individual modules:

Sum of individual times         ...        1.854 sec (=   0.031 min)
GTO integral calculation        ...        0.365 sec (=   0.006 min)  19.7 %
SCF iterations                  ...        1.318 sec (=   0.022 min)  71.1 %
MP2 module                      ...        0.171 sec (=   0.003 min)   9.2 %
                             ****ORCA TERMINATED NORMALLY****
TOTAL RUN TIME: 0 days 0 hours 0 minutes 2 seconds 198 msec
