
                                 *****************
                                 * O   R   C   A *
                                 *****************

           --- An Ab Initio, DFT and Semiempirical electronic structure package ---

                  #######################################################
                  #                        -***-                        #
                  #          Department of theory and spectroscopy      #
                  #               Directorship: Frank Neese             #
                  #        Max Planck Institute fuer Kohlenforschung    #
                  #                Kaiser Wilhelm Platz 1               #
                  #                 D-45470 Muelheim/Ruhr               #
                  #                      Germany                        #
                  #                                                     #
                  #                  All rights reserved                #
                  #                        -***-                        #
                  #######################################################


                         Program Version 4.2.0 -  RELEASE  -


 With contributions from (in alphabetic order):
   Daniel Aravena         : Magnetic Suceptibility
   Michael Atanasov       : Ab Initio Ligand Field Theory (pilot matlab implementation)
   Alexander A. Auer      : GIAO ZORA, VPT2
   Ute Becker             : Parallelization
   Giovanni Bistoni       : ED, misc. LED, open-shell LED, HFLED
   Martin Brehm           : Molecular dynamics
   Dmytro Bykov           : SCF Hessian
   Vijay G. Chilkuri      : MRCI spin determinant printing, contributions to CSF-ICE
   Dipayan Datta          : RHF DLPNO-CCSD density
   Achintya Kumar Dutta   : EOM-CC, STEOM-CC
   Dmitry Ganyushin       : Spin-Orbit,Spin-Spin,Magnetic field MRCI
   Miquel Garcia          : C-PCM Hessian, Gaussian charge scheme
   Yang Guo               : DLPNO-NEVPT2, CIM, IAO-localization
   Andreas Hansen         : Spin unrestricted coupled pair/coupled cluster methods
   Benjamin Helmich-Paris : CASSCF linear response (MC-RPA)
   Lee Huntington         : MR-EOM, pCC
   Robert Izsak           : Overlap fitted RIJCOSX, COSX-SCS-MP3, EOM
   Christian Kollmar      : KDIIS, OOCD, Brueckner-CCSD(T), CCSD density
   Simone Kossmann        : Meta GGA functionals, TD-DFT gradient, OOMP2, MP2 Hessian
   Martin Krupicka        : AUTO-CI
   Lucas Lang             : DCDCAS
   Dagmar Lenk            : GEPOL surface, SMD
   Dimitrios Liakos       : Extrapolation schemes; Compound Job, initial MDCI parallelization
   Dimitrios Manganas     : Further ROCIS development; embedding schemes
   Dimitrios Pantazis     : SARC Basis sets
   Taras Petrenko         : DFT Hessian,TD-DFT gradient, ASA, ECA, R-Raman, ABS, FL, XAS/XES, NRVS
   Peter Pinski           : DLPNO-MP2, DLPNO-MP2 Gradient
   Christoph Reimann      : Effective Core Potentials
   Marius Retegan         : Local ZFS, SOC
   Christoph Riplinger    : Optimizer, TS searches, QM/MM, DLPNO-CCSD(T), (RO)-DLPNO pert. Triples
   Tobias Risthaus        : Range-separated hybrids, TD-DFT gradient, RPA, STAB
   Michael Roemelt        : Original ROCIS implementation
   Masaaki Saitow         : Open-shell DLPNO-CCSD energy and density
   Barbara Sandhoefer     : DKH picture change effects
   Avijit Sen             : IP-ROCIS
   Kantharuban Sivalingam : CASSCF convergence, NEVPT2, FIC-MRCI
   Bernardo de Souza      : ESD, SOC TD-DFT
   Georgi Stoychev        : AutoAux, RI-MP2 NMR
   Willem Van den Heuvel  : Paramagnetic NMR
   Boris Wezisla          : Elementary symmetry handling
   Frank Wennmohs         : Technical directorship


 We gratefully acknowledge several colleagues who have allowed us to
 interface, adapt or use parts of their codes:
   Stefan Grimme, W. Hujo, H. Kruse,             : VdW corrections, initial TS optimization,
                  C. Bannwarth                     DFT functionals, gCP, sTDA/sTD-DF
   Ed Valeev, F. Pavosevic, A. Kumar             : LibInt (2-el integral package), F12 methods
   Garnet Chan, S. Sharma, J. Yang, R. Olivares  : DMRG
   Ulf Ekstrom                                   : XCFun DFT Library
   Mihaly Kallay                                 : mrcc  (arbitrary order and MRCC methods)
   Andreas Klamt, Michael Diedenhofen            : otool_cosmo (COSMO solvation model)
   Jiri Pittner, Ondrej Demel                    : Mk-CCSD
   Frank Weinhold                                : gennbo (NPA and NBO analysis)
   Christopher J. Cramer and Donald G. Truhlar   : smd solvation model
   Lars Goerigk                                  : TD-DFT with DH, B97 family of functionals
   V. Asgeirsson, H. Jonsson                     : NEB implementation
   FAccTs GmbH                                   : IRC, NEB, NEB-TS, Multilevel, MM, QM/MM, CI optimization
   S Lehtola, MJT Oliveira, MAL Marques          : LibXC Library


 Your calculation uses the libint2 library for the computation of 2-el integrals
 For citations please refer to: http://libint.valeyev.net

 Your ORCA version has been built with support for libXC version: 4.2.3
 For citations please refer to: https://tddft.org/programs/libxc/

 This ORCA versions uses:
   CBLAS   interface :  Fast vector & matrix operations
   LAPACKE interface :  Fast linear algebra routines
   SCALAPACK package :  Parallel linear algebra routines


----- Orbital basis set information -----
Your calculation utilizes the basis: aug-cc-pV(T+d)Z 
             Al - Ar: T.H. Dunning, Jr., K. A. Peterson and A. K. Wilson, J. Chem. Phys.
                      114, 9244 (2001)

================================================================================
                                        WARNINGS
                       Please study these warnings very carefully!
================================================================================


WARNING: your system is open-shell and RHF/RKS was chosen
  ===> : WILL SWITCH to UHF/UKS


WARNING: MDCI localization with Augmented Hessian Foster-Boys
  ===> : Switching off randomization!

WARNING: Post HF methods need fully converged wavefunctions
  ===> : Setting SCFConvForced true
         You can overwrite this default with %scf ConvForced false 


INFO   : the flag for use of LIBINT has been found!

================================================================================
                                       INPUT FILE
================================================================================
NAME = 05_B.in
|  1> #
|  2> # 05_B CCSD(T)/aug-cc-pvt(+d)z
|  3> #
|  4> ! CCSD(T) aug-cc-pvt(+d)z tightscf
|  5> 
|  6> *xyz 0 2
|  7>  B 0.0 0.0 0.0
|  8> *
|  9> 
| 10> %maxcore 5000 
| 11> 
| 12> %pal
| 13> nprocs 3 
| 14> end
| 15> 
| 16> 
| 17>                          ****END OF INPUT****
================================================================================

                       ****************************
                       * Single Point Calculation *
                       ****************************

---------------------------------
CARTESIAN COORDINATES (ANGSTROEM)
---------------------------------
  B      0.000000    0.000000    0.000000

----------------------------
CARTESIAN COORDINATES (A.U.)
----------------------------
  NO LB      ZA    FRAG     MASS         X           Y           Z
   0 B     5.0000    0    10.810    0.000000    0.000000    0.000000

--------------------------------
INTERNAL COORDINATES (ANGSTROEM)
--------------------------------
 B      0   0   0     0.000000000000     0.00000000     0.00000000

---------------------------
INTERNAL COORDINATES (A.U.)
---------------------------
 B      0   0   0     0.000000000000     0.00000000     0.00000000

---------------------
BASIS SET INFORMATION
---------------------
There are 1 groups of distinct atoms

 Group   1 Type B   : 19s6p3d2f contracted to 5s4p3d2f pattern {88111/3111/111/11}

Atom   0B    basis set group =>   1


           ************************************************************
           *        Program running with 3 parallel MPI-processes     *
           *              working on a common directory               *
           ************************************************************
------------------------------------------------------------------------------
                           ORCA GTO INTEGRAL CALCULATION
------------------------------------------------------------------------------

                         BASIS SET STATISTICS AND STARTUP INFO

 # of primitive gaussian shells          ...   30
 # of primitive gaussian functions       ...   66
 # of contracted shells                  ...   14
 # of contracted basis functions         ...   46
 Highest angular momentum                ...    3
 Maximum contraction depth               ...    8
 Integral package used                   ... LIBINT
 Integral threshhold            Thresh   ...  2.500e-11
 Primitive cut-off              TCut     ...  2.500e-12


------------------------------ INTEGRAL EVALUATION ----------------------------


 * One electron integrals 
 Pre-screening matrix                    ... done
 Shell pair data                         ... done (   0.000 sec)



           ************************************************************
           *        Program running with 3 parallel MPI-processes     *
           *              working on a common directory               *
           ************************************************************
-------------------------------------------------------------------------------
                                 ORCA SCF
-------------------------------------------------------------------------------

------------
SCF SETTINGS
------------
Hamiltonian:
 Ab initio Hamiltonian  Method          .... Hartree-Fock(GTOs)


General Settings:
 Integral files         IntName         .... 05_B
 Hartree-Fock type      HFTyp           .... UHF
 Total Charge           Charge          ....    0
 Multiplicity           Mult            ....    2
 Number of Electrons    NEL             ....    5
 Basis Dimension        Dim             ....   46
 Nuclear Repulsion      ENuc            ....      0.0000000000 Eh

Convergence Acceleration:
 DIIS                   CNVDIIS         .... on
   Start iteration      DIISMaxIt       ....    12
   Startup error        DIISStart       ....  0.200000
   # of expansion vecs  DIISMaxEq       ....     5
   Bias factor          DIISBfac        ....   1.050
   Max. coefficient     DIISMaxC        ....  10.000
 Newton-Raphson         CNVNR           .... off
 SOSCF                  CNVSOSCF        .... off
 Level Shifting         CNVShift        .... on
   Level shift para.    LevelShift      ....    0.2500
   Turn off err/grad.   ShiftErr        ....    0.0010
 Zerner damping         CNVZerner       .... off
 Static damping         CNVDamp         .... on
   Fraction old density DampFac         ....    0.7000
   Max. Damping (<1)    DampMax         ....    0.9800
   Min. Damping (>=0)   DampMin         ....    0.0000
   Turn off err/grad.   DampErr         ....    0.1000
 Fernandez-Rico         CNVRico         .... off

SCF Procedure:
 Maximum # iterations   MaxIter         ....   125
 SCF integral mode      SCFMode         .... Direct
   Integral package                     .... LIBINT
 Reset frequency        DirectResetFreq ....    20
 Integral Threshold     Thresh          ....  2.500e-11 Eh
 Primitive CutOff       TCut            ....  2.500e-12 Eh

Convergence Tolerance:
 Convergence Check Mode ConvCheckMode   .... Total+1el-Energy
 Convergence forced     ConvForced      .... 1
 Energy Change          TolE            ....  1.000e-08 Eh
 1-El. energy change                    ....  1.000e-05 Eh
 DIIS Error             TolErr          ....  5.000e-07


Diagonalization of the overlap matrix:
Smallest eigenvalue                        ... 2.505e-02
Time for diagonalization                   ...    0.013 sec
Threshold for overlap eigenvalues          ... 1.000e-08
Number of eigenvalues below threshold      ... 0
Time for construction of square roots      ...    0.009 sec
Total time needed                          ...    0.023 sec

-------------------
DFT GRID GENERATION
-------------------

General Integration Accuracy     IntAcc      ...  4.340
Radial Grid Type                 RadialGrid  ... Gauss-Chebyshev
Angular Grid (max. acc.)         AngularGrid ... Lebedev-110
Angular grid pruning method      GridPruning ... 3 (G Style)
Weight generation scheme         WeightScheme... Becke
Basis function cutoff            BFCut       ...    1.0000e-11
Integration weight cutoff        WCut        ...    1.0000e-14
Grids for H and He will be reduced by one unit

# of grid points (after initial pruning)     ...   1678 (   0.0 sec)
# of grid points (after weights+screening)   ...   1678 (   0.0 sec)
Grid point division into batches done        ...    0.0 sec
Reduced shell lists constructed in    0.0 sec

Total number of grid points                  ...     1678
Total number of batches                      ...       27
Average number of points per batch           ...       62
Average number of grid points per atom       ...     1678
Average number of shells per batch           ...    12.40 (88.57%)
Average number of basis functions per batch  ...    40.80 (88.70%)
Average number of large shells per batch     ...    10.40 (83.87%)
Average number of large basis fcns per batch ...    34.40 (84.31%)
Maximum spatial batch extension              ...  20.06, 37.06, 37.06 au
Average spatial batch extension              ...   5.79,  7.44,  8.86 au

Time for grid setup =    0.018 sec

------------------------------
INITIAL GUESS: MODEL POTENTIAL
------------------------------
Loading Hartree-Fock densities                     ... done
Calculating cut-offs                               ... done
Setting up the integral package                    ... done
Initializing the effective Hamiltonian             ... done
Starting the Coulomb interaction                   ... done (   0.0 sec)
Reading the grid                                   ... done
Mapping shells                                     ... done
Starting the XC term evaluation                    ... done (   0.0 sec)
Transforming the Hamiltonian                       ... done (   0.0 sec)
Diagonalizing the Hamiltonian                      ... done (   0.0 sec)
Back transforming the eigenvectors                 ... done (   0.0 sec)
Now organizing SCF variables                       ... done
                      ------------------
                      INITIAL GUESS DONE (   0.1 sec)
                      ------------------
--------------
SCF ITERATIONS
--------------
ITER       Energy         Delta-E        Max-DP      RMS-DP      [F,P]     Damp
               ***  Starting incremental Fock matrix formation  ***
  0    -24.5231871971   0.000000000000 0.01331200  0.00043675  0.1279236 0.7000
  1    -24.5252554955  -0.002068298417 0.00981411  0.00034816  0.0927465 0.7000
                               ***Turning on DIIS***
  2    -24.5269155643  -0.001660068753 0.02345364  0.00088455  0.0666118 0.0000
  3    -24.5306921053  -0.003776540994 0.00818275  0.00021769  0.0050459 0.0000
  4    -24.5312271396  -0.000535034337 0.00559133  0.00016459  0.0033025 0.0000
  5    -24.5308086425   0.000418497172 0.00306333  0.00010274  0.0018902 0.0000
  6    -24.5312063166  -0.000397674193 0.00190642  0.00006538  0.0009469 0.0000
  7    -24.5320185297  -0.000812213054 0.00026709  0.00001014  0.0001359 0.0000
  8    -24.5321619486  -0.000143418878 0.00003964  0.00000174  0.0000297 0.0000
  9    -24.5321687470  -0.000006798448 0.00001220  0.00000042  0.0000039 0.0000
 10    -24.5321705092  -0.000001762200 0.00000319  0.00000011  0.0000010 0.0000
                            ***DIIS convergence achieved***

               *****************************************************
               *                     SUCCESS                       *
               *           SCF CONVERGED AFTER  11 CYCLES          *
               *****************************************************


----------------
TOTAL SCF ENERGY
----------------

Total Energy       :          -24.53217136 Eh            -667.55432 eV

Components:
Nuclear Repulsion  :            0.00000000 Eh               0.00000 eV
Electronic Energy  :          -24.53217136 Eh            -667.55432 eV
One Electron Energy:          -32.36546068 Eh            -880.70896 eV
Two Electron Energy:            7.83328932 Eh             213.15464 eV

Virial components:
Potential Energy   :          -49.05922979 Eh           -1334.96951 eV
Kinetic Energy     :           24.52705843 Eh             667.41519 eV
Virial Ratio       :            2.00020846


---------------
SCF CONVERGENCE
---------------

  Last Energy change         ...   -8.5324e-07  Tolerance :   1.0000e-08
  Last MAX-Density change    ...    6.0289e-07  Tolerance :   1.0000e-07
  Last RMS-Density change    ...    2.0772e-08  Tolerance :   5.0000e-09
  Last DIIS Error            ...    2.0934e-07  Tolerance :   5.0000e-07

             **** THE GBW FILE WAS UPDATED (05_B.gbw) ****
             **** DENSITY FILE WAS UPDATED (05_B.scfp) ****
             **** ENERGY FILE WAS UPDATED (05_B.en.tmp) ****
----------------------
UHF SPIN CONTAMINATION
----------------------

Expectation value of <S**2>     :     0.761194
Ideal value S*(S+1) for S=0.5   :     0.750000
Deviation                       :     0.011194

             **** THE GBW FILE WAS UPDATED (05_B.gbw) ****
             **** DENSITY FILE WAS UPDATED (05_B.scfp) ****
----------------
ORBITAL ENERGIES
----------------
                 SPIN UP ORBITALS
  NO   OCC          E(Eh)            E(eV) 
   0   1.0000      -7.701722      -209.5745 
   1   1.0000      -0.545400       -14.8411 
   2   1.0000      -0.318486        -8.6664 
   3   0.0000       0.024844         0.6760 
   4   0.0000       0.024844         0.6760 
   5   0.0000       0.059109         1.6084 
   6   0.0000       0.065688         1.7874 
   7   0.0000       0.088490         2.4079 
   8   0.0000       0.088490         2.4079 
   9   0.0000       0.188163         5.1202 
  10   0.0000       0.188163         5.1202 
  11   0.0000       0.189054         5.1444 
  12   0.0000       0.189054         5.1444 
  13   0.0000       0.189772         5.1640 
  14   0.0000       0.345169         9.3925 
  15   0.0000       0.391032        10.6405 
  16   0.0000       0.391032        10.6405 
  17   0.0000       0.506099        13.7716 
  18   0.0000       0.652849        17.7649 
  19   0.0000       0.655395        17.8342 
  20   0.0000       0.655395        17.8342 
  21   0.0000       0.666342        18.1321 
  22   0.0000       0.666342        18.1321 
  23   0.0000       0.667275        18.1575 
  24   0.0000       0.667275        18.1575 
  25   0.0000       0.672553        18.3011 
  26   0.0000       0.672553        18.3011 
  27   0.0000       0.676272        18.4023 
  28   0.0000       0.676272        18.4023 
  29   0.0000       0.677486        18.4353 
  30   0.0000       1.523051        41.4443 
  31   0.0000       1.550615        42.1944 
  32   0.0000       1.550615        42.1944 
  33   0.0000       2.116922        57.6044 
  34   0.0000       2.118214        57.6395 
  35   0.0000       2.118214        57.6395 
  36   0.0000       2.122979        57.7692 
  37   0.0000       2.122979        57.7692 
  38   0.0000       2.202113        59.9226 
  39   0.0000       2.202113        59.9226 
  40   0.0000       2.211760        60.1850 
  41   0.0000       2.211760        60.1850 
  42   0.0000       2.217452        60.3399 
  43   0.0000       2.217452        60.3399 
  44   0.0000       2.219332        60.3911 
  45   0.0000       3.173761        86.3624 

                 SPIN DOWN ORBITALS
  NO   OCC          E(Eh)            E(eV) 
   0   1.0000      -7.686734      -209.1667 
   1   1.0000      -0.446540       -12.1510 
   2   0.0000       0.029223         0.7952 
   3   0.0000       0.029223         0.7952 
   4   0.0000       0.043896         1.1945 
   5   0.0000       0.070513         1.9188 
   6   0.0000       0.095997         2.6122 
   7   0.0000       0.095997         2.6122 
   8   0.0000       0.131237         3.5711 
   9   0.0000       0.188351         5.1253 
  10   0.0000       0.188351         5.1253 
  11   0.0000       0.197142         5.3645 
  12   0.0000       0.197142         5.3645 
  13   0.0000       0.200400         5.4532 
  14   0.0000       0.400672        10.9029 
  15   0.0000       0.400672        10.9029 
  16   0.0000       0.438549        11.9335 
  17   0.0000       0.529959        14.4209 
  18   0.0000       0.666290        18.1307 
  19   0.0000       0.666290        18.1307 
  20   0.0000       0.669594        18.2206 
  21   0.0000       0.669594        18.2206 
  22   0.0000       0.680685        18.5224 
  23   0.0000       0.680685        18.5224 
  24   0.0000       0.689683        18.7672 
  25   0.0000       0.689683        18.7672 
  26   0.0000       0.692769        18.8512 
  27   0.0000       0.698669        19.0118 
  28   0.0000       0.698669        19.0118 
  29   0.0000       0.709815        19.3150 
  30   0.0000       1.560293        42.4577 
  31   0.0000       1.560293        42.4577 
  32   0.0000       1.604295        43.6551 
  33   0.0000       2.129130        57.9366 
  34   0.0000       2.129130        57.9366 
  35   0.0000       2.169950        59.0473 
  36   0.0000       2.169950        59.0473 
  37   0.0000       2.184621        59.4466 
  38   0.0000       2.203806        59.9686 
  39   0.0000       2.203806        59.9686 
  40   0.0000       2.233845        60.7860 
  41   0.0000       2.233845        60.7860 
  42   0.0000       2.252474        61.2929 
  43   0.0000       2.252474        61.2929 
  44   0.0000       2.258811        61.4654 
  45   0.0000       3.195226        86.9465 

                    ********************************
                    * MULLIKEN POPULATION ANALYSIS *
                    ********************************

--------------------------------------------
MULLIKEN ATOMIC CHARGES AND SPIN POPULATIONS
--------------------------------------------
   0 B :    0.000000    1.000000
Sum of atomic charges         :    0.0000000
Sum of atomic spin populations:    1.0000000

-----------------------------------------------------
MULLIKEN REDUCED ORBITAL CHARGES AND SPIN POPULATIONS
-----------------------------------------------------
CHARGE
  0 B s       :     3.994967  s :     3.994967
      pz      :     0.000000  p :     0.999985
      px      :     0.000000
      py      :     0.999985
      dz2     :     0.001258  d :     0.005033
      dxz     :     0.000000
      dyz     :     0.000000
      dx2y2   :     0.003775
      dxy     :     0.000000
      f0      :     0.000000  f :     0.000015
      f+1     :     0.000000
      f-1     :     0.000006
      f+2     :     0.000000
      f-2     :     0.000000
      f+3     :     0.000000
      f-3     :     0.000010

SPIN
  0 B s       :    -0.001037  s :    -0.001037
      pz      :     0.000000  p :     0.999985
      px      :     0.000000
      py      :     0.999985
      dz2     :     0.000259  d :     0.001037
      dxz     :     0.000000
      dyz     :     0.000000
      dx2y2   :     0.000778
      dxy     :     0.000000
      f0      :     0.000000  f :     0.000015
      f+1     :     0.000000
      f-1     :     0.000006
      f+2     :     0.000000
      f-2     :    -0.000000
      f+3     :     0.000000
      f-3     :     0.000010


                     *******************************
                     * LOEWDIN POPULATION ANALYSIS *
                     *******************************

-------------------------------------------
LOEWDIN ATOMIC CHARGES AND SPIN POPULATIONS
-------------------------------------------
   0 B :    0.000000    1.000000

----------------------------------------------------
LOEWDIN REDUCED ORBITAL CHARGES AND SPIN POPULATIONS
----------------------------------------------------
CHARGE
  0 B s       :     3.994967  s :     3.994967
      pz      :     0.000000  p :     0.999985
      px      :     0.000000
      py      :     0.999985
      dz2     :     0.001258  d :     0.005033
      dxz     :     0.000000
      dyz     :     0.000000
      dx2y2   :     0.003775
      dxy     :     0.000000
      f0      :     0.000000  f :     0.000015
      f+1     :     0.000000
      f-1     :     0.000006
      f+2     :     0.000000
      f-2     :     0.000000
      f+3     :     0.000000
      f-3     :     0.000010

SPIN
  0 B s       :    -0.001037  s :    -0.001037
      pz      :     0.000000  p :     0.999985
      px      :     0.000000
      py      :     0.999985
      dz2     :     0.000259  d :     0.001037
      dxz     :     0.000000
      dyz     :     0.000000
      dx2y2   :     0.000778
      dxy     :     0.000000
      f0      :     0.000000  f :     0.000015
      f+1     :     0.000000
      f-1     :     0.000006
      f+2     :     0.000000
      f-2     :     0.000000
      f+3     :     0.000000
      f-3     :     0.000010


                      *****************************
                      * MAYER POPULATION ANALYSIS *
                      *****************************

  NA   - Mulliken gross atomic population
  ZA   - Total nuclear charge
  QA   - Mulliken gross atomic charge
  VA   - Mayer's total valence
  BVA  - Mayer's bonded valence
  FA   - Mayer's free valence

  ATOM       NA         ZA         QA         VA         BVA        FA
  0 B      5.0000     5.0000    -0.0000     1.0224     0.0000     1.0224

  Mayer bond orders larger than 0.100000


-------
TIMINGS
-------

Total SCF time: 0 days 0 hours 0 min 1 sec 

Total time                  ....       1.487 sec
Sum of individual times     ....       1.258 sec  ( 84.6%)

Fock matrix formation       ....       1.091 sec  ( 73.4%)
Diagonalization             ....       0.017 sec  (  1.1%)
Density matrix formation    ....       0.002 sec  (  0.1%)
Population analysis         ....       0.017 sec  (  1.2%)
Initial guess               ....       0.084 sec  (  5.7%)
Orbital Transformation      ....       0.000 sec  (  0.0%)
Orbital Orthonormalization  ....       0.000 sec  (  0.0%)
DIIS solution               ....       0.029 sec  (  1.9%)


           ************************************************************
           *        Program running with 3 parallel MPI-processes     *
           *              working on a common directory               *
           ************************************************************


------------------------------------------------------------------------------- 
                              ORCA-MATRIX DRIVEN CI                            
------------------------------------------------------------------------------- 

--------------------------------
AUTOMATIC CHOICE OF INCORE LEVEL
--------------------------------

Memory available                           ...   2500.00 MB
Memory needed for S+T                      ...      0.13 MB
Memory needed for J+K                      ...      0.26 MB
Memory needed for DIIS                     ...      1.78 MB
Memory needed for 3-ext                    ...      1.21 MB
Memory needed for 4-ext                    ...     13.34 MB
Memory needed for triples                  ...      3.03 MB
 -> Final InCoreLevel    ... 5
 -> check shows that triples correction can be computed


Wavefunction type
-----------------
Correlation treatment                      ...      CCSD     
Single excitations                         ... ON
Orbital optimization                       ... OFF
Calculation of Z vector                    ... OFF
Calculation of Brueckner orbitals          ... OFF
Perturbative triple excitations            ... ON
Calculation of F12 correction              ... OFF
Frozen core treatment                      ... chemical core (2 el)
Reference Wavefunction                     ... UHF
  Alpha-MOs occ    :     1 ...    2 (  2 MO's/  2 electrons)
  Beta-MOs occ     :     1 ...    1 (  1 MO's/  1 electrons)
  Alpha-MOs virt   :     3 ...   45 ( 43 MO's              )
  Beta-MOs virt    :     2 ...   45 ( 44 MO's              )
Number of AO's                             ...     46
Number of electrons                        ...      5
Number of correlated electrons             ...      3

Algorithmic settings
--------------------
Integral transformation                    ... AO direct full transformation
K(C) Formation                             ... FULL-MO TRAFO
Maximum number of iterations               ...        50
Convergence tolerance (max. residuum)      ... 1.000e-05
Level shift for amplitude update           ... 2.000e-01
Maximum number of DIIS vectors             ...         7
DIIS turned on at iteration                ...         0
Damping before turning on DIIS             ...     0.500
Damping after turning on DIIS              ...     0.000
Pair specific amplitude update             ... OFF
Natural orbital iterations                 ... OFF
Perturbative natural orbital generation    ... OFF
Printlevel                                 ... 2

Memory handling:
----------------
Maximum memory for working arrays          ...   2500 MB
Data storage in matrix containers          ... UNCOMPRESSED
Data type for integral storage             ... DOUBLE
In-Core Storage of quantities:
   Amplitudes+Sigma Vector      ... YES
   J+K operators                ... YES
   DIIS vectors                 ... YES
   3-external integrals         ... YES
   4-external integrals         ... YES


Initializing the integral package          ... done
Warning: reference  - re-canonicalizations have been set to INT 1 VIRT 1

--------------------------
UNRESTRICTED FOCK OPERATOR
--------------------------

<ss|ss>:          120 b            0 skpd (  0.0%)    0.000 s ( 0.003 ms/b)
<ss|sp>:          300 b            0 skpd (  0.0%)    0.001 s ( 0.002 ms/b)
<ss|sd>:          225 b            0 skpd (  0.0%)    0.000 s ( 0.002 ms/b)
<ss|sf>:          150 b            0 skpd (  0.0%)    0.001 s ( 0.004 ms/b)
<ss|pp>:          150 b            0 skpd (  0.0%)    0.000 s ( 0.002 ms/b)
<ss|pd>:          180 b            0 skpd (  0.0%)    0.000 s ( 0.001 ms/b)
<ss|pf>:          120 b            0 skpd (  0.0%)    0.000 s ( 0.002 ms/b)
<ss|dd>:           90 b            0 skpd (  0.0%)    0.000 s ( 0.001 ms/b)
<ss|df>:           90 b            0 skpd (  0.0%)    0.000 s ( 0.002 ms/b)
<ss|ff>:           45 b            0 skpd (  0.0%)    0.000 s ( 0.003 ms/b)
<sp|sp>:          210 b            0 skpd (  0.0%)    0.000 s ( 0.001 ms/b)
<sp|sd>:          300 b            0 skpd (  0.0%)    0.000 s ( 0.001 ms/b)
<sp|sf>:          200 b            0 skpd (  0.0%)    0.001 s ( 0.003 ms/b)
<sp|pp>:          200 b            0 skpd (  0.0%)    0.000 s ( 0.002 ms/b)
<sp|pd>:          240 b            0 skpd (  0.0%)    0.000 s ( 0.001 ms/b)
<sp|pf>:          160 b            0 skpd (  0.0%)    0.000 s ( 0.002 ms/b)
<sp|dd>:          120 b            0 skpd (  0.0%)    0.000 s ( 0.002 ms/b)
<sp|df>:          120 b            0 skpd (  0.0%)    0.000 s ( 0.003 ms/b)
<sp|ff>:           60 b            0 skpd (  0.0%)    0.000 s ( 0.004 ms/b)
<sd|sd>:          120 b            0 skpd (  0.0%)    0.000 s ( 0.002 ms/b)
<sd|sf>:          150 b            0 skpd (  0.0%)    0.001 s ( 0.004 ms/b)
<sd|pp>:          150 b            0 skpd (  0.0%)    0.000 s ( 0.002 ms/b)
<sd|pd>:          180 b            0 skpd (  0.0%)    0.000 s ( 0.002 ms/b)
<sd|pf>:          120 b            0 skpd (  0.0%)    0.000 s ( 0.003 ms/b)
<sd|dd>:           90 b            0 skpd (  0.0%)    0.000 s ( 0.003 ms/b)
<sd|df>:           90 b            0 skpd (  0.0%)    0.000 s ( 0.005 ms/b)
<sd|ff>:           45 b            0 skpd (  0.0%)    0.000 s ( 0.007 ms/b)
<sf|sf>:           55 b            0 skpd (  0.0%)    0.001 s ( 0.010 ms/b)
<sf|pp>:          100 b            0 skpd (  0.0%)    0.000 s ( 0.004 ms/b)
<sf|pd>:          120 b            0 skpd (  0.0%)    0.000 s ( 0.003 ms/b)
<sf|pf>:           80 b            0 skpd (  0.0%)    0.000 s ( 0.006 ms/b)
<sf|dd>:           60 b            0 skpd (  0.0%)    0.000 s ( 0.005 ms/b)
<sf|df>:           60 b            0 skpd (  0.0%)    0.001 s ( 0.009 ms/b)
<sf|ff>:           30 b            0 skpd (  0.0%)    0.000 s ( 0.016 ms/b)
<pp|pp>:           55 b            0 skpd (  0.0%)    0.000 s ( 0.003 ms/b)
<pp|pd>:          120 b            0 skpd (  0.0%)    0.000 s ( 0.003 ms/b)
<pp|pf>:           80 b            0 skpd (  0.0%)    0.000 s ( 0.004 ms/b)
<pp|dd>:           60 b            0 skpd (  0.0%)    0.000 s ( 0.003 ms/b)
<pp|df>:           60 b            0 skpd (  0.0%)    0.000 s ( 0.006 ms/b)
<pp|ff>:           30 b            0 skpd (  0.0%)    0.000 s ( 0.008 ms/b)
<pd|pd>:           78 b            0 skpd (  0.0%)    0.000 s ( 0.005 ms/b)
<pd|pf>:           96 b            0 skpd (  0.0%)    0.001 s ( 0.006 ms/b)
<pd|dd>:           72 b            0 skpd (  0.0%)    0.001 s ( 0.007 ms/b)
<pd|df>:           72 b            0 skpd (  0.0%)    0.001 s ( 0.011 ms/b)
<pd|ff>:           36 b            0 skpd (  0.0%)    0.001 s ( 0.015 ms/b)
<pf|pf>:           36 b            0 skpd (  0.0%)    0.000 s ( 0.011 ms/b)
<pf|dd>:           48 b            0 skpd (  0.0%)    0.000 s ( 0.008 ms/b)
<pf|df>:           48 b            0 skpd (  0.0%)    0.001 s ( 0.017 ms/b)
<pf|ff>:           24 b            0 skpd (  0.0%)    0.001 s ( 0.031 ms/b)
<dd|dd>:           21 b            0 skpd (  0.0%)    0.000 s ( 0.013 ms/b)
<dd|df>:           36 b            0 skpd (  0.0%)    0.001 s ( 0.017 ms/b)
<dd|ff>:           18 b            0 skpd (  0.0%)    0.000 s ( 0.025 ms/b)
<df|df>:           21 b            0 skpd (  0.0%)    0.001 s ( 0.036 ms/b)
<df|ff>:           18 b            0 skpd (  0.0%)    0.001 s ( 0.054 ms/b)
<ff|ff>:            6 b            0 skpd (  0.0%)    0.001 s ( 0.104 ms/b)
Recanonicalizing the internal orbitals
Recanonicalizing the virtual orbitals
Time needed for Fock operator              ...            0.053 sec
Reference energy                           ...    -24.532171531
Warning: for UHF the TrafoType has to be JK
Warning: for UHF the K(C)-option cannot be MO but must be AOX

-------------------------------
PARTIAL EXCHANGE TRANSFORMATION
-------------------------------

Transformation type                        ... two-operators
Generation of integrals (i,mue|j,nue)      ... ON
Generation of integrals (mue,kappa|nue,tau)... ON
Generation of integrals (i,mue|a,nue)      ... ON
Dimension of the basis                     ...   46
Number of internal alpha-MOs               ...    2 (   1-   2)
Number of internal beta-MOs                ...    1 (   1-   1)
Number of external alpha-MOs               ...   43 (   3-  45)
Number of external beta-MOs                ...   44 (   2-  45)
Pair cutoff                                ... 0.000e+00 Eh
Number of AO pairs in the trafo            ... 1081
Total Number of distinct AO pairs          ... 1081
Memory devoted for trafo                   ... 2500.0 MB 
Max. Number of MO pairs treated together   ... 154858      
Number Format for Storage                  ... Double (8 Byte)
Integral package used                      ... LIBINT

Starting integral evaluation:
    ... done with AO integral generation
Closing buffer AOK[aa] ( 0.00 GB; CompressionRatio= 0.73)
Closing buffer AOK[bb] ( 0.00 GB; CompressionRatio= 0.40)
Closing buffer AOK[ab] ( 0.00 GB; CompressionRatio= 0.57)
Closing buffer AOK[ba] ( 0.00 GB; CompressionRatio= 0.57)
Collecting buffer AOK 
Closing buffer IAAO1[aa] ( 0.00 GB; CompressionRatio= 0.98)
Closing buffer IAAO1[bb] ( 0.00 GB; CompressionRatio= 0.97)
Closing buffer IAAO1[ab] ( 0.00 GB; CompressionRatio= 0.98)
Closing buffer IAAO1[ba] ( 0.00 GB; CompressionRatio= 0.97)
Closing buffer IAAO2[aa] ( 0.00 GB; CompressionRatio= 0.98)
Closing buffer IAAO2[bb] ( 0.00 GB; CompressionRatio= 0.97)
Closing buffer IAAO2[ab] ( 0.00 GB; CompressionRatio= 0.98)
Closing buffer IAAO2[ba] ( 0.00 GB; CompressionRatio= 0.97)
Collecting buffer IAAO 
Closing buffer PRQS    ( 0.00 GB; CompressionRatio= 1.00)
Collecting buffer PRQS 
Number of alpha/alpha MO pairs in trafo    ...    3
Number of beta /beta  MO pairs in trafo    ...    1
Number of alpha/ beta MO pairs in trafo    ...    2
------------------------
SORTING OF (i,mue|j,nue)
------------------------

SORTING OF ALPHA/ALPHA PAIRS
IBATCH = 1 of  1
Closing buffer KAO[aa] ( 0.00 GB; CompressionRatio= 1.00)
Collecting buffer KAO 
SORTING OF BETA /BETA  PAIRS
IBATCH = 1 of  1
Closing buffer KAO[bb] ( 0.00 GB; CompressionRatio= 1.00)
Collecting buffer KAO 
SORTING OF ALPHA/BETA  PAIRS
IBATCH = 1 of  1
Closing buffer KAO[ab] ( 0.00 GB; CompressionRatio= 0.999291617473)
Collecting buffer KAO[ab] 
------------------------
SORTING OF (i,mue|a,nue)
------------------------

Number of alpha/alpha (i,a) pairs in trafo  ...   86
Number of beta /beta  (i,a) pairs in trafo  ...   44
Number of alpha/ beta (i,a) pairs in trafo  ...   88
Number of beta /alpha (i,a) pairs in trafo  ...   43
Setting up the alpha/alpha list             ... done
Setting up the beta /beta  list             ... done
Setting up the alpha/beta  list             ... done
Setting up the beta /alpha list             ... done
    ... Now sorting (i,mue|a,nue)integrals
    ... Integrals (i,b|a,c) will be made on the fly
SORTING OF ALPHA/ALPHA PAIRS
IBATCH = 1 of  1
Closing buffer IPAQ[aa]  0.00 GB; CompressionRatio= 1.00)
SORTING OF BETA /BETA  PAIRS
IBATCH = 1 of  1
Closing buffer IPAQ[bb]( 0.00 GB; CompressionRatio= 1.00)
SORTING OF ALPHA/BETA  PAIRS (NMatSort_ab=30)
IBATCH = 1 of  1
Closing buffer IPAQ[ab]( 0.00 GB; CompressionRatio= 1.00)
SORTING OF BETA/ALPHA  PAIRS
IBATCH = 1 of  1
Closing buffer IPAQ[ba]( 0.00 GB; CompressionRatio= 1.00)
N(AO-Batches) Done                         ...      5880 
N(AO-Batches) Skipped                      ...         0 
N(IJ)-pairs Skipped                        ...         0 
TOTAL TIME for half transformation         ...     1.952 sec
AO-integral generation                     ...     0.087 sec
Half transformation                        ...     1.219 sec
K-integral sorting                         ...     0.091 sec
<ss|**>: 
------------------------------
PARTIAL COULOMB TRANSFORMATION
------------------------------

Transformation type                        ... two-operators
Dimension of the basis                     ...   46
Number of internal alpha-MOs               ...    2 (1-2)
Number of internal beta-MOs                ...    1 (1-1)
Pair cutoff                                ... 0.000e+00 Eh
Number of AO pairs included in the trafo   ... 1081
Total Number of distinct AO pairs          ... 1081
Memory devoted for trafo                   ... 2500.0 MB 
Max. Number of MO pairs treated together   ... 303126      
Max. Number of MOs treated per batch       ... 6589      
Number Format for Storage                  ... Double (8 Byte)
AO-integral source                         ... DIRECT
Integral package used                      ... LIBINT

Starting integral evaluation:
<sp|**>:         1575 b        0 skpd     0.005 s (  0.003 ms/b)
        2100 b        0 skpd     0.018 s (  0.008 ms/b)
<sd|**>: <sf|**>:         1575 b        0 skpd     0.021 s (  0.014 ms/b)
<pp|**>:         1050 b        0 skpd     0.032 s (  0.030 ms/b)
        1050 b        0 skpd     0.024 s (  0.023 ms/b)
<pd|**>:         1260 b        0 skpd     0.044 s (  0.035 ms/b)
<pf|**>: <dd|**>:          840 b        0 skpd     0.046 s (  0.054 ms/b)
         630 b        0 skpd     0.030 s (  0.047 ms/b)
<df|**>:          630 b        0 skpd     0.058 s (  0.092 ms/b)
<ff|**>:          315 b        0 skpd     0.038 s (  0.119 ms/b)
Closing buffer AOJ[aa] ( 0.00 GB; CompressionRatio= 0.67)
Closing buffer AOJ[bb] ( 0.00 GB; CompressionRatio= 0.00)
Collecting buffer AOJ 
    ... done with AO integral generation
Number of Alpha-MO pairs included          ...    3
Number of Beta-MO pairs included           ...    1
    ... Now sorting integrals
SORTING ALPHA/ALPHA PAIRS
IBATCH = 1 of  1
Closing buffer JAO[aa] ( 0.00 GB; CompressionRatio= 1.00)
SORTING BETA/BETA PAIRS
IBATCH = 1 of  1
Closing buffer JAO[bb] ( 0.00 GB; CompressionRatio= 1.00)
Collecting buffer JAO 
TOTAL TIME for half transformation         ...     0.334 sec
AO-integral generation                     ...     0.098 sec
Half transformation                        ...     0.219 sec
J-integral sorting                         ...     0.011 sec

-------------------------- SECOND HALF TRANSFORMATION -------------------------
Formation of (ij|kl),(ij|ka), (ij|ab)      ... ok (     0.012 sec)
Formation of (ik|jl),(ik|ja), (ia|jb)      ... ok (     0.020 sec)


-----------------------
SPIN UNRESTRICTED GUESS
-----------------------

Entering MDCI_UHF_Guess, Tailored=0
Spin-components of the MP2 energy:
EMP2(aa)=     -0.003242379
EMP2(bb)=      0.000000000
EMP2(ab)=     -0.041162774

Initial guess performed in     0.001 sec
E(0)                                       ...    -24.532171531
E(MP2)                                     ...     -0.044405153
Initial E(tot)                             ...    -24.576576684
<T|T>                                      ...      0.026323777
Number of pairs included                   ... 3

------------------------------------------------
                  UHF COUPLED CLUSTER ITERATIONS
------------------------------------------------

Number of amplitudes to be optimized       ...         4773

Iter       E(tot)           E(Corr)          Delta-E          Residual     Time      <S|S>**1/2
  0    -24.576576684     -0.044405153     -0.000000000      0.018550738    0.06      0.000000116
                           *** Turning on DIIS ***
  1    -24.586702869     -0.054531338     -0.010126185      0.011098802    0.04      0.009456865
  2    -24.595389620     -0.063218089     -0.008686751      0.002929190    0.04      0.020913517
  3    -24.596770859     -0.064599328     -0.001381239      0.000615753    0.04      0.024951974
  4    -24.597123434     -0.064951903     -0.000352575      0.000139261    0.04      0.025894196
  5    -24.597074858     -0.064903327      0.000048576      0.000030549    0.04      0.025869326
  6    -24.597097824     -0.064926293     -0.000022967      0.000010295    0.04      0.025891501
  7    -24.597093100     -0.064921569      0.000004724      0.000003435    0.04      0.025880707
               --- The Coupled-Cluster iterations have converged ---

----------------------
COUPLED CLUSTER ENERGY
----------------------

E(0)                                       ...    -24.532171531
E(CORR)                                    ...     -0.064921569
E(TOT)                                     ...    -24.597093100
Singles norm <S|S>**1/2                    ...      0.025880707 ( 0.018786517, 0.007094190)  
T1 diagnostic                              ...      0.014942233                              

------------------
LARGEST AMPLITUDES
------------------
   1a->  7a   1b->  7b       0.071435
   1a->  8a   1b->  6b       0.071435
   1a->  3a   1b->  7b       0.062843
   1a->  4a   1b->  6b       0.062843
   1a->  7a   1b->  2b       0.056073
   1a->  8a   1b->  3b       0.056073
   1a->  3a   1b->  2b       0.048615
   1a->  4a   1b->  3b       0.048615
   2a-> 18a   1b->  8b       0.044913
   1a->  8a   1b-> 14b       0.043817
   1a->  7a   1b-> 15b       0.043817
   1a-> 15a   1b->  6b       0.040135
   1a-> 16a   1b->  7b       0.040135
   1a->  3a   1b-> 15b       0.038809
   1a->  4a   1b-> 14b       0.038809
   2a-> 14a   1b-> 17b       0.035650

----------------------
UHF TRIPLES CORRECTION (Algorithm 1)
----------------------

Multiplier for the singles contribution    ...      1.000000000

SPIN-CASE Alpha-Alpha-Alpha:

SPIN-CASE Beta-Beta-Beta:

SPIN-CASE Alpha-Alpha-Beta:
10% done
20% done
30% done
40% done
50% done
60% done
70% done
80% done
90% done


SPIN-CASE Beta-Beta-Alpha:

Triples Correction (T)                     ...     -0.001356912
    alpha-alpha-alpha ...  0.000000000 ( -0.0%)
    alpha-alpha-beta  ... -0.001356912 (100.0%)
    alpha-beta -beta  ...  0.000000000 ( -0.0%)
    beta -beta -beta  ...  0.000000000 ( -0.0%)
Scaling of triples based on CCSD energies (Peterson et al. Molecular Physics 113, 1551 (2015))
E(T*) = f*E(T) where f = E(F12-CCSD)/E(CCSD) 
f = CCSD (with F12)/ CCSD (without F12)    ...      1.000000000
Scaled triples correction (T)              ...     -0.001356912

Final correlation energy                   ...     -0.066278481
E(CCSD)                                    ...    -24.597093100
E(CCSD(T))                                 ...    -24.598450013



        !!!!!!!!!!!!!!!!!!!!!!!!!!!!!!!!!!!!!!!!!!!!!!!!!!!!!!!!!!!!!!!!!!!!!!!!!! 
        !  Warning: Densities are linearized densities                           !
        !!!!!!!!!!!!!!!!!!!!!!!!!!!!!!!!!!!!!!!!!!!!!!!!!!!!!!!!!!!!!!!!!!!!!!!!!! 

NORM  =      1.073789528 sqrt=     1.036238162
W(HF) =      0.931281200
------------------------------------------------------------------------------
                           ORCA POPULATION ANALYSIS
------------------------------------------------------------------------------
Input electron density              ... 05_B.mdcip
Input spin density                  ... 05_B.mdcir
BaseName (.gbw .S,...)              ... 05_B

                    ********************************
                    * MULLIKEN POPULATION ANALYSIS *
                    ********************************

------------------------------------------
MULLIKEN ATOMIC CHARGES AND SPIN DENSITIES
------------------------------------------
   0 B :   -0.000000    1.000000
Sum of atomic charges       :   -0.0000000
Sum of atomic spin densities:    1.0000000

---------------------------------------------------
MULLIKEN REDUCED ORBITAL CHARGES AND SPIN DENSITIES
---------------------------------------------------
CHARGE
  0 B s       :     3.881327  s :     3.881327
      pz      :     0.052857  p :     1.096385
      px      :     0.052857
      py      :     0.990670
      dz2     :     0.002228  d :     0.021530
      dxz     :     0.000233
      dyz     :     0.006427
      dx2y2   :     0.006216
      dxy     :     0.006427
      f0      :     0.000074  f :     0.000757
      f+1     :     0.000025
      f-1     :     0.000133
      f+2     :     0.000112
      f-2     :     0.000094
      f+3     :     0.000160
      f-3     :     0.000159

SPIN
  0 B s       :     0.017385  s :     0.017385
      pz      :    -0.001860  p :     0.972628
      px      :    -0.001860
      py      :     0.976348
      dz2     :     0.000965  d :     0.009565
      dxz     :    -0.000023
      dyz     :     0.002841
      dx2y2   :     0.002941
      dxy     :     0.002841
      f0      :     0.000038  f :     0.000422
      f+1     :     0.000006
      f-1     :     0.000076
      f+2     :     0.000064
      f-2     :     0.000048
      f+3     :     0.000095
      f-3     :     0.000095


                     *******************************
                     * LOEWDIN POPULATION ANALYSIS *
                     *******************************

-----------------------------------------
LOEWDIN ATOMIC CHARGES AND SPIN DENSITIES
-----------------------------------------
   0 B :    0.000000    1.000000

--------------------------------------------------
LOEWDIN REDUCED ORBITAL CHARGES AND SPIN DENSITIES
--------------------------------------------------
CHARGE
  0 B s       :     3.881327  s :     3.881327
      pz      :     0.052857  p :     1.096385
      px      :     0.052857
      py      :     0.990670
      dz2     :     0.002228  d :     0.021530
      dxz     :     0.000233
      dyz     :     0.006427
      dx2y2   :     0.006216
      dxy     :     0.006427
      f0      :     0.000074  f :     0.000757
      f+1     :     0.000025
      f-1     :     0.000133
      f+2     :     0.000112
      f-2     :     0.000094
      f+3     :     0.000160
      f-3     :     0.000159

SPIN
  0 B s       :     0.017385  s :     0.017385
      pz      :    -0.001860  p :     0.972628
      px      :    -0.001860
      py      :     0.976348
      dz2     :     0.000965  d :     0.009565
      dxz     :    -0.000023
      dyz     :     0.002841
      dx2y2   :     0.002941
      dxy     :     0.002841
      f0      :     0.000038  f :     0.000422
      f+1     :     0.000006
      f-1     :     0.000076
      f+2     :     0.000064
      f-2     :     0.000048
      f+3     :     0.000095
      f-3     :     0.000095


                      *****************************
                      * MAYER POPULATION ANALYSIS *
                      *****************************

  NA   - Mulliken gross atomic population
  ZA   - Total nuclear charge
  QA   - Mulliken gross atomic charge
  VA   - Mayer's total valence
  BVA  - Mayer's bonded valence
  FA   - Mayer's free valence

  ATOM       NA         ZA         QA         VA         BVA        FA
  0 B      5.0000     5.0000    -0.0000     1.5122     0.0000     1.5122





------------------------------------------------------------------------------- 
                                     TIMINGS                                   
------------------------------------------------------------------------------- 


Total execution time                   ...        2.897 sec

Fock Matrix Formation                  ...        0.053 sec (  1.8%)
Initial Guess                          ...        0.001 sec (  0.0%)
DIIS Solver                            ...        0.003 sec (  0.1%)
State Vector Update                    ...        0.000 sec (  0.0%)
Sigma-vector construction              ...        0.324 sec ( 11.2%)
  <D|H|D>(4-ext)                       ...        0.145 sec ( 44.6% of sigma)
  <S|H|0>                              ...        0.004 sec (  1.1% of sigma)
  Fock-dressing                        ...        0.136 sec ( 42.0% of sigma)
  (ij|ab),(ia|jb)-dressing             ...        0.023 sec (  7.0% of sigma)
Total Time for computing (T)           ...        0.005 sec (  0.2% of ALL)
  I/O of integral and amplitudes       ...        0.001 sec ( 22.8% of (T))
  N**6 triples energy contributions    ...        0.001 sec ( 26.4% of (T))


-------------------------   --------------------
FINAL SINGLE POINT ENERGY       -24.598450012516
-------------------------   --------------------


                            ***************************************
                            *     ORCA property calculations      *
                            ***************************************

                                    ---------------------
                                    Active property flags
                                    ---------------------
   (+) Dipole Moment


------------------------------------------------------------------------------
                       ORCA ELECTRIC PROPERTIES CALCULATION
------------------------------------------------------------------------------

Dipole Moment Calculation                       ... on
Quadrupole Moment Calculation                   ... off
Polarizability Calculation                      ... off
GBWName                                         ... 05_B.gbw
Electron density file                           ... 05_B.scfp
The origin for moment calculation is the CENTER OF MASS  = ( 0.000000,  0.000000  0.000000)

-------------
DIPOLE MOMENT
-------------
                                X             Y             Z
Electronic contribution:     -0.00000      -0.00000      -0.00000
Nuclear contribution   :      0.00000       0.00000       0.00000
                        -----------------------------------------
Total Dipole Moment    :     -0.00000      -0.00000      -0.00000
                        -----------------------------------------
Magnitude (a.u.)       :      0.00000
Magnitude (Debye)      :      0.00000



--------------------
Rotational spectrum 
--------------------
 
Rotational constants in cm-1:     0.000000     0.000000     0.000000 
Rotational constants in MHz :     0.000000     0.000000     0.000000 

 Dipole components along the rotational axes: 
x,y,z [a.u.] :    -0.000000    -0.000000    -0.000000 
x,y,z [Debye]:    -0.000000    -0.000000    -0.000000 

 

                           *** MDCI DENSITY ***

------------------------------------------------------------------------------
                       ORCA ELECTRIC PROPERTIES CALCULATION
------------------------------------------------------------------------------

Dipole Moment Calculation                       ... on
Quadrupole Moment Calculation                   ... off
Polarizability Calculation                      ... off
GBWName                                         ... 05_B.gbw
Electron density file                           ... 05_B.mdcip
The origin for moment calculation is the CENTER OF MASS  = ( 0.000000,  0.000000  0.000000)

-------------
DIPOLE MOMENT
-------------
                                X             Y             Z
Electronic contribution:     -0.00000      -0.00000       0.00000
Nuclear contribution   :      0.00000       0.00000       0.00000
                        -----------------------------------------
Total Dipole Moment    :     -0.00000      -0.00000       0.00000
                        -----------------------------------------
Magnitude (a.u.)       :      0.00000
Magnitude (Debye)      :      0.00000



--------------------
Rotational spectrum 
--------------------
 
Rotational constants in cm-1:     0.000000     0.000000     0.000000 
Rotational constants in MHz :     0.000000     0.000000     0.000000 

 Dipole components along the rotational axes: 
x,y,z [a.u.] :    -0.000000    -0.000000     0.000000 
x,y,z [Debye]:    -0.000000    -0.000000     0.000000 

 

Timings for individual modules:

Sum of individual times         ...        6.101 sec (=   0.102 min)
GTO integral calculation        ...        0.785 sec (=   0.013 min)  12.9 %
SCF iterations                  ...        1.936 sec (=   0.032 min)  31.7 %
MDCI module                     ...        3.380 sec (=   0.056 min)  55.4 %
                             ****ORCA TERMINATED NORMALLY****
TOTAL RUN TIME: 0 days 0 hours 0 minutes 6 seconds 747 msec
