
                                 *****************
                                 * O   R   C   A *
                                 *****************

           --- An Ab Initio, DFT and Semiempirical electronic structure package ---

                  #######################################################
                  #                        -***-                        #
                  #          Department of theory and spectroscopy      #
                  #               Directorship: Frank Neese             #
                  #        Max Planck Institute fuer Kohlenforschung    #
                  #                Kaiser Wilhelm Platz 1               #
                  #                 D-45470 Muelheim/Ruhr               #
                  #                      Germany                        #
                  #                                                     #
                  #                  All rights reserved                #
                  #                        -***-                        #
                  #######################################################


                         Program Version 4.2.0 -  RELEASE  -


 With contributions from (in alphabetic order):
   Daniel Aravena         : Magnetic Suceptibility
   Michael Atanasov       : Ab Initio Ligand Field Theory (pilot matlab implementation)
   Alexander A. Auer      : GIAO ZORA, VPT2
   Ute Becker             : Parallelization
   Giovanni Bistoni       : ED, misc. LED, open-shell LED, HFLED
   Martin Brehm           : Molecular dynamics
   Dmytro Bykov           : SCF Hessian
   Vijay G. Chilkuri      : MRCI spin determinant printing, contributions to CSF-ICE
   Dipayan Datta          : RHF DLPNO-CCSD density
   Achintya Kumar Dutta   : EOM-CC, STEOM-CC
   Dmitry Ganyushin       : Spin-Orbit,Spin-Spin,Magnetic field MRCI
   Miquel Garcia          : C-PCM Hessian, Gaussian charge scheme
   Yang Guo               : DLPNO-NEVPT2, CIM, IAO-localization
   Andreas Hansen         : Spin unrestricted coupled pair/coupled cluster methods
   Benjamin Helmich-Paris : CASSCF linear response (MC-RPA)
   Lee Huntington         : MR-EOM, pCC
   Robert Izsak           : Overlap fitted RIJCOSX, COSX-SCS-MP3, EOM
   Christian Kollmar      : KDIIS, OOCD, Brueckner-CCSD(T), CCSD density
   Simone Kossmann        : Meta GGA functionals, TD-DFT gradient, OOMP2, MP2 Hessian
   Martin Krupicka        : AUTO-CI
   Lucas Lang             : DCDCAS
   Dagmar Lenk            : GEPOL surface, SMD
   Dimitrios Liakos       : Extrapolation schemes; Compound Job, initial MDCI parallelization
   Dimitrios Manganas     : Further ROCIS development; embedding schemes
   Dimitrios Pantazis     : SARC Basis sets
   Taras Petrenko         : DFT Hessian,TD-DFT gradient, ASA, ECA, R-Raman, ABS, FL, XAS/XES, NRVS
   Peter Pinski           : DLPNO-MP2, DLPNO-MP2 Gradient
   Christoph Reimann      : Effective Core Potentials
   Marius Retegan         : Local ZFS, SOC
   Christoph Riplinger    : Optimizer, TS searches, QM/MM, DLPNO-CCSD(T), (RO)-DLPNO pert. Triples
   Tobias Risthaus        : Range-separated hybrids, TD-DFT gradient, RPA, STAB
   Michael Roemelt        : Original ROCIS implementation
   Masaaki Saitow         : Open-shell DLPNO-CCSD energy and density
   Barbara Sandhoefer     : DKH picture change effects
   Avijit Sen             : IP-ROCIS
   Kantharuban Sivalingam : CASSCF convergence, NEVPT2, FIC-MRCI
   Bernardo de Souza      : ESD, SOC TD-DFT
   Georgi Stoychev        : AutoAux, RI-MP2 NMR
   Willem Van den Heuvel  : Paramagnetic NMR
   Boris Wezisla          : Elementary symmetry handling
   Frank Wennmohs         : Technical directorship


 We gratefully acknowledge several colleagues who have allowed us to
 interface, adapt or use parts of their codes:
   Stefan Grimme, W. Hujo, H. Kruse,             : VdW corrections, initial TS optimization,
                  C. Bannwarth                     DFT functionals, gCP, sTDA/sTD-DF
   Ed Valeev, F. Pavosevic, A. Kumar             : LibInt (2-el integral package), F12 methods
   Garnet Chan, S. Sharma, J. Yang, R. Olivares  : DMRG
   Ulf Ekstrom                                   : XCFun DFT Library
   Mihaly Kallay                                 : mrcc  (arbitrary order and MRCC methods)
   Andreas Klamt, Michael Diedenhofen            : otool_cosmo (COSMO solvation model)
   Jiri Pittner, Ondrej Demel                    : Mk-CCSD
   Frank Weinhold                                : gennbo (NPA and NBO analysis)
   Christopher J. Cramer and Donald G. Truhlar   : smd solvation model
   Lars Goerigk                                  : TD-DFT with DH, B97 family of functionals
   V. Asgeirsson, H. Jonsson                     : NEB implementation
   FAccTs GmbH                                   : IRC, NEB, NEB-TS, Multilevel, MM, QM/MM, CI optimization
   S Lehtola, MJT Oliveira, MAL Marques          : LibXC Library


 Your calculation uses the libint2 library for the computation of 2-el integrals
 For citations please refer to: http://libint.valeyev.net

 Your ORCA version has been built with support for libXC version: 4.2.3
 For citations please refer to: https://tddft.org/programs/libxc/

 This ORCA versions uses:
   CBLAS   interface :  Fast vector & matrix operations
   LAPACKE interface :  Fast linear algebra routines
   SCALAPACK package :  Parallel linear algebra routines


----- Orbital basis set information -----
Your calculation utilizes the basis: aug-cc-pV(T+d)Z 
             Al - Ar: T.H. Dunning, Jr., K. A. Peterson and A. K. Wilson, J. Chem. Phys.
                      114, 9244 (2001)

================================================================================
                                        WARNINGS
                       Please study these warnings very carefully!
================================================================================


WARNING: your system is open-shell and RHF/RKS was chosen
  ===> : WILL SWITCH to UHF/UKS


WARNING: MDCI localization with Augmented Hessian Foster-Boys
  ===> : Switching off randomization!

WARNING: Post HF methods need fully converged wavefunctions
  ===> : Setting SCFConvForced true
         You can overwrite this default with %scf ConvForced false 


INFO   : the flag for use of LIBINT has been found!

================================================================================
                                       INPUT FILE
================================================================================
NAME = 15_P.in
|  1> #
|  2> # 15_P CCSD(T)/aug-cc-pvt(+d)z
|  3> #
|  4> ! CCSD(T) aug-cc-pvt(+d)z tightscf
|  5> 
|  6> *xyz 0 4
|  7>  P 0.0 0.0 0.0
|  8> *
|  9> 
| 10> %maxcore 5000 
| 11> 
| 12> %pal
| 13> nprocs 10
| 14> end
| 15> 
| 16> 
| 17>                          ****END OF INPUT****
================================================================================

                       ****************************
                       * Single Point Calculation *
                       ****************************

---------------------------------
CARTESIAN COORDINATES (ANGSTROEM)
---------------------------------
  P      0.000000    0.000000    0.000000

----------------------------
CARTESIAN COORDINATES (A.U.)
----------------------------
  NO LB      ZA    FRAG     MASS         X           Y           Z
   0 P    15.0000    0    30.974    0.000000    0.000000    0.000000

--------------------------------
INTERNAL COORDINATES (ANGSTROEM)
--------------------------------
 P      0   0   0     0.000000000000     0.00000000     0.00000000

---------------------------
INTERNAL COORDINATES (A.U.)
---------------------------
 P      0   0   0     0.000000000000     0.00000000     0.00000000

---------------------
BASIS SET INFORMATION
---------------------
There are 1 groups of distinct atoms

 Group   1 Type P   : 42s17p4d2f contracted to 6s5p4d2f pattern {131313111/77111/1111/11}

Atom   0P    basis set group =>   1


           ************************************************************
           *        Program running with 10 parallel MPI-processes    *
           *              working on a common directory               *
           ************************************************************
------------------------------------------------------------------------------
                           ORCA GTO INTEGRAL CALCULATION
------------------------------------------------------------------------------

                         BASIS SET STATISTICS AND STARTUP INFO

 # of primitive gaussian shells          ...   65
 # of primitive gaussian functions       ...  127
 # of contracted shells                  ...   17
 # of contracted basis functions         ...   55
 Highest angular momentum                ...    3
 Maximum contraction depth               ...   13
 Integral package used                   ... LIBINT
 Integral threshhold            Thresh   ...  2.500e-11
 Primitive cut-off              TCut     ...  2.500e-12


------------------------------ INTEGRAL EVALUATION ----------------------------


 * One electron integrals 
 Pre-screening matrix                    ... done
 Shell pair data                         ... done (   0.000 sec)



           ************************************************************
           *        Program running with 10 parallel MPI-processes    *
           *              working on a common directory               *
           ************************************************************
-------------------------------------------------------------------------------
                                 ORCA SCF
-------------------------------------------------------------------------------

------------
SCF SETTINGS
------------
Hamiltonian:
 Ab initio Hamiltonian  Method          .... Hartree-Fock(GTOs)


General Settings:
 Integral files         IntName         .... 15_P
 Hartree-Fock type      HFTyp           .... UHF
 Total Charge           Charge          ....    0
 Multiplicity           Mult            ....    4
 Number of Electrons    NEL             ....   15
 Basis Dimension        Dim             ....   55
 Nuclear Repulsion      ENuc            ....      0.0000000000 Eh

Convergence Acceleration:
 DIIS                   CNVDIIS         .... on
   Start iteration      DIISMaxIt       ....    12
   Startup error        DIISStart       ....  0.200000
   # of expansion vecs  DIISMaxEq       ....     5
   Bias factor          DIISBfac        ....   1.050
   Max. coefficient     DIISMaxC        ....  10.000
 Newton-Raphson         CNVNR           .... off
 SOSCF                  CNVSOSCF        .... off
 Level Shifting         CNVShift        .... on
   Level shift para.    LevelShift      ....    0.2500
   Turn off err/grad.   ShiftErr        ....    0.0010
 Zerner damping         CNVZerner       .... off
 Static damping         CNVDamp         .... on
   Fraction old density DampFac         ....    0.7000
   Max. Damping (<1)    DampMax         ....    0.9800
   Min. Damping (>=0)   DampMin         ....    0.0000
   Turn off err/grad.   DampErr         ....    0.1000
 Fernandez-Rico         CNVRico         .... off

SCF Procedure:
 Maximum # iterations   MaxIter         ....   125
 SCF integral mode      SCFMode         .... Direct
   Integral package                     .... LIBINT
 Reset frequency        DirectResetFreq ....    20
 Integral Threshold     Thresh          ....  2.500e-11 Eh
 Primitive CutOff       TCut            ....  2.500e-12 Eh

Convergence Tolerance:
 Convergence Check Mode ConvCheckMode   .... Total+1el-Energy
 Convergence forced     ConvForced      .... 1
 Energy Change          TolE            ....  1.000e-08 Eh
 1-El. energy change                    ....  1.000e-05 Eh
 DIIS Error             TolErr          ....  5.000e-07


Diagonalization of the overlap matrix:
Smallest eigenvalue                        ... 1.244e-02
Time for diagonalization                   ...    0.002 sec
Threshold for overlap eigenvalues          ... 1.000e-08
Number of eigenvalues below threshold      ... 0
Time for construction of square roots      ...    0.008 sec
Total time needed                          ...    0.009 sec

-------------------
DFT GRID GENERATION
-------------------

General Integration Accuracy     IntAcc      ...  4.340
Radial Grid Type                 RadialGrid  ... Gauss-Chebyshev
Angular Grid (max. acc.)         AngularGrid ... Lebedev-110
Angular grid pruning method      GridPruning ... 3 (G Style)
Weight generation scheme         WeightScheme... Becke
Basis function cutoff            BFCut       ...    1.0000e-11
Integration weight cutoff        WCut        ...    1.0000e-14
Grids for H and He will be reduced by one unit

# of grid points (after initial pruning)     ...   1806 (   0.0 sec)
# of grid points (after weights+screening)   ...   1806 (   0.0 sec)
Grid point division into batches done        ...    0.0 sec
Reduced shell lists constructed in    0.0 sec

Total number of grid points                  ...     1806
Total number of batches                      ...       29
Average number of points per batch           ...       62
Average number of grid points per atom       ...     1806
Average number of shells per batch           ...    12.00 (70.59%)
Average number of basis functions per batch  ...    37.50 (68.18%)
Average number of large shells per batch     ...     8.25 (68.75%)
Average number of large basis fcns per batch ...    29.25 (78.00%)
Maximum spatial batch extension              ...  17.83, 32.81, 32.81 au
Average spatial batch extension              ...   1.71,  2.88,  3.39 au

Time for grid setup =    0.422 sec

------------------------------
INITIAL GUESS: MODEL POTENTIAL
------------------------------
Loading Hartree-Fock densities                     ... done
Calculating cut-offs                               ... done
Setting up the integral package                    ... done
Initializing the effective Hamiltonian             ... done
Starting the Coulomb interaction                   ... done (   0.0 sec)
Reading the grid                                   ... done
Mapping shells                                     ... done
Starting the XC term evaluation                    ... done (   0.0 sec)
Transforming the Hamiltonian                       ... done (   0.0 sec)
Diagonalizing the Hamiltonian                      ... done (   0.0 sec)
Back transforming the eigenvectors                 ... done (   0.0 sec)
Now organizing SCF variables                       ... done
                      ------------------
                      INITIAL GUESS DONE (   0.5 sec)
                      ------------------
--------------
SCF ITERATIONS
--------------
ITER       Energy         Delta-E        Max-DP      RMS-DP      [F,P]     Damp
               ***  Starting incremental Fock matrix formation  ***
  0   -340.7027129337   0.000000000000 0.02664744  0.00068776  0.1113504 0.7000
  1   -340.7065151533  -0.003802219590 0.01924777  0.00052962  0.0793183 0.7000
                               ***Turning on DIIS***
  2   -340.7092967937  -0.002781640347 0.04503720  0.00130287  0.0559862 0.0000
  3   -340.7163286415  -0.007031847871 0.00694353  0.00022814  0.0068856 0.0000
  4   -340.7176580482  -0.001329406700 0.00381199  0.00011043  0.0021342 0.0000
  5   -340.7131490040   0.004509044225 0.00252209  0.00006120  0.0010185 0.0000
  6   -340.7144205467  -0.001271542710 0.00110496  0.00003237  0.0004019 0.0000
  7   -340.7164280676  -0.002007520908 0.00006954  0.00000315  0.0000304 0.0000
  8   -340.7164781543  -0.000050086695 0.00001685  0.00000056  0.0000027 0.0000
                            ***DIIS convergence achieved***

               *****************************************************
               *                     SUCCESS                       *
               *           SCF CONVERGED AFTER   9 CYCLES          *
               *****************************************************


----------------
TOTAL SCF ENERGY
----------------

Total Energy       :         -340.71648698 Eh           -9271.36696 eV

Components:
Nuclear Repulsion  :            0.00000000 Eh               0.00000 eV
Electronic Energy  :         -340.71648698 Eh           -9271.36696 eV
One Electron Energy:         -471.49138174 Eh          -12829.93276 eV
Two Electron Energy:          130.77489476 Eh            3558.56580 eV

Virial components:
Potential Energy   :         -681.42198350 Eh          -18542.43485 eV
Kinetic Energy     :          340.70549651 Eh            9271.06789 eV
Virial Ratio       :            2.00003226


---------------
SCF CONVERGENCE
---------------

  Last Energy change         ...   -8.8273e-06  Tolerance :   1.0000e-08
  Last MAX-Density change    ...    6.6019e-06  Tolerance :   1.0000e-07
  Last RMS-Density change    ...    1.3907e-07  Tolerance :   5.0000e-09
  Last DIIS Error            ...    7.3435e-07  Tolerance :   5.0000e-07

             **** THE GBW FILE WAS UPDATED (15_P.gbw) ****
             **** DENSITY FILE WAS UPDATED (15_P.scfp) ****
             **** ENERGY FILE WAS UPDATED (15_P.en.tmp) ****
----------------------
UHF SPIN CONTAMINATION
----------------------

Expectation value of <S**2>     :     3.750595
Ideal value S*(S+1) for S=1.5   :     3.750000
Deviation                       :     0.000595

             **** THE GBW FILE WAS UPDATED (15_P.gbw) ****
             **** DENSITY FILE WAS UPDATED (15_P.scfp) ****
----------------
ORBITAL ENERGIES
----------------
                 SPIN UP ORBITALS
  NO   OCC          E(Eh)            E(eV) 
   0   1.0000     -79.980605     -2176.3829 
   1   1.0000      -7.522535      -204.6986 
   2   1.0000      -5.421253      -147.5198 
   3   1.0000      -5.421253      -147.5198 
   4   1.0000      -5.421253      -147.5198 
   5   1.0000      -0.836478       -22.7617 
   6   1.0000      -0.392176       -10.6716 
   7   1.0000      -0.392176       -10.6716 
   8   1.0000      -0.392176       -10.6716 
   9   0.0000       0.081250         2.2109 
  10   0.0000       0.085233         2.3193 
  11   0.0000       0.085233         2.3193 
  12   0.0000       0.085233         2.3193 
  13   0.0000       0.194163         5.2834 
  14   0.0000       0.194163         5.2834 
  15   0.0000       0.194163         5.2834 
  16   0.0000       0.194163         5.2834 
  17   0.0000       0.194163         5.2834 
  18   0.0000       0.490009        13.3338 
  19   0.0000       0.490009        13.3338 
  20   0.0000       0.490009        13.3338 
  21   0.0000       0.543834        14.7985 
  22   0.0000       0.543834        14.7985 
  23   0.0000       0.543834        14.7985 
  24   0.0000       0.543834        14.7985 
  25   0.0000       0.543834        14.7985 
  26   0.0000       0.588276        16.0078 
  27   0.0000       0.639093        17.3906 
  28   0.0000       0.639093        17.3906 
  29   0.0000       0.639093        17.3906 
  30   0.0000       0.639093        17.3906 
  31   0.0000       0.639093        17.3906 
  32   0.0000       0.639093        17.3906 
  33   0.0000       0.639093        17.3906 
  34   0.0000       1.573277        42.8111 
  35   0.0000       1.573277        42.8111 
  36   0.0000       1.573277        42.8111 
  37   0.0000       1.573277        42.8111 
  38   0.0000       1.573277        42.8111 
  39   0.0000       1.853831        50.4453 
  40   0.0000       1.853831        50.4453 
  41   0.0000       1.853831        50.4453 
  42   0.0000       1.853831        50.4453 
  43   0.0000       1.853831        50.4453 
  44   0.0000       1.853831        50.4453 
  45   0.0000       1.853831        50.4453 
  46   0.0000       2.269600        61.7590 
  47   0.0000       2.269600        61.7590 
  48   0.0000       2.269600        61.7590 
  49   0.0000       3.308322        90.0240 
  50   0.0000       6.192694       168.5118 
  51   0.0000       6.192694       168.5118 
  52   0.0000       6.192694       168.5118 
  53   0.0000       6.192694       168.5118 
  54   0.0000       6.192694       168.5118 

                 SPIN DOWN ORBITALS
  NO   OCC          E(Eh)            E(eV) 
   0   1.0000     -79.960713     -2175.8416 
   1   1.0000      -7.500583      -204.1012 
   2   1.0000      -5.381175      -146.4292 
   3   1.0000      -5.381175      -146.4292 
   4   1.0000      -5.381175      -146.4292 
   5   1.0000      -0.556878       -15.1534 
   6   0.0000       0.029937         0.8146 
   7   0.0000       0.029937         0.8146 
   8   0.0000       0.029937         0.8146 
   9   0.0000       0.097653         2.6573 
  10   0.0000       0.125826         3.4239 
  11   0.0000       0.125826         3.4239 
  12   0.0000       0.125826         3.4239 
  13   0.0000       0.232891         6.3373 
  14   0.0000       0.232891         6.3373 
  15   0.0000       0.232891         6.3373 
  16   0.0000       0.232891         6.3373 
  17   0.0000       0.232891         6.3373 
  18   0.0000       0.566196        15.4070 
  19   0.0000       0.566196        15.4070 
  20   0.0000       0.566196        15.4070 
  21   0.0000       0.642095        17.4723 
  22   0.0000       0.653214        17.7749 
  23   0.0000       0.653214        17.7749 
  24   0.0000       0.653214        17.7749 
  25   0.0000       0.653214        17.7749 
  26   0.0000       0.653214        17.7749 
  27   0.0000       0.669512        18.2184 
  28   0.0000       0.669512        18.2184 
  29   0.0000       0.669512        18.2184 
  30   0.0000       0.669512        18.2184 
  31   0.0000       0.669512        18.2184 
  32   0.0000       0.669512        18.2184 
  33   0.0000       0.669512        18.2184 
  34   0.0000       1.626954        44.2717 
  35   0.0000       1.626954        44.2717 
  36   0.0000       1.626954        44.2717 
  37   0.0000       1.626954        44.2717 
  38   0.0000       1.626954        44.2717 
  39   0.0000       1.922972        52.3267 
  40   0.0000       1.922972        52.3267 
  41   0.0000       1.922972        52.3267 
  42   0.0000       1.922972        52.3267 
  43   0.0000       1.922972        52.3267 
  44   0.0000       1.922972        52.3267 
  45   0.0000       1.922972        52.3267 
  46   0.0000       2.334032        63.5123 
  47   0.0000       2.334032        63.5123 
  48   0.0000       2.334032        63.5123 
  49   0.0000       3.350802        91.1800 
  50   0.0000       6.209951       168.9814 
  51   0.0000       6.209951       168.9814 
  52   0.0000       6.209951       168.9814 
  53   0.0000       6.209951       168.9814 
  54   0.0000       6.209951       168.9814 

                    ********************************
                    * MULLIKEN POPULATION ANALYSIS *
                    ********************************

--------------------------------------------
MULLIKEN ATOMIC CHARGES AND SPIN POPULATIONS
--------------------------------------------
   0 P :   -0.000000    3.000000
Sum of atomic charges         :   -0.0000000
Sum of atomic spin populations:    3.0000000

-----------------------------------------------------
MULLIKEN REDUCED ORBITAL CHARGES AND SPIN POPULATIONS
-----------------------------------------------------
CHARGE
  0 P s       :     6.000000  s :     6.000000
      pz      :     3.000000  p :     9.000000
      px      :     3.000000
      py      :     3.000000
      dz2     :     0.000000  d :     0.000000
      dxz     :     0.000000
      dyz     :     0.000000
      dx2y2   :     0.000000
      dxy     :     0.000000
      f0      :     0.000000  f :     0.000000
      f+1     :     0.000000
      f-1     :     0.000000
      f+2     :     0.000000
      f-2     :     0.000000
      f+3     :     0.000000
      f-3     :     0.000000

SPIN
  0 P s       :     0.000000  s :     0.000000
      pz      :     1.000000  p :     3.000000
      px      :     1.000000
      py      :     1.000000
      dz2     :     0.000000  d :     0.000000
      dxz     :     0.000000
      dyz     :     0.000000
      dx2y2   :     0.000000
      dxy     :     0.000000
      f0      :     0.000000  f :     0.000000
      f+1     :     0.000000
      f-1     :     0.000000
      f+2     :     0.000000
      f-2     :    -0.000000
      f+3     :     0.000000
      f-3     :     0.000000


                     *******************************
                     * LOEWDIN POPULATION ANALYSIS *
                     *******************************

-------------------------------------------
LOEWDIN ATOMIC CHARGES AND SPIN POPULATIONS
-------------------------------------------
   0 P :   -0.000000    3.000000

----------------------------------------------------
LOEWDIN REDUCED ORBITAL CHARGES AND SPIN POPULATIONS
----------------------------------------------------
CHARGE
  0 P s       :     6.000000  s :     6.000000
      pz      :     3.000000  p :     9.000000
      px      :     3.000000
      py      :     3.000000
      dz2     :     0.000000  d :     0.000000
      dxz     :     0.000000
      dyz     :     0.000000
      dx2y2   :     0.000000
      dxy     :     0.000000
      f0      :     0.000000  f :     0.000000
      f+1     :     0.000000
      f-1     :     0.000000
      f+2     :     0.000000
      f-2     :     0.000000
      f+3     :     0.000000
      f-3     :     0.000000

SPIN
  0 P s       :     0.000000  s :     0.000000
      pz      :     1.000000  p :     3.000000
      px      :     1.000000
      py      :     1.000000
      dz2     :     0.000000  d :     0.000000
      dxz     :     0.000000
      dyz     :     0.000000
      dx2y2   :     0.000000
      dxy     :     0.000000
      f0      :     0.000000  f :     0.000000
      f+1     :     0.000000
      f-1     :     0.000000
      f+2     :     0.000000
      f-2     :    -0.000000
      f+3     :     0.000000
      f-3     :     0.000000


                      *****************************
                      * MAYER POPULATION ANALYSIS *
                      *****************************

  NA   - Mulliken gross atomic population
  ZA   - Total nuclear charge
  QA   - Mulliken gross atomic charge
  VA   - Mayer's total valence
  BVA  - Mayer's bonded valence
  FA   - Mayer's free valence

  ATOM       NA         ZA         QA         VA         BVA        FA
  0 P     15.0000    15.0000    -0.0000     3.0012     0.0000     3.0012

  Mayer bond orders larger than 0.100000


-------
TIMINGS
-------

Total SCF time: 0 days 0 hours 0 min 2 sec 

Total time                  ....       2.785 sec
Sum of individual times     ....       2.390 sec  ( 85.8%)

Fock matrix formation       ....       1.609 sec  ( 57.8%)
Diagonalization             ....       0.025 sec  (  0.9%)
Density matrix formation    ....       0.002 sec  (  0.1%)
Population analysis         ....       0.146 sec  (  5.3%)
Initial guess               ....       0.118 sec  (  4.2%)
Orbital Transformation      ....       0.000 sec  (  0.0%)
Orbital Orthonormalization  ....       0.000 sec  (  0.0%)
DIIS solution               ....       0.067 sec  (  2.4%)


           ************************************************************
           *        Program running with 10 parallel MPI-processes    *
           *              working on a common directory               *
           ************************************************************


------------------------------------------------------------------------------- 
                              ORCA-MATRIX DRIVEN CI                            
------------------------------------------------------------------------------- 

--------------------------------
AUTOMATIC CHOICE OF INCORE LEVEL
--------------------------------

Memory available                           ...   2500.00 MB
Memory needed for S+T                      ...      0.48 MB
Memory needed for J+K                      ...      0.98 MB
Memory needed for DIIS                     ...      6.78 MB
Memory needed for 3-ext                    ...      2.97 MB
Memory needed for 4-ext                    ...     17.45 MB
Memory needed for triples                  ...      3.71 MB
 -> Final InCoreLevel    ... 5
 -> check shows that triples correction can be computed


Wavefunction type
-----------------
Correlation treatment                      ...      CCSD     
Single excitations                         ... ON
Orbital optimization                       ... OFF
Calculation of Z vector                    ... OFF
Calculation of Brueckner orbitals          ... OFF
Perturbative triple excitations            ... ON
Calculation of F12 correction              ... OFF
Frozen core treatment                      ... chemical core (10 el)
Reference Wavefunction                     ... UHF
  Alpha-MOs occ    :     5 ...    8 (  4 MO's/  4 electrons)
  Beta-MOs occ     :     5 ...    5 (  1 MO's/  1 electrons)
  Alpha-MOs virt   :     9 ...   54 ( 46 MO's              )
  Beta-MOs virt    :     6 ...   54 ( 49 MO's              )
Number of AO's                             ...     55
Number of electrons                        ...     15
Number of correlated electrons             ...      5

Algorithmic settings
--------------------
Integral transformation                    ... AO direct full transformation
K(C) Formation                             ... FULL-MO TRAFO
Maximum number of iterations               ...        50
Convergence tolerance (max. residuum)      ... 1.000e-05
Level shift for amplitude update           ... 2.000e-01
Maximum number of DIIS vectors             ...         7
DIIS turned on at iteration                ...         0
Damping before turning on DIIS             ...     0.500
Damping after turning on DIIS              ...     0.000
Pair specific amplitude update             ... OFF
Natural orbital iterations                 ... OFF
Perturbative natural orbital generation    ... OFF
Printlevel                                 ... 2

Memory handling:
----------------
Maximum memory for working arrays          ...   2500 MB
Data storage in matrix containers          ... UNCOMPRESSED
Data type for integral storage             ... DOUBLE
In-Core Storage of quantities:
   Amplitudes+Sigma Vector      ... YES
   J+K operators                ... YES
   DIIS vectors                 ... YES
   3-external integrals         ... YES
   4-external integrals         ... YES


Initializing the integral package          ... done
Warning: reference  - re-canonicalizations have been set to INT 1 VIRT 1

--------------------------
UNRESTRICTED FOCK OPERATOR
--------------------------

<ss|ss>:          231 b            0 skpd (  0.0%)    0.005 s ( 0.021 ms/b)
<ss|sp>:          630 b            0 skpd (  0.0%)    0.023 s ( 0.036 ms/b)
<ss|sd>:          504 b            0 skpd (  0.0%)    0.003 s ( 0.007 ms/b)
<ss|sf>:          252 b            0 skpd (  0.0%)    0.003 s ( 0.012 ms/b)
<ss|pp>:          315 b            0 skpd (  0.0%)    0.006 s ( 0.020 ms/b)
<ss|pd>:          420 b            0 skpd (  0.0%)    0.002 s ( 0.004 ms/b)
<ss|pf>:          210 b            0 skpd (  0.0%)    0.001 s ( 0.007 ms/b)
<ss|dd>:          210 b            0 skpd (  0.0%)    0.000 s ( 0.001 ms/b)
<ss|df>:          168 b            0 skpd (  0.0%)    0.000 s ( 0.002 ms/b)
<ss|ff>:           63 b            0 skpd (  0.0%)    0.001 s ( 0.008 ms/b)
<sp|sp>:          465 b            0 skpd (  0.0%)    0.008 s ( 0.017 ms/b)
<sp|sd>:          720 b            0 skpd (  0.0%)    0.003 s ( 0.004 ms/b)
<sp|sf>:          360 b            0 skpd (  0.0%)    0.003 s ( 0.009 ms/b)
<sp|pp>:          450 b            0 skpd (  0.0%)    0.005 s ( 0.011 ms/b)
<sp|pd>:          600 b            0 skpd (  0.0%)    0.002 s ( 0.004 ms/b)
<sp|pf>:          300 b            0 skpd (  0.0%)    0.002 s ( 0.006 ms/b)
<sp|dd>: done
<sp|df>: done
<sp|ff>: done
<sd|sd>:          300 b            0 skpd (  0.0%)    0.001 s ( 0.003 ms/b)
<sd|sf>:          288 b            0 skpd (  0.0%)    0.002 s ( 0.006 ms/b)
<sd|pp>:          360 b            0 skpd (  0.0%)    0.002 s ( 0.006 ms/b)
<sd|pd>: done
<sd|pf>: done
<sd|dd>: done
<sd|df>: done
<sd|ff>: done
<sf|sf>:           78 b            0 skpd (  0.0%)    0.001 s ( 0.015 ms/b)
<sf|pp>:          180 b            0 skpd (  0.0%)    0.002 s ( 0.014 ms/b)
<sf|pd>: done
<sf|pf>: done
<sf|dd>: done
<sf|df>: done
<sf|ff>: done
<pp|pp>:          120 b            0 skpd (  0.0%)    0.003 s ( 0.023 ms/b)
<pp|pd>:          300 b            0 skpd (  0.0%)    0.001 s ( 0.005 ms/b)
<pp|pf>:          150 b            0 skpd (  0.0%)    0.001 s ( 0.008 ms/b)
<pp|dd>:          150 b            0 skpd (  0.0%)    0.000 s ( 0.002 ms/b)
<pp|df>:          120 b            0 skpd (  0.0%)    0.001 s ( 0.004 ms/b)
<pp|ff>:           45 b            0 skpd (  0.0%)    0.001 s ( 0.018 ms/b)
<pd|pd>:          210 b            0 skpd (  0.0%)    0.001 s ( 0.004 ms/b)
<pd|pf>:          200 b            0 skpd (  0.0%)    0.001 s ( 0.006 ms/b)
<pd|dd>: done
<pd|df>: done
<pd|ff>: done
<pf|pf>:           55 b            0 skpd (  0.0%)    0.001 s ( 0.020 ms/b)
<pf|dd>: done
<pf|df>: done
<pf|ff>: done
<dd|dd>: done
<dd|df>: done
<dd|ff>: done
<df|df>: done
<df|ff>: done
<ff|ff>: done
Recanonicalizing the internal orbitals
Recanonicalizing the virtual orbitals
Time needed for Fock operator              ...            0.118 sec
Reference energy                           ...   -340.716491476
Warning: for UHF the TrafoType has to be JK
Warning: for UHF the K(C)-option cannot be MO but must be AOX

-------------------------------
PARTIAL EXCHANGE TRANSFORMATION
-------------------------------

Transformation type                        ... two-operators
Generation of integrals (i,mue|j,nue)      ... ON
Generation of integrals (mue,kappa|nue,tau)... ON
Generation of integrals (i,mue|a,nue)      ... ON
Dimension of the basis                     ...   55
Number of internal alpha-MOs               ...    4 (   5-   8)
Number of internal beta-MOs                ...    1 (   5-   5)
Number of external alpha-MOs               ...   46 (   9-  54)
Number of external beta-MOs                ...   49 (   6-  54)
Pair cutoff                                ... 0.000e+00 Eh
Number of AO pairs in the trafo            ... 1540
Total Number of distinct AO pairs          ... 1540
Memory devoted for trafo                   ... 2500.0 MB 
Max. Number of MO pairs treated together   ... 108323      
Number Format for Storage                  ... Double (8 Byte)
Integral package used                      ... LIBINT

Starting integral evaluation:
    ... done with AO integral generation
Closing buffer AOK[aa] ( 0.00 GB; CompressionRatio= 0.91)
Closing buffer AOK[bb] ( 0.00 GB; CompressionRatio= 0.40)
Closing buffer AOK[ab] ( 0.00 GB; CompressionRatio= 0.73)
Closing buffer AOK[ba] ( 0.00 GB; CompressionRatio= 0.73)
Collecting buffer AOK 
Closing buffer IAAO1[aa] ( 0.00 GB; CompressionRatio= 0.99)
Closing buffer IAAO1[bb] ( 0.00 GB; CompressionRatio= 0.97)
Closing buffer IAAO1[ab] ( 0.00 GB; CompressionRatio= 0.99)
Closing buffer IAAO1[ba] ( 0.00 GB; CompressionRatio= 0.97)
Closing buffer IAAO2[aa] ( 0.00 GB; CompressionRatio= 0.99)
Closing buffer IAAO2[bb] ( 0.00 GB; CompressionRatio= 0.97)
Closing buffer IAAO2[ab] ( 0.00 GB; CompressionRatio= 0.99)
Closing buffer IAAO2[ba] ( 0.00 GB; CompressionRatio= 0.97)
Collecting buffer IAAO 
Closing buffer PRQS    ( 0.00 GB; CompressionRatio= 1.00)
Collecting buffer PRQS 
Number of alpha/alpha MO pairs in trafo    ...   10
Number of beta /beta  MO pairs in trafo    ...    1
Number of alpha/ beta MO pairs in trafo    ...    4
------------------------
SORTING OF (i,mue|j,nue)
------------------------

SORTING OF ALPHA/ALPHA PAIRS
IBATCH = 1 of  1
Closing buffer KAO[aa] ( 0.00 GB; CompressionRatio= 1.00)
Collecting buffer KAO 
SORTING OF BETA /BETA  PAIRS
IBATCH = 1 of  1
Closing buffer KAO[bb] ( 0.00 GB; CompressionRatio= 1.00)
Collecting buffer KAO 
SORTING OF ALPHA/BETA  PAIRS
IBATCH = 1 of  1
Closing buffer KAO[ab] ( 0.00 GB; CompressionRatio= 0.999504377994)
Collecting buffer KAO[ab] 
------------------------
SORTING OF (i,mue|a,nue)
------------------------

Number of alpha/alpha (i,a) pairs in trafo  ...  184
Number of beta /beta  (i,a) pairs in trafo  ...   49
Number of alpha/ beta (i,a) pairs in trafo  ...  196
Number of beta /alpha (i,a) pairs in trafo  ...   46
Setting up the alpha/alpha list             ... done
Setting up the beta /beta  list             ... done
Setting up the alpha/beta  list             ... done
Setting up the beta /alpha list             ... done
    ... Now sorting (i,mue|a,nue)integrals
    ... Integrals (i,b|a,c) will be made on the fly
SORTING OF ALPHA/ALPHA PAIRS
IBATCH = 1 of  1
Closing buffer IPAQ[aa]  0.00 GB; CompressionRatio= 1.00)
SORTING OF BETA /BETA  PAIRS
IBATCH = 1 of  1
Closing buffer IPAQ[bb]( 0.00 GB; CompressionRatio= 1.00)
SORTING OF ALPHA/BETA  PAIRS (NMatSort_ab=20)
IBATCH = 1 of  1
Closing buffer IPAQ[ab]( 0.00 GB; CompressionRatio= 1.00)
SORTING OF BETA/ALPHA  PAIRS
IBATCH = 1 of  1
Closing buffer IPAQ[ba]( 0.00 GB; CompressionRatio= 1.00)
N(AO-Batches) Done                         ...      2312 
N(AO-Batches) Skipped                      ...         0 
N(IJ)-pairs Skipped                        ...         0 
TOTAL TIME for half transformation         ...     3.209 sec
AO-integral generation                     ...     0.127 sec
Half transformation                        ...     0.767 sec
K-integral sorting                         ...     0.370 sec
<ss|**>: 
------------------------------
PARTIAL COULOMB TRANSFORMATION
------------------------------

Transformation type                        ... two-operators
Dimension of the basis                     ...   55
Number of internal alpha-MOs               ...    4 (5-8)
Number of internal beta-MOs                ...    1 (5-5)
Pair cutoff                                ... 0.000e+00 Eh
Number of AO pairs included in the trafo   ... 1540
Total Number of distinct AO pairs          ... 1540
Memory devoted for trafo                   ... 2500.0 MB 
Max. Number of MO pairs treated together   ... 212779      
Max. Number of MOs treated per batch       ... 3868      
Number Format for Storage                  ... Double (8 Byte)
AO-integral source                         ... DIRECT
Integral package used                      ... LIBINT

Starting integral evaluation:
<sp|**>:         3213 b        0 skpd     0.039 s (  0.012 ms/b)
<sd|**>:         4590 b        0 skpd     0.062 s (  0.013 ms/b)
<sf|**>:         3672 b        0 skpd     0.043 s (  0.012 ms/b)
        1836 b        0 skpd     0.036 s (  0.019 ms/b)
<pp|**>:         2295 b        0 skpd     0.040 s (  0.017 ms/b)
<pd|**>:         3060 b        0 skpd     0.076 s (  0.025 ms/b)
<pf|**>:         1530 b        0 skpd     0.057 s (  0.037 ms/b)
<dd|**>:         1530 b        0 skpd     0.054 s (  0.035 ms/b)
<df|**>:         1224 b        0 skpd     0.072 s (  0.059 ms/b)
<ff|**>:          459 b        0 skpd     0.052 s (  0.113 ms/b)
Closing buffer AOJ[aa] ( 0.00 GB; CompressionRatio= 0.87)
Closing buffer AOJ[bb] ( 0.00 GB; CompressionRatio= 0.00)
Collecting buffer AOJ 
    ... done with AO integral generation
Number of Alpha-MO pairs included          ...   10
Number of Beta-MO pairs included           ...    1
    ... Now sorting integrals
SORTING ALPHA/ALPHA PAIRS
IBATCH = 1 of  1
Closing buffer JAO[aa] ( 0.00 GB; CompressionRatio= 1.00)
SORTING BETA/BETA PAIRS
IBATCH = 1 of  1
Closing buffer JAO[bb] ( 0.00 GB; CompressionRatio= 1.00)
Collecting buffer JAO 
TOTAL TIME for half transformation         ...     0.599 sec
AO-integral generation                     ...     0.319 sec
Half transformation                        ...     0.213 sec
J-integral sorting                         ...     0.049 sec

-------------------------- SECOND HALF TRANSFORMATION -------------------------
Formation of (ij|kl),(ij|ka), (ij|ab)      ... ok (     0.054 sec)
Formation of (ik|jl),(ik|ja), (ia|jb)      ... ok (     0.086 sec)


-----------------------
SPIN UNRESTRICTED GUESS
-----------------------

Entering MDCI_UHF_Guess, Tailored=0
Spin-components of the MP2 energy:
EMP2(aa)=     -0.023155926
EMP2(bb)=      0.000000000
EMP2(ab)=     -0.061278868

Initial guess performed in     0.001 sec
E(0)                                       ...   -340.716491476
E(MP2)                                     ...     -0.084434794
Initial E(tot)                             ...   -340.800926270
<T|T>                                      ...      0.044370037
Number of pairs included                   ... 10

------------------------------------------------
                  UHF COUPLED CLUSTER ITERATIONS
------------------------------------------------

Number of amplitudes to be optimized       ...        15480

Iter       E(tot)           E(Corr)          Delta-E          Residual     Time      <S|S>**1/2
  0   -340.800926270     -0.084434794     -0.000000000      0.011019498    0.14      0.000001165
                           *** Turning on DIIS ***
  1   -340.813295722     -0.096804246     -0.012369452      0.003881500    0.12      0.006143458
  2   -340.818450273     -0.101958797     -0.005154551      0.000659695    0.12      0.009885725
  3   -340.818636894     -0.102145418     -0.000186621      0.000216308    0.11      0.010305691
  4   -340.818706290     -0.102214814     -0.000069397      0.000057111    0.11      0.010277135
  5   -340.818697727     -0.102206251      0.000008563      0.000018327    0.12      0.010236373
  6   -340.818701324     -0.102209848     -0.000003597      0.000006435    0.12      0.010225951
               --- The Coupled-Cluster iterations have converged ---

----------------------
COUPLED CLUSTER ENERGY
----------------------

E(0)                                       ...   -340.716491476
E(CORR)                                    ...     -0.102209848
E(TOT)                                     ...   -340.818701324
Singles norm <S|S>**1/2                    ...      0.010225951 ( 0.008373259, 0.001852692)  
T1 diagnostic                              ...      0.004573184                              

------------------
LARGEST AMPLITUDES
------------------
   8a-> 21a   5b->  6b       0.032116
   6a-> 23a   5b->  8b       0.027776
   7a-> 24a   5b->  8b       0.027550
   6a-> 14a   5b->  8b       0.027119
   8a-> 21a   5b-> 10b       0.026101
   7a-> 21a   5b->  7b       0.024947
   6a-> 14a   5b-> 12b       0.024932
   6a-> 24a   5b->  7b       0.024683
   8a-> 25a   5b-> 11b       0.024403
   8a-> 15a   5b->  7b       0.024262
   7a-> 17a   5b->  8b       0.023819
   7a-> 15a   5b->  6b       0.023745
   7a-> 25a   5b->  6b       0.023421
   8a-> 25a   5b->  7b       0.023314
   8a-> 15a   5b-> 11b       0.022932
   6a-> 23a   5b-> 12b       0.022771

----------------------
UHF TRIPLES CORRECTION (Algorithm 1)
----------------------

Multiplier for the singles contribution    ...      1.000000000

SPIN-CASE Alpha-Alpha-Alpha:
10% done
20% done
30% done
40% done
50% done
60% done
70% done
80% done
90% done


SPIN-CASE Beta-Beta-Beta:

SPIN-CASE Alpha-Alpha-Beta:
10% done
20% done
30% done
40% done
50% done
60% done
70% done
80% done
90% done


SPIN-CASE Beta-Beta-Alpha:

Triples Correction (T)                     ...     -0.004078194
    alpha-alpha-alpha ... -0.000321140 (  7.9%)
    alpha-alpha-beta  ... -0.003757053 ( 92.1%)
    alpha-beta -beta  ...  0.000000000 ( -0.0%)
    beta -beta -beta  ...  0.000000000 ( -0.0%)
Scaling of triples based on CCSD energies (Peterson et al. Molecular Physics 113, 1551 (2015))
E(T*) = f*E(T) where f = E(F12-CCSD)/E(CCSD) 
f = CCSD (with F12)/ CCSD (without F12)    ...      1.000000000
Scaled triples correction (T)              ...     -0.004078194

Final correlation energy                   ...     -0.106288042
E(CCSD)                                    ...   -340.818701324
E(CCSD(T))                                 ...   -340.822779518



        !!!!!!!!!!!!!!!!!!!!!!!!!!!!!!!!!!!!!!!!!!!!!!!!!!!!!!!!!!!!!!!!!!!!!!!!!! 
        !  Warning: Densities are linearized densities                           !
        !!!!!!!!!!!!!!!!!!!!!!!!!!!!!!!!!!!!!!!!!!!!!!!!!!!!!!!!!!!!!!!!!!!!!!!!!! 

NORM  =      1.069226609 sqrt=     1.034034143
W(HF) =      0.935255437
------------------------------------------------------------------------------
                           ORCA POPULATION ANALYSIS
------------------------------------------------------------------------------
Input electron density              ... 15_P.mdcip
Input spin density                  ... 15_P.mdcir
BaseName (.gbw .S,...)              ... 15_P

                    ********************************
                    * MULLIKEN POPULATION ANALYSIS *
                    ********************************

------------------------------------------
MULLIKEN ATOMIC CHARGES AND SPIN DENSITIES
------------------------------------------
   0 P :   -0.000000    3.000000
Sum of atomic charges       :   -0.0000000
Sum of atomic spin densities:    3.0000000

---------------------------------------------------
MULLIKEN REDUCED ORBITAL CHARGES AND SPIN DENSITIES
---------------------------------------------------
CHARGE
  0 P s       :     5.941611  s :     5.941611
      pz      :     2.993515  p :     8.980546
      px      :     2.993515
      py      :     2.993515
      dz2     :     0.014563  d :     0.072813
      dxz     :     0.014563
      dyz     :     0.014563
      dx2y2   :     0.014563
      dxy     :     0.014563
      f0      :     0.000719  f :     0.005030
      f+1     :     0.000719
      f-1     :     0.000719
      f+2     :     0.000719
      f-2     :     0.000719
      f+3     :     0.000719
      f-3     :     0.000719

SPIN
  0 P s       :     0.043758  s :     0.043758
      pz      :     0.964565  p :     2.893694
      px      :     0.964565
      py      :     0.964565
      dz2     :     0.012134  d :     0.060670
      dxz     :     0.012134
      dyz     :     0.012134
      dx2y2   :     0.012134
      dxy     :     0.012134
      f0      :     0.000268  f :     0.001878
      f+1     :     0.000268
      f-1     :     0.000268
      f+2     :     0.000268
      f-2     :     0.000268
      f+3     :     0.000268
      f-3     :     0.000268


                     *******************************
                     * LOEWDIN POPULATION ANALYSIS *
                     *******************************

-----------------------------------------
LOEWDIN ATOMIC CHARGES AND SPIN DENSITIES
-----------------------------------------
   0 P :   -0.000000    3.000000

--------------------------------------------------
LOEWDIN REDUCED ORBITAL CHARGES AND SPIN DENSITIES
--------------------------------------------------
CHARGE
  0 P s       :     5.941611  s :     5.941611
      pz      :     2.993515  p :     8.980546
      px      :     2.993515
      py      :     2.993515
      dz2     :     0.014563  d :     0.072813
      dxz     :     0.014563
      dyz     :     0.014563
      dx2y2   :     0.014563
      dxy     :     0.014563
      f0      :     0.000719  f :     0.005030
      f+1     :     0.000719
      f-1     :     0.000719
      f+2     :     0.000719
      f-2     :     0.000719
      f+3     :     0.000719
      f-3     :     0.000719

SPIN
  0 P s       :     0.043758  s :     0.043758
      pz      :     0.964565  p :     2.893694
      px      :     0.964565
      py      :     0.964565
      dz2     :     0.012134  d :     0.060670
      dxz     :     0.012134
      dyz     :     0.012134
      dx2y2   :     0.012134
      dxy     :     0.012134
      f0      :     0.000268  f :     0.001878
      f+1     :     0.000268
      f-1     :     0.000268
      f+2     :     0.000268
      f-2     :     0.000268
      f+3     :     0.000268
      f-3     :     0.000268


                      *****************************
                      * MAYER POPULATION ANALYSIS *
                      *****************************

  NA   - Mulliken gross atomic population
  ZA   - Total nuclear charge
  QA   - Mulliken gross atomic charge
  VA   - Mayer's total valence
  BVA  - Mayer's bonded valence
  FA   - Mayer's free valence

  ATOM       NA         ZA         QA         VA         BVA        FA
  0 P     15.0000    15.0000    -0.0000     3.3177     0.0000     3.3177





------------------------------------------------------------------------------- 
                                     TIMINGS                                   
------------------------------------------------------------------------------- 


Total execution time                   ...        5.356 sec

Fock Matrix Formation                  ...        0.118 sec (  2.2%)
Initial Guess                          ...        0.001 sec (  0.0%)
DIIS Solver                            ...        0.008 sec (  0.1%)
State Vector Update                    ...        0.000 sec (  0.0%)
Sigma-vector construction              ...        0.826 sec ( 15.4%)
  <D|H|D>(2-ext)                       ...        0.001 sec (  0.2% of sigma)
  <D|H|D>(4-ext)                       ...        0.266 sec ( 32.1% of sigma)
  <S|H|0>                              ...        0.004 sec (  0.5% of sigma)
  <D|H|S>(1-ext)                       ...        0.002 sec (  0.2% of sigma)
  Fock-dressing                        ...        0.488 sec ( 59.1% of sigma)
  (ij|ab),(ia|jb)-dressing             ...        0.042 sec (  5.0% of sigma)
Total Time for computing (T)           ...        0.011 sec (  0.2% of ALL)
  I/O of integral and amplitudes       ...        0.005 sec ( 40.5% of (T))
  External N**7 contributions          ...        0.002 sec ( 14.7% of (T))
  N**6 triples energy contributions    ...        0.002 sec ( 19.8% of (T))


-------------------------   --------------------
FINAL SINGLE POINT ENERGY      -340.822779517959
-------------------------   --------------------


                            ***************************************
                            *     ORCA property calculations      *
                            ***************************************

                                    ---------------------
                                    Active property flags
                                    ---------------------
   (+) Dipole Moment


------------------------------------------------------------------------------
                       ORCA ELECTRIC PROPERTIES CALCULATION
------------------------------------------------------------------------------

Dipole Moment Calculation                       ... on
Quadrupole Moment Calculation                   ... off
Polarizability Calculation                      ... off
GBWName                                         ... 15_P.gbw
Electron density file                           ... 15_P.scfp
The origin for moment calculation is the CENTER OF MASS  = ( 0.000000,  0.000000  0.000000)

-------------
DIPOLE MOMENT
-------------
                                X             Y             Z
Electronic contribution:     -0.00000       0.00000       0.00000
Nuclear contribution   :      0.00000       0.00000       0.00000
                        -----------------------------------------
Total Dipole Moment    :     -0.00000       0.00000       0.00000
                        -----------------------------------------
Magnitude (a.u.)       :      0.00000
Magnitude (Debye)      :      0.00000



--------------------
Rotational spectrum 
--------------------
 
Rotational constants in cm-1:     0.000000     0.000000     0.000000 
Rotational constants in MHz :     0.000000     0.000000     0.000000 

 Dipole components along the rotational axes: 
x,y,z [a.u.] :    -0.000000     0.000000     0.000000 
x,y,z [Debye]:    -0.000000     0.000000     0.000000 

 

                           *** MDCI DENSITY ***

------------------------------------------------------------------------------
                       ORCA ELECTRIC PROPERTIES CALCULATION
------------------------------------------------------------------------------

Dipole Moment Calculation                       ... on
Quadrupole Moment Calculation                   ... off
Polarizability Calculation                      ... off
GBWName                                         ... 15_P.gbw
Electron density file                           ... 15_P.mdcip
The origin for moment calculation is the CENTER OF MASS  = ( 0.000000,  0.000000  0.000000)

-------------
DIPOLE MOMENT
-------------
                                X             Y             Z
Electronic contribution:     -0.00000       0.00000      -0.00000
Nuclear contribution   :      0.00000       0.00000       0.00000
                        -----------------------------------------
Total Dipole Moment    :     -0.00000       0.00000      -0.00000
                        -----------------------------------------
Magnitude (a.u.)       :      0.00000
Magnitude (Debye)      :      0.00000



--------------------
Rotational spectrum 
--------------------
 
Rotational constants in cm-1:     0.000000     0.000000     0.000000 
Rotational constants in MHz :     0.000000     0.000000     0.000000 

 Dipole components along the rotational axes: 
x,y,z [a.u.] :    -0.000000     0.000000    -0.000000 
x,y,z [Debye]:    -0.000000     0.000000    -0.000000 

 

Timings for individual modules:

Sum of individual times         ...        9.519 sec (=   0.159 min)
GTO integral calculation        ...        0.684 sec (=   0.011 min)   7.2 %
SCF iterations                  ...        3.100 sec (=   0.052 min)  32.6 %
MDCI module                     ...        5.735 sec (=   0.096 min)  60.2 %
                             ****ORCA TERMINATED NORMALLY****
TOTAL RUN TIME: 0 days 0 hours 0 minutes 10 seconds 155 msec
