
                                 *****************
                                 * O   R   C   A *
                                 *****************

           --- An Ab Initio, DFT and Semiempirical electronic structure package ---

                  #######################################################
                  #                        -***-                        #
                  #          Department of theory and spectroscopy      #
                  #               Directorship: Frank Neese             #
                  #        Max Planck Institute fuer Kohlenforschung    #
                  #                Kaiser Wilhelm Platz 1               #
                  #                 D-45470 Muelheim/Ruhr               #
                  #                      Germany                        #
                  #                                                     #
                  #                  All rights reserved                #
                  #                        -***-                        #
                  #######################################################


                         Program Version 4.2.0 -  RELEASE  -


 With contributions from (in alphabetic order):
   Daniel Aravena         : Magnetic Suceptibility
   Michael Atanasov       : Ab Initio Ligand Field Theory (pilot matlab implementation)
   Alexander A. Auer      : GIAO ZORA, VPT2
   Ute Becker             : Parallelization
   Giovanni Bistoni       : ED, misc. LED, open-shell LED, HFLED
   Martin Brehm           : Molecular dynamics
   Dmytro Bykov           : SCF Hessian
   Vijay G. Chilkuri      : MRCI spin determinant printing, contributions to CSF-ICE
   Dipayan Datta          : RHF DLPNO-CCSD density
   Achintya Kumar Dutta   : EOM-CC, STEOM-CC
   Dmitry Ganyushin       : Spin-Orbit,Spin-Spin,Magnetic field MRCI
   Miquel Garcia          : C-PCM Hessian, Gaussian charge scheme
   Yang Guo               : DLPNO-NEVPT2, CIM, IAO-localization
   Andreas Hansen         : Spin unrestricted coupled pair/coupled cluster methods
   Benjamin Helmich-Paris : CASSCF linear response (MC-RPA)
   Lee Huntington         : MR-EOM, pCC
   Robert Izsak           : Overlap fitted RIJCOSX, COSX-SCS-MP3, EOM
   Christian Kollmar      : KDIIS, OOCD, Brueckner-CCSD(T), CCSD density
   Simone Kossmann        : Meta GGA functionals, TD-DFT gradient, OOMP2, MP2 Hessian
   Martin Krupicka        : AUTO-CI
   Lucas Lang             : DCDCAS
   Dagmar Lenk            : GEPOL surface, SMD
   Dimitrios Liakos       : Extrapolation schemes; Compound Job, initial MDCI parallelization
   Dimitrios Manganas     : Further ROCIS development; embedding schemes
   Dimitrios Pantazis     : SARC Basis sets
   Taras Petrenko         : DFT Hessian,TD-DFT gradient, ASA, ECA, R-Raman, ABS, FL, XAS/XES, NRVS
   Peter Pinski           : DLPNO-MP2, DLPNO-MP2 Gradient
   Christoph Reimann      : Effective Core Potentials
   Marius Retegan         : Local ZFS, SOC
   Christoph Riplinger    : Optimizer, TS searches, QM/MM, DLPNO-CCSD(T), (RO)-DLPNO pert. Triples
   Tobias Risthaus        : Range-separated hybrids, TD-DFT gradient, RPA, STAB
   Michael Roemelt        : Original ROCIS implementation
   Masaaki Saitow         : Open-shell DLPNO-CCSD energy and density
   Barbara Sandhoefer     : DKH picture change effects
   Avijit Sen             : IP-ROCIS
   Kantharuban Sivalingam : CASSCF convergence, NEVPT2, FIC-MRCI
   Bernardo de Souza      : ESD, SOC TD-DFT
   Georgi Stoychev        : AutoAux, RI-MP2 NMR
   Willem Van den Heuvel  : Paramagnetic NMR
   Boris Wezisla          : Elementary symmetry handling
   Frank Wennmohs         : Technical directorship


 We gratefully acknowledge several colleagues who have allowed us to
 interface, adapt or use parts of their codes:
   Stefan Grimme, W. Hujo, H. Kruse,             : VdW corrections, initial TS optimization,
                  C. Bannwarth                     DFT functionals, gCP, sTDA/sTD-DF
   Ed Valeev, F. Pavosevic, A. Kumar             : LibInt (2-el integral package), F12 methods
   Garnet Chan, S. Sharma, J. Yang, R. Olivares  : DMRG
   Ulf Ekstrom                                   : XCFun DFT Library
   Mihaly Kallay                                 : mrcc  (arbitrary order and MRCC methods)
   Andreas Klamt, Michael Diedenhofen            : otool_cosmo (COSMO solvation model)
   Jiri Pittner, Ondrej Demel                    : Mk-CCSD
   Frank Weinhold                                : gennbo (NPA and NBO analysis)
   Christopher J. Cramer and Donald G. Truhlar   : smd solvation model
   Lars Goerigk                                  : TD-DFT with DH, B97 family of functionals
   V. Asgeirsson, H. Jonsson                     : NEB implementation
   FAccTs GmbH                                   : IRC, NEB, NEB-TS, Multilevel, MM, QM/MM, CI optimization
   S Lehtola, MJT Oliveira, MAL Marques          : LibXC Library


 Your calculation uses the libint2 library for the computation of 2-el integrals
 For citations please refer to: http://libint.valeyev.net

 Your ORCA version has been built with support for libXC version: 4.2.3
 For citations please refer to: https://tddft.org/programs/libxc/

 This ORCA versions uses:
   CBLAS   interface :  Fast vector & matrix operations
   LAPACKE interface :  Fast linear algebra routines
   SCALAPACK package :  Parallel linear algebra routines


----- Orbital basis set information -----
Your calculation utilizes the basis: aug-cc-pV(T+d)Z 
             Al - Ar: T.H. Dunning, Jr., K. A. Peterson and A. K. Wilson, J. Chem. Phys.
                      114, 9244 (2001)

================================================================================
                                        WARNINGS
                       Please study these warnings very carefully!
================================================================================


WARNING: MDCI localization with Augmented Hessian Foster-Boys
  ===> : Switching off randomization!

WARNING: Post HF methods need fully converged wavefunctions
  ===> : Setting SCFConvForced true
         You can overwrite this default with %scf ConvForced false 


INFO   : the flag for use of LIBINT has been found!

================================================================================
                                       INPUT FILE
================================================================================
NAME = 30_Zn.in
|  1> #
|  2> # 30_Zn CCSD(T)/aug-cc-pvt(+d)z
|  3> #
|  4> ! CCSD(T) aug-cc-pvt(+d)z tightscf
|  5> 
|  6> *xyz 0 1
|  7>  Zn 0.0 0.0 0.0
|  8> *
|  9> 
| 10> %maxcore 5000 
| 11> 
| 12> %pal
| 13> nprocs 24
| 14> end
| 15> 
| 16> 
| 17>                          ****END OF INPUT****
================================================================================

                       ****************************
                       * Single Point Calculation *
                       ****************************

---------------------------------
CARTESIAN COORDINATES (ANGSTROEM)
---------------------------------
  Zn     0.000000    0.000000    0.000000

----------------------------
CARTESIAN COORDINATES (A.U.)
----------------------------
  NO LB      ZA    FRAG     MASS         X           Y           Z
   0 Zn   30.0000    0    65.380    0.000000    0.000000    0.000000

--------------------------------
INTERNAL COORDINATES (ANGSTROEM)
--------------------------------
 Zn     0   0   0     0.000000000000     0.00000000     0.00000000

---------------------------
INTERNAL COORDINATES (A.U.)
---------------------------
 Zn     0   0   0     0.000000000000     0.00000000     0.00000000

---------------------
BASIS SET INFORMATION
---------------------
There are 1 groups of distinct atoms

 Group   1 Type Zn  : 116s77p23d3f2g contracted to 8s7p5d3f2g pattern {19191919191911/151515151511/77711/111/11}

Atom   0Zn   basis set group =>   1


           ************************************************************
           *        Program running with 24 parallel MPI-processes    *
           *              working on a common directory               *
           ************************************************************
------------------------------------------------------------------------------
                           ORCA GTO INTEGRAL CALCULATION
------------------------------------------------------------------------------

                         BASIS SET STATISTICS AND STARTUP INFO

 # of primitive gaussian shells          ...  221
 # of primitive gaussian functions       ...  501
 # of contracted shells                  ...   25
 # of contracted basis functions         ...   93
 Highest angular momentum                ...    4
 Maximum contraction depth               ...   19
 Integral package used                   ... LIBINT
 Integral threshhold            Thresh   ...  2.500e-11
 Primitive cut-off              TCut     ...  2.500e-12


------------------------------ INTEGRAL EVALUATION ----------------------------


 * One electron integrals 
 Pre-screening matrix                    ... done
 Shell pair data                         ... done (   0.001 sec)



           ************************************************************
           *        Program running with 24 parallel MPI-processes    *
           *              working on a common directory               *
           ************************************************************
-------------------------------------------------------------------------------
                                 ORCA SCF
-------------------------------------------------------------------------------

------------
SCF SETTINGS
------------
Hamiltonian:
 Ab initio Hamiltonian  Method          .... Hartree-Fock(GTOs)


General Settings:
 Integral files         IntName         .... 30_Zn
 Hartree-Fock type      HFTyp           .... RHF
 Total Charge           Charge          ....    0
 Multiplicity           Mult            ....    1
 Number of Electrons    NEL             ....   30
 Basis Dimension        Dim             ....   93
 Nuclear Repulsion      ENuc            ....      0.0000000000 Eh

Convergence Acceleration:
 DIIS                   CNVDIIS         .... on
   Start iteration      DIISMaxIt       ....    12
   Startup error        DIISStart       ....  0.200000
   # of expansion vecs  DIISMaxEq       ....     5
   Bias factor          DIISBfac        ....   1.050
   Max. coefficient     DIISMaxC        ....  10.000
 Newton-Raphson         CNVNR           .... off
 SOSCF                  CNVSOSCF        .... off
 Level Shifting         CNVShift        .... on
   Level shift para.    LevelShift      ....    0.2500
   Turn off err/grad.   ShiftErr        ....    0.0010
 Zerner damping         CNVZerner       .... off
 Static damping         CNVDamp         .... on
   Fraction old density DampFac         ....    0.7000
   Max. Damping (<1)    DampMax         ....    0.9800
   Min. Damping (>=0)   DampMin         ....    0.0000
   Turn off err/grad.   DampErr         ....    0.1000
 Fernandez-Rico         CNVRico         .... off

SCF Procedure:
 Maximum # iterations   MaxIter         ....   125
 SCF integral mode      SCFMode         .... Direct
   Integral package                     .... LIBINT
 Reset frequency        DirectResetFreq ....    20
 Integral Threshold     Thresh          ....  2.500e-11 Eh
 Primitive CutOff       TCut            ....  2.500e-12 Eh

Convergence Tolerance:
 Convergence Check Mode ConvCheckMode   .... Total+1el-Energy
 Convergence forced     ConvForced      .... 1
 Energy Change          TolE            ....  1.000e-08 Eh
 1-El. energy change                    ....  1.000e-05 Eh
 DIIS Error             TolErr          ....  5.000e-07


Diagonalization of the overlap matrix:
Smallest eigenvalue                        ... 6.540e-04
Time for diagonalization                   ...    0.003 sec
Threshold for overlap eigenvalues          ... 1.000e-08
Number of eigenvalues below threshold      ... 0
Time for construction of square roots      ...    0.011 sec
Total time needed                          ...    0.014 sec

-------------------
DFT GRID GENERATION
-------------------

General Integration Accuracy     IntAcc      ...  4.340
Radial Grid Type                 RadialGrid  ... Gauss-Chebyshev
Angular Grid (max. acc.)         AngularGrid ... Lebedev-110
Angular grid pruning method      GridPruning ... 3 (G Style)
Weight generation scheme         WeightScheme... Becke
Basis function cutoff            BFCut       ...    1.0000e-11
Integration weight cutoff        WCut        ...    1.0000e-14
Grids for H and He will be reduced by one unit

# of grid points (after initial pruning)     ...   2912 (   0.0 sec)
# of grid points (after weights+screening)   ...   2912 (   0.0 sec)
Grid point division into batches done        ...    0.0 sec
Reduced shell lists constructed in    0.0 sec

Total number of grid points                  ...     2912
Total number of batches                      ...       46
Average number of points per batch           ...       63
Average number of grid points per atom       ...     2912
Average number of shells per batch           ...    12.00 (48.00%)
Average number of basis functions per batch  ...    30.67 (32.97%)
Average number of large shells per batch     ...     9.33 (77.78%)
Average number of large basis fcns per batch ...    22.67 (73.91%)
Maximum spatial batch extension              ...  17.39, 26.34, 26.34 au
Average spatial batch extension              ...   0.76,  1.15,  1.15 au

Time for grid setup =    0.061 sec

------------------------------
INITIAL GUESS: MODEL POTENTIAL
------------------------------
Loading Hartree-Fock densities                     ... done
Calculating cut-offs                               ... done
Setting up the integral package                    ... done
Initializing the effective Hamiltonian             ... done
Starting the Coulomb interaction                   ... done (   0.0 sec)
Reading the grid                                   ... done
Mapping shells                                     ... done
Starting the XC term evaluation                    ... done (   0.0 sec)
Transforming the Hamiltonian                       ... done (   0.0 sec)
Diagonalizing the Hamiltonian                      ... done (   0.0 sec)
Back transforming the eigenvectors                 ... done (   0.0 sec)
Now organizing SCF variables                       ... done
                      ------------------
                      INITIAL GUESS DONE (   0.2 sec)
                      ------------------
--------------
SCF ITERATIONS
--------------
ITER       Energy         Delta-E        Max-DP      RMS-DP      [F,P]     Damp
               ***  Starting incremental Fock matrix formation  ***
  0  -1777.7384362645   0.000000000000 0.03340973  0.00146989  0.4126390 0.7000
  1  -1777.7769600207  -0.038523756270 0.04817660  0.00149131  0.2779815 0.7000
                               ***Turning on DIIS***
  2  -1777.7976783618  -0.020718341112 0.04466174  0.00129114  0.1913394 0.7000
  3  -1777.3342304660   0.463447895844 0.04015792  0.00112365  0.1348306 0.7000
  4  -1777.5597770414  -0.225546575384 0.08748711  0.00258605  0.0971465 0.0000
  5  -1777.8126430078  -0.252865966422 0.02554041  0.00033257  0.0100130 0.0000
  6  -1777.8662462936  -0.053603285826 0.01843722  0.00024004  0.0061096 0.0000
  7  -1777.8486667478   0.017579545853 0.01521915  0.00018376  0.0024126 0.0000
  8  -1777.8523312160  -0.003664468209 0.00764145  0.00008938  0.0012072 0.0000
  9  -1777.8505534684   0.001777747542 0.00534960  0.00006358  0.0006054 0.0000
 10  -1777.8469212592   0.003632209227 0.00051945  0.00000760  0.0000660 0.0000
 11  -1777.8468890689   0.000032190306 0.00009059  0.00000150  0.0000093 0.0000
 12  -1777.8467731138   0.000115955151 0.00002751  0.00000048  0.0000022 0.0000
                            ***DIIS convergence achieved***

               *****************************************************
               *                     SUCCESS                       *
               *           SCF CONVERGED AFTER  13 CYCLES          *
               *****************************************************


----------------
TOTAL SCF ENERGY
----------------

Total Energy       :        -1777.84677073 Eh          -48377.67010 eV

Components:
Nuclear Repulsion  :            0.00000000 Eh               0.00000 eV
Electronic Energy  :        -1777.84677073 Eh          -48377.67010 eV
One Electron Energy:        -2484.09044376 Eh          -67595.53747 eV
Two Electron Energy:          706.24367303 Eh           19217.86736 eV

Virial components:
Potential Energy   :        -3555.69744930 Eh          -96755.44655 eV
Kinetic Energy     :         1777.85067857 Eh           48377.77644 eV
Virial Ratio       :            1.99999780


---------------
SCF CONVERGENCE
---------------

  Last Energy change         ...    2.3841e-06  Tolerance :   1.0000e-08
  Last MAX-Density change    ...    5.0655e-06  Tolerance :   1.0000e-07
  Last RMS-Density change    ...    9.8664e-08  Tolerance :   5.0000e-09
  Last DIIS Error            ...    2.7243e-07  Tolerance :   5.0000e-07

             **** THE GBW FILE WAS UPDATED (30_Zn.gbw) ****
             **** DENSITY FILE WAS UPDATED (30_Zn.scfp) ****
             **** ENERGY FILE WAS UPDATED (30_Zn.en.tmp) ****
             **** THE GBW FILE WAS UPDATED (30_Zn.gbw) ****
             **** DENSITY FILE WAS UPDATED (30_Zn.scfp) ****
----------------
ORBITAL ENERGIES
----------------

  NO   OCC          E(Eh)            E(eV) 
   0   2.0000    -353.304419     -9613.9020 
   1   2.0000     -44.361707     -1207.1434 
   2   2.0000     -38.924820     -1059.1982 
   3   2.0000     -38.924820     -1059.1982 
   4   2.0000     -38.924820     -1059.1982 
   5   2.0000      -5.637861      -153.4140 
   6   2.0000      -3.839414      -104.4758 
   7   2.0000      -3.839414      -104.4758 
   8   2.0000      -3.839414      -104.4758 
   9   2.0000      -0.782459       -21.2918 
  10   2.0000      -0.782459       -21.2918 
  11   2.0000      -0.782459       -21.2918 
  12   2.0000      -0.782459       -21.2918 
  13   2.0000      -0.782459       -21.2918 
  14   2.0000      -0.292565        -7.9611 
  15   0.0000       0.026257         0.7145 
  16   0.0000       0.026257         0.7145 
  17   0.0000       0.026257         0.7145 
  18   0.0000       0.034961         0.9513 
  19   0.0000       0.088927         2.4198 
  20   0.0000       0.088927         2.4198 
  21   0.0000       0.088927         2.4198 
  22   0.0000       0.202133         5.5003 
  23   0.0000       0.264488         7.1971 
  24   0.0000       0.264488         7.1971 
  25   0.0000       0.264488         7.1971 
  26   0.0000       0.264488         7.1971 
  27   0.0000       0.264488         7.1971 
  28   0.0000       0.325559         8.8589 
  29   0.0000       0.325559         8.8589 
  30   0.0000       0.325559         8.8589 
  31   0.0000       0.856833        23.3156 
  32   0.0000       0.932444        25.3731 
  33   0.0000       0.932444        25.3731 
  34   0.0000       0.932444        25.3731 
  35   0.0000       0.932444        25.3731 
  36   0.0000       0.932444        25.3731 
  37   0.0000       1.186400        32.2836 
  38   0.0000       1.186400        32.2836 
  39   0.0000       1.186400        32.2836 
  40   0.0000       1.897701        51.6391 
  41   0.0000       1.897701        51.6391 
  42   0.0000       1.897701        51.6391 
  43   0.0000       1.897701        51.6391 
  44   0.0000       1.897701        51.6391 
  45   0.0000       1.897701        51.6391 
  46   0.0000       1.897701        51.6391 
  47   0.0000       3.186040        86.6965 
  48   0.0000       3.186040        86.6965 
  49   0.0000       3.186040        86.6965 
  50   0.0000       3.186040        86.6965 
  51   0.0000       3.186040        86.6965 
  52   0.0000       4.746366       129.1552 
  53   0.0000       4.849331       131.9570 
  54   0.0000       4.849331       131.9570 
  55   0.0000       4.849331       131.9570 
  56   0.0000       5.394708       146.7975 
  57   0.0000       5.394708       146.7975 
  58   0.0000       5.394708       146.7975 
  59   0.0000       5.394708       146.7975 
  60   0.0000       5.394708       146.7975 
  61   0.0000       5.394708       146.7975 
  62   0.0000       5.394708       146.7975 
  63   0.0000       7.883500       214.5209 
  64   0.0000       7.883500       214.5209 
  65   0.0000       7.883500       214.5209 
  66   0.0000       7.883500       214.5209 
  67   0.0000       7.883500       214.5209 
  68   0.0000       7.883500       214.5209 
  69   0.0000       7.883500       214.5209 
  70   0.0000       7.883500       214.5209 
  71   0.0000       7.883500       214.5209 
  72   0.0000      11.037655       300.3499 
  73   0.0000      11.037655       300.3499 
  74   0.0000      11.037655       300.3499 
  75   0.0000      11.037655       300.3499 
  76   0.0000      11.037655       300.3499 
  77   0.0000      16.808467       457.3816 
  78   0.0000      16.808467       457.3816 
  79   0.0000      16.808467       457.3816 
  80   0.0000      16.808467       457.3816 
  81   0.0000      16.808467       457.3816 
  82   0.0000      16.808467       457.3816 
  83   0.0000      16.808467       457.3816 
  84   0.0000      20.544301       559.0388 
  85   0.0000      20.544301       559.0388 
  86   0.0000      20.544301       559.0388 
  87   0.0000      20.544301       559.0388 
  88   0.0000      20.544301       559.0388 
  89   0.0000      20.544301       559.0388 
  90   0.0000      20.544301       559.0388 
  91   0.0000      20.544301       559.0388 
  92   0.0000      20.544301       559.0388 

                    ********************************
                    * MULLIKEN POPULATION ANALYSIS *
                    ********************************

-----------------------
MULLIKEN ATOMIC CHARGES
-----------------------
   0 Zn:   -0.000000
Sum of atomic charges:   -0.0000000

--------------------------------
MULLIKEN REDUCED ORBITAL CHARGES
--------------------------------
  0 Zns       :     8.000000  s :     8.000000
      pz      :     4.000000  p :    12.000000
      px      :     4.000000
      py      :     4.000000
      dz2     :     2.000000  d :    10.000000
      dxz     :     2.000000
      dyz     :     2.000000
      dx2y2   :     2.000000
      dxy     :     2.000000
      f0      :     0.000000  f :     0.000000
      f+1     :     0.000000
      f-1     :     0.000000
      f+2     :     0.000000
      f-2     :     0.000000
      f+3     :     0.000000
      f-3     :     0.000000
      g0      :     0.000000  g :     0.000000
      g+1     :     0.000000
      g-1     :     0.000000
      g+2     :     0.000000
      g-2     :     0.000000
      g+3     :     0.000000
      g-3     :     0.000000
      g+4     :     0.000000
      g-4     :     0.000000


                     *******************************
                     * LOEWDIN POPULATION ANALYSIS *
                     *******************************

----------------------
LOEWDIN ATOMIC CHARGES
----------------------
   0 Zn:   -0.000000

-------------------------------
LOEWDIN REDUCED ORBITAL CHARGES
-------------------------------
  0 Zns       :     8.000000  s :     8.000000
      pz      :     4.000000  p :    12.000000
      px      :     4.000000
      py      :     4.000000
      dz2     :     2.000000  d :    10.000000
      dxz     :     2.000000
      dyz     :     2.000000
      dx2y2   :     2.000000
      dxy     :     2.000000
      f0      :     0.000000  f :     0.000000
      f+1     :     0.000000
      f-1     :     0.000000
      f+2     :     0.000000
      f-2     :     0.000000
      f+3     :     0.000000
      f-3     :     0.000000
      g0      :     0.000000  g :     0.000000
      g+1     :     0.000000
      g-1     :     0.000000
      g+2     :     0.000000
      g-2     :     0.000000
      g+3     :     0.000000
      g-3     :     0.000000
      g+4     :     0.000000
      g-4     :     0.000000


                      *****************************
                      * MAYER POPULATION ANALYSIS *
                      *****************************

  NA   - Mulliken gross atomic population
  ZA   - Total nuclear charge
  QA   - Mulliken gross atomic charge
  VA   - Mayer's total valence
  BVA  - Mayer's bonded valence
  FA   - Mayer's free valence

  ATOM       NA         ZA         QA         VA         BVA        FA
  0 Zn    30.0000    30.0000    -0.0000    -0.0000     0.0000    -0.0000

  Mayer bond orders larger than 0.100000


--------------------------
ATOM BASIS FOR ELEMENT Zn
--------------------------
 NewGTO Zn
 S 110
    1    5820021.000000000000         0.000008549199
    2     871523.400000000023         0.000066474095
    3     198335.000000000000         0.000349496174
    4      56176.309999999998         0.001473831891
    5      18325.820000000000         0.005338329605
    6       6614.955000000000         0.017127078731
    7       2579.199000000000         0.048940846375
    8       1068.849000000000         0.121793390978
    9        465.104500000000         0.247658881655
   10        210.413000000000         0.358243073463
   11         97.616290000000         0.279817379272
   12         44.380200000000         0.068574904920
   13         21.423080000000        -0.001311091903
   14         10.308910000000         0.001914000858
   15          4.553645000000        -0.000875921935
   16          2.132821000000         0.000374009572
   17          0.929697000000        -0.000140139890
   18          0.192147000000         0.000047571296
   19          0.087595000000        -0.000036427097
   20    5820021.000000000000         0.000000000002
   21     871523.400000000023         0.000000000013
   22     198335.000000000000         0.000000000070
   23      56176.309999999998         0.000000000296
   24      18325.820000000000         0.000000001078
   25       6614.955000000000         0.000000003492
   26       2579.199000000000         0.000000010220
   27       1068.849000000000         0.000000026814
   28        465.104500000000         0.000000061181
   29        210.413000000000         0.000000111869
   30         97.616290000000         0.000000127386
   31         44.380200000000        -0.000000029483
   32         21.423080000000        -0.000000341108
   33         10.308910000000        -0.000000325609
   34          4.553645000000        -0.000000058183
   35    5820021.000000000000        -0.000000000003
   36     871523.400000000023        -0.000000000024
   37     198335.000000000000        -0.000000000126
   38      56176.309999999998        -0.000000000534
   39      18325.820000000000        -0.000000001942
   40       6614.955000000000        -0.000000006307
   41       2579.199000000000        -0.000000018473
   42       1068.849000000000        -0.000000048913
   43        465.104500000000        -0.000000112852
   44        210.413000000000        -0.000000213824
   45         97.616290000000        -0.000000255574
   46         44.380200000000         0.000000062399
   47         21.423080000000         0.000001009047
   48         10.308910000000         0.000001427979
   49          4.553645000000        -0.000000507403
   50          2.132821000000        -0.000002263820
   51          0.929697000000        -0.000001169508
   52    5820021.000000000000         0.000000000003
   53     871523.400000000023         0.000000000021
   54     198335.000000000000         0.000000000112
   55      56176.309999999998         0.000000000474
   56      18325.820000000000         0.000000001723
   57       6614.955000000000         0.000000005600
   58       2579.199000000000         0.000000016400
   59       1068.849000000000         0.000000043494
   60        465.104500000000         0.000000100431
   61        210.413000000000         0.000000191305
   62         97.616290000000         0.000000229715
   63         44.380200000000        -0.000000055491
   64         21.423080000000        -0.000000958239
   65         10.308910000000        -0.000001416425
   66          4.553645000000         0.000000614837
   67          2.132821000000         0.000002956351
   68          0.929697000000         0.000003052790
   69          0.192147000000        -0.000004282910
   70          0.087595000000        -0.000007828634
   71    5820021.000000000000        -0.000000000002
   72     871523.400000000023        -0.000000000017
   73     198335.000000000000        -0.000000000084
   74      56176.309999999998        -0.000000000372
   75      18325.820000000000        -0.000000001273
   76       6614.955000000000        -0.000000004455
   77       2579.199000000000        -0.000000011915
   78       1068.849000000000        -0.000000035294
   79        465.104500000000        -0.000000070876
   80        210.413000000000        -0.000000163535
   81         97.616290000000        -0.000000136411
   82         44.380200000000        -0.000000062583
   83         21.423080000000         0.000001010224
   84         10.308910000000         0.000000797047
   85          4.553645000000        -0.000000067779
   86          2.132821000000        -0.000005171602
   87          0.929697000000         0.000003125761
   88          0.192147000000         0.000006474796
   89          0.087595000000        -0.000005304468
   90    5820021.000000000000         0.000000000002
   91     871523.400000000023         0.000000000014
   92     198335.000000000000         0.000000000072
   93      56176.309999999998         0.000000000307
   94      18325.820000000000         0.000000001105
   95       6614.955000000000         0.000000003636
   96       2579.199000000000         0.000000010495
   97       1068.849000000000         0.000000028385
   98        465.104500000000         0.000000064256
   99        210.413000000000         0.000000127198
  100         97.616290000000         0.000000145841
  101         44.380200000000        -0.000000016227
  102         21.423080000000        -0.000000731323
  103         10.308910000000        -0.000001299665
  104          4.553645000000         0.000001979060
  105          2.132821000000         0.000003483022
  106          0.929697000000        -0.000006122946
  107          0.192147000000         0.000004550214
  108          0.087595000000        -0.000001320344
  109          0.037702000000         0.000027449675
  110          0.016230000000        -0.000008217018
 S 107
    1    5820021.000000000000        -0.000000000006
    2     871523.400000000023        -0.000000000050
    3     198335.000000000000        -0.000000000261
    4      56176.309999999998        -0.000000001100
    5      18325.820000000000        -0.000000003983
    6       6614.955000000000        -0.000000012780
    7       2579.199000000000        -0.000000036519
    8       1068.849000000000        -0.000000090880
    9        465.104500000000        -0.000000184799
   10        210.413000000000        -0.000000267315
   11         97.616290000000        -0.000000208795
   12         44.380200000000        -0.000000051170
   13    5820021.000000000000         0.000002640114
   14     871523.400000000023         0.000020527307
   15     198335.000000000000         0.000107986464
   16      56176.309999999998         0.000455860082
   17      18325.820000000000         0.001657766664
   18       6614.955000000000         0.005368520058
   19       2579.199000000000         0.015712572119
   20       1068.849000000000         0.041225795459
   21        465.104500000000         0.094065081613
   22        210.413000000000         0.171996298906
   23         97.616290000000         0.195853323590
   24         44.380200000000        -0.045329306905
   25         21.423080000000        -0.524446940921
   26         10.308910000000        -0.500616816377
   27          4.553645000000        -0.089455737523
   28          2.132821000000         0.002146273217
   29          0.929697000000        -0.002112124039
   30          0.192147000000         0.000413400161
   31          0.087595000000        -0.000320976878
   32    5820021.000000000000        -0.000000000025
   33     871523.400000000023        -0.000000000191
   34     198335.000000000000        -0.000000001003
   35      56176.309999999998        -0.000000004241
   36      18325.820000000000        -0.000000015407
   37       6614.955000000000        -0.000000050037
   38       2579.199000000000        -0.000000146568
   39       1068.849000000000        -0.000000388075
   40        465.104500000000        -0.000000895369
   41        210.413000000000        -0.000001696483
   42         97.616290000000        -0.000002027726
   43         44.380200000000         0.000000495077
   44         21.423080000000         0.000008005776
   45         10.308910000000         0.000011329588
   46          4.553645000000        -0.000004025737
   47          2.132821000000        -0.000017961146
   48          0.929697000000        -0.000009278875
   49    5820021.000000000000         0.000000000021
   50     871523.400000000023         0.000000000163
   51     198335.000000000000         0.000000000859
   52      56176.309999999998         0.000000003633
   53      18325.820000000000         0.000000013194
   54       6614.955000000000         0.000000042878
   55       2579.199000000000         0.000000125564
   56       1068.849000000000         0.000000332998
   57        465.104500000000         0.000000768918
   58        210.413000000000         0.000001464660
   59         97.616290000000         0.000001758735
   60         44.380200000000        -0.000000424844
   61         21.423080000000        -0.000007336424
   62         10.308910000000        -0.000010844365
   63          4.553645000000         0.000004707282
   64          2.132821000000         0.000022634274
   65          0.929697000000         0.000023372626
   66          0.192147000000        -0.000032790608
   67          0.087595000000        -0.000059937215
   68    5820021.000000000000        -0.000000000016
   69     871523.400000000023        -0.000000000126
   70     198335.000000000000        -0.000000000637
   71      56176.309999999998        -0.000000002824
   72      18325.820000000000        -0.000000009651
   73       6614.955000000000        -0.000000033783
   74       2579.199000000000        -0.000000090362
   75       1068.849000000000        -0.000000267657
   76        465.104500000000        -0.000000537507
   77        210.413000000000        -0.000001240207
   78         97.616290000000        -0.000001034502
   79         44.380200000000        -0.000000474610
   80         21.423080000000         0.000007661261
   81         10.308910000000         0.000006044584
   82          4.553645000000        -0.000000514016
   83          2.132821000000        -0.000039220008
   84          0.929697000000         0.000023704913
   85          0.192147000000         0.000049103073
   86          0.087595000000        -0.000040227628
   87    5820021.000000000000         0.000000000013
   88     871523.400000000023         0.000000000101
   89     198335.000000000000         0.000000000527
   90      56176.309999999998         0.000000002246
   91      18325.820000000000         0.000000008077
   92       6614.955000000000         0.000000026582
   93       2579.199000000000         0.000000076733
   94       1068.849000000000         0.000000207538
   95        465.104500000000         0.000000469811
   96        210.413000000000         0.000000930013
   97         97.616290000000         0.000001066318
   98         44.380200000000        -0.000000118647
   99         21.423080000000        -0.000005347084
  100         10.308910000000        -0.000009502530
  101          4.553645000000         0.000014469940
  102          2.132821000000         0.000025466189
  103          0.929697000000        -0.000044768053
  104          0.192147000000         0.000033268991
  105          0.087595000000        -0.000009653726
  106          0.037702000000         0.000227512738
  107          0.016230000000        -0.000067120739
 S 107
    1    5820021.000000000000        -0.000000000086
    2     871523.400000000023        -0.000000000668
    3     198335.000000000000        -0.000000003512
    4      56176.309999999998        -0.000000014809
    5      18325.820000000000        -0.000000053638
    6       6614.955000000000        -0.000000172087
    7       2579.199000000000        -0.000000491740
    8       1068.849000000000        -0.000001223737
    9        465.104500000000        -0.000002488389
   10        210.413000000000        -0.000003599501
   11         97.616290000000        -0.000002811507
   12         44.380200000000        -0.000000689017
   13    5820021.000000000000         0.000000000188
   14     871523.400000000023         0.000000001462
   15     198335.000000000000         0.000000007691
   16      56176.309999999998         0.000000032468
   17      18325.820000000000         0.000000118071
   18       6614.955000000000         0.000000382363
   19       2579.199000000000         0.000001119100
   20       1068.849000000000         0.000002936234
   21        465.104500000000         0.000006699618
   22        210.413000000000         0.000012250131
   23         97.616290000000         0.000013949305
   24         44.380200000000        -0.000003228499
   25         21.423080000000        -0.000037352801
   26         10.308910000000        -0.000035655543
   27          4.553645000000        -0.000006371326
   28          2.132821000000         0.000000152864
   29          0.929697000000        -0.000000150432
   30    5820021.000000000000         0.000000996376
   31     871523.400000000023         0.000007751683
   32     198335.000000000000         0.000040746969
   33      56176.309999999998         0.000172225176
   34      18325.820000000000         0.000625733815
   35       6614.955000000000         0.002032195115
   36       2579.199000000000         0.005952713063
   37       1068.849000000000         0.015761282072
   38        465.104500000000         0.036364571869
   39        210.413000000000         0.068901056777
   40         97.616290000000         0.082354188340
   41         44.380200000000        -0.020107070928
   42         21.423080000000        -0.325147019809
   43         10.308910000000        -0.460140485374
   44          4.553645000000         0.163501508569
   45          2.132821000000         0.729474928377
   46          0.929697000000         0.376852730177
   47          0.192147000000         0.014327587614
   48          0.087595000000        -0.006669044460
   49    5820021.000000000000         0.000000000285
   50     871523.400000000023         0.000000002216
   51     198335.000000000000         0.000000011646
   52      56176.309999999998         0.000000049242
   53      18325.820000000000         0.000000178841
   54       6614.955000000000         0.000000581211
   55       2579.199000000000         0.000001702016
   56       1068.849000000000         0.000004513761
   57        465.104500000000         0.000010422633
   58        210.413000000000         0.000019853375
   59         97.616290000000         0.000023839536
   60         44.380200000000        -0.000005758730
   61         21.423080000000        -0.000099444766
   62         10.308910000000        -0.000146994682
   63          4.553645000000         0.000063806912
   64          2.132821000000         0.000306806135
   65          0.929697000000         0.000316814454
   66          0.192147000000        -0.000444474598
   67          0.087595000000        -0.000812445122
   68    5820021.000000000000        -0.000000000201
   69     871523.400000000023        -0.000000001602
   70     198335.000000000000        -0.000000008117
   71      56176.309999999998        -0.000000036004
   72      18325.820000000000        -0.000000123062
   73       6614.955000000000        -0.000000430763
   74       2579.199000000000        -0.000001152196
   75       1068.849000000000        -0.000003412846
   76        465.104500000000        -0.000006853654
   77        210.413000000000        -0.000015813661
   78         97.616290000000        -0.000013190748
   79         44.380200000000        -0.000006051662
   80         21.423080000000         0.000097687392
   81         10.308910000000         0.000077073435
   82          4.553645000000        -0.000006554131
   83          2.132821000000        -0.000500087431
   84          0.929697000000         0.000302257187
   85          0.192147000000         0.000626104663
   86          0.087595000000        -0.000512935417
   87    5820021.000000000000         0.000000000158
   88     871523.400000000023         0.000000001231
   89     198335.000000000000         0.000000006430
   90      56176.309999999998         0.000000027406
   91      18325.820000000000         0.000000098545
   92       6614.955000000000         0.000000324330
   93       2579.199000000000         0.000000936240
   94       1068.849000000000         0.000002532229
   95        465.104500000000         0.000005732298
   96        210.413000000000         0.000011347345
   97         97.616290000000         0.000013010444
   98         44.380200000000        -0.000001447649
   99         21.423080000000        -0.000065241252
  100         10.308910000000        -0.000115943002
  101          4.553645000000         0.000176551757
  102          2.132821000000         0.000310720031
  103          0.929697000000        -0.000546227426
  104          0.192147000000         0.000405924181
  105          0.087595000000        -0.000117787788
  106          0.037702000000         0.003521150940
  107          0.016230000000        -0.000962175313
 S 109
    1    5820021.000000000000        -0.000000000146
    2     871523.400000000023        -0.000000001132
    3     198335.000000000000        -0.000000005953
    4      56176.309999999998        -0.000000025106
    5      18325.820000000000        -0.000000090935
    6       6614.955000000000        -0.000000291750
    7       2579.199000000000        -0.000000833679
    8       1068.849000000000        -0.000002074679
    9        465.104500000000        -0.000004218725
   10        210.413000000000        -0.000006102462
   11         97.616290000000        -0.000004766526
   12         44.380200000000        -0.000001168133
   13         21.423080000000         0.000000022334
   14         10.308910000000        -0.000000032604
   15    5820021.000000000000         0.000000000315
   16     871523.400000000023         0.000000002447
   17     198335.000000000000         0.000000012872
   18      56176.309999999998         0.000000054337
   19      18325.820000000000         0.000000197602
   20       6614.955000000000         0.000000639914
   21       2579.199000000000         0.000001872900
   22       1068.849000000000         0.000004914013
   23        465.104500000000         0.000011212325
   24        210.413000000000         0.000020501533
   25         97.616290000000         0.000023345231
   26         44.380200000000        -0.000005403141
   27         21.423080000000        -0.000062512776
   28         10.308910000000        -0.000059672284
   29          4.553645000000        -0.000010662902
   30          2.132821000000         0.000000255830
   31          0.929697000000        -0.000000251760
   32    5820021.000000000000        -0.000000000553
   33     871523.400000000023        -0.000000004299
   34     198335.000000000000        -0.000000022597
   35      56176.309999999998        -0.000000095511
   36      18325.820000000000        -0.000000347012
   37       6614.955000000000        -0.000001126992
   38       2579.199000000000        -0.000003301189
   39       1068.849000000000        -0.000008740714
   40        465.104500000000        -0.000020166655
   41        210.413000000000        -0.000038210373
   42         97.616290000000        -0.000045671059
   43         44.380200000000         0.000011150753
   44         21.423080000000         0.000180316376
   45         10.308910000000         0.000255179534
   46          4.553645000000        -0.000090672827
   47          2.132821000000        -0.000404543999
   48          0.929697000000        -0.000208990747
   49          0.192147000000        -0.000007945632
   50          0.087595000000         0.000003698444
   51    5820021.000000000000         0.000000200064
   52     871523.400000000023         0.000001556613
   53     198335.000000000000         0.000008180287
   54      56176.309999999998         0.000034587781
   55      18325.820000000000         0.000125619071
   56       6614.955000000000         0.000408246570
   57       2579.199000000000         0.001195508863
   58       1068.849000000000         0.003170498958
   59        465.104500000000         0.007320934420
   60        210.413000000000         0.013945157723
   61         97.616290000000         0.016745066515
   62         44.380200000000        -0.004044974680
   63         21.423080000000        -0.069850738634
   64         10.308910000000        -0.103250151095
   65          4.553645000000         0.044818446868
   66          2.132821000000         0.215502897868
   67          0.929697000000         0.222532814816
   68          0.192147000000        -0.312202244070
   69          0.087595000000        -0.570667460598
   70    5820021.000000000000        -0.000000000169
   71     871523.400000000023        -0.000000001346
   72     198335.000000000000        -0.000000006819
   73      56176.309999999998        -0.000000030248
   74      18325.820000000000        -0.000000103386
   75       6614.955000000000        -0.000000361892
   76       2579.199000000000        -0.000000967981
   77       1068.849000000000        -0.000002867196
   78        465.104500000000        -0.000005757883
   79        210.413000000000        -0.000013285353
   80         97.616290000000        -0.000011081794
   81         44.380200000000        -0.000005084115
   82         21.423080000000         0.000082069008
   83         10.308910000000         0.000064750837
   84          4.553645000000        -0.000005506248
   85          2.132821000000        -0.000420132820
   86          0.929697000000         0.000253931925
   87          0.192147000000         0.000526002257
   88          0.087595000000        -0.000430926653
   89    5820021.000000000000         0.000000000132
   90     871523.400000000023         0.000000001028
   91     198335.000000000000         0.000000005367
   92      56176.309999999998         0.000000022878
   93      18325.820000000000         0.000000082262
   94       6614.955000000000         0.000000270742
   95       2579.199000000000         0.000000781547
   96       1068.849000000000         0.000002113834
   97        465.104500000000         0.000004785163
   98        210.413000000000         0.000009472448
   99         97.616290000000         0.000010860756
  100         44.380200000000        -0.000001208457
  101         21.423080000000        -0.000054461583
  102         10.308910000000        -0.000096785993
  103          4.553645000000         0.000147380496
  104          2.132821000000         0.000259380440
  105          0.929697000000        -0.000455975464
  106          0.192147000000         0.000338854217
  107          0.087595000000        -0.000098325969
  108          0.037702000000        -0.264469402928
  109          0.016230000000        -0.002037516547
 S 114
    1    5820021.000000000000         0.000000043345
    2     871523.400000000023         0.000000337026
    3     198335.000000000000         0.000001771958
    4      56176.309999999998         0.000007472380
    5      18325.820000000000         0.000027065522
    6       6614.955000000000         0.000086834903
    7       2579.199000000000         0.000248131844
    8       1068.849000000000         0.000617496855
    9        465.104500000000         0.001255639402
   10        210.413000000000         0.001816305215
   11         97.616290000000         0.001418684136
   12         44.380200000000         0.000347677224
   13         21.423080000000        -0.000006647283
   14         10.308910000000         0.000009704053
   15          4.553645000000        -0.000004440956
   16          2.132821000000         0.000001896242
   17          0.929697000000        -0.000000710514
   18    5820021.000000000000        -0.000000093585
   19     871523.400000000023        -0.000000727639
   20     198335.000000000000        -0.000003827836
   21      56176.309999999998        -0.000016159038
   22      18325.820000000000        -0.000058763459
   23       6614.955000000000        -0.000190299886
   24       2579.199000000000        -0.000556969268
   25       1068.849000000000        -0.001461345790
   26        465.104500000000        -0.003334359215
   27        210.413000000000        -0.006096815465
   28         97.616290000000        -0.006942484110
   29         44.380200000000         0.001606804455
   30         21.423080000000         0.018590261768
   31         10.308910000000         0.017745546662
   32          4.553645000000         0.003170970116
   33          2.132821000000        -0.000076079729
   34          0.929697000000         0.000074869230
   35          0.192147000000        -0.000014653946
   36          0.087595000000         0.000011377784
   37    5820021.000000000000         0.000000158606
   38     871523.400000000023         0.000001233938
   39     198335.000000000000         0.000006486233
   40      56176.309999999998         0.000027415354
   41      18325.820000000000         0.000099606308
   42       6614.955000000000         0.000323491311
   43       2579.199000000000         0.000947571883
   44       1068.849000000000         0.002508931234
   45        465.104500000000         0.005788628727
   46        210.413000000000         0.010967890341
   47         97.616290000000         0.013109402803
   48         44.380200000000        -0.003200707788
   49         21.423080000000        -0.051757941385
   50         10.308910000000        -0.073246632507
   51          4.553645000000         0.026026692484
   52          2.132821000000         0.116120149607
   53          0.929697000000         0.059988621549
   54          0.192147000000         0.002280711170
   55          0.087595000000        -0.001061599803
   56    5820021.000000000000        -0.000000077228
   57     871523.400000000023        -0.000000600880
   58     198335.000000000000        -0.000003157737
   59      56176.309999999998        -0.000013351501
   60      18325.820000000000        -0.000048491203
   61       6614.955000000000        -0.000157590461
   62       2579.199000000000        -0.000461487756
   63       1068.849000000000        -0.001223869177
   64        465.104500000000        -0.002826011333
   65        210.413000000000        -0.005383079741
   66         97.616290000000        -0.006463894500
   67         44.380200000000         0.001561432411
   68         21.423080000000         0.026963631640
   69         10.308910000000         0.039856400882
   70          4.553645000000        -0.017300720303
   71          2.132821000000        -0.083187964353
   72          0.929697000000        -0.085901637748
   73          0.192147000000         0.120515637643
   74          0.087595000000         0.220287823687
   75    5820021.000000000000         0.000000061701
   76     871523.400000000023         0.000000492260
   77     198335.000000000000         0.000002494355
   78      56176.309999999998         0.000011063788
   79      18325.820000000000         0.000037815540
   80       6614.955000000000         0.000132368777
   81       2579.199000000000         0.000354057468
   82       1068.849000000000         0.001048731125
   83        465.104500000000         0.002106054815
   84        210.413000000000         0.004859369243
   85         97.616290000000         0.004053376108
   86         44.380200000000         0.001859611337
   87         21.423080000000        -0.030018293750
   88         10.308910000000        -0.023683844722
   89          4.553645000000         0.002014014639
   90          2.132821000000         0.153671534129
   91          0.929697000000        -0.092880409912
   92          0.192147000000        -0.192395285617
   93          0.087595000000         0.157619583150
   94    5820021.000000000000        -0.000000040912
   95     871523.400000000023        -0.000000319666
   96     198335.000000000000        -0.000001669773
   97      56176.309999999998        -0.000007117208
   98      18325.820000000000        -0.000025591153
   99       6614.955000000000        -0.000084225571
  100       2579.199000000000        -0.000243132887
  101       1068.849000000000        -0.000657596550
  102        465.104500000000        -0.001488624861
  103        210.413000000000        -0.002946800854
  104         97.616290000000        -0.003378692356
  105         44.380200000000         0.000375941006
  106         21.423080000000         0.016942552095
  107         10.308910000000         0.030109329507
  108          4.553645000000        -0.045848864848
  109          2.132821000000        -0.080691129724
  110          0.929697000000         0.141850230681
  111          0.192147000000        -0.105414770454
  112          0.087595000000         0.030588403373
  113          0.037702000000        -1.919754024976
  114          0.016230000000         2.180752724042
 S 116
    1    5820021.000000000000         0.000000235341
    2     871523.400000000023         0.000001829892
    3     198335.000000000000         0.000009620894
    4      56176.309999999998         0.000040571489
    5      18325.820000000000         0.000146952975
    6       6614.955000000000         0.000471472419
    7       2579.199000000000         0.001347238463
    8       1068.849000000000         0.003352715635
    9        465.104500000000         0.006817527602
   10        210.413000000000         0.009861677583
   11         97.616290000000         0.007702783336
   12         44.380200000000         0.001887722758
   13         21.423080000000        -0.000036091600
   14         10.308910000000         0.000052688414
   15          4.553645000000        -0.000024112287
   16          2.132821000000         0.000010295696
   17          0.929697000000        -0.000003857756
   18          0.192147000000         0.000001309538
   19          0.087595000000        -0.000001002761
   20    5820021.000000000000        -0.000000509912
   21     871523.400000000023        -0.000003964647
   22     198335.000000000000        -0.000020856519
   23      56176.309999999998        -0.000088044871
   24      18325.820000000000        -0.000320181252
   25       6614.955000000000        -0.001036876606
   26       2579.199000000000        -0.003034728057
   27       1068.849000000000        -0.007962355063
   28        465.104500000000        -0.018167741107
   29        210.413000000000        -0.033219385730
   30         97.616290000000        -0.037827134330
   31         44.380200000000         0.008754907754
   32         21.423080000000         0.101291744859
   33         10.308910000000         0.096689191757
   34          4.553645000000         0.017277491838
   35          2.132821000000        -0.000414531466
   36          0.929697000000         0.000407935889
   37          0.192147000000        -0.000079844156
   38          0.087595000000         0.000061993512
   39    5820021.000000000000         0.000000887533
   40     871523.400000000023         0.000006904894
   41     198335.000000000000         0.000036295795
   42      56176.309999999998         0.000153411403
   43      18325.820000000000         0.000557379035
   44       6614.955000000000         0.001810199364
   45       2579.199000000000         0.005302442329
   46       1068.849000000000         0.014039529258
   47        465.104500000000         0.032392128280
   48        210.413000000000         0.061374347477
   49         97.616290000000         0.073357867176
   50         44.380200000000        -0.017910586798
   51         21.423080000000        -0.289628158235
   52         10.308910000000        -0.409875020188
   53          4.553645000000         0.145640703776
   54          2.132821000000         0.649787533371
   55          0.929697000000         0.335685568427
   56          0.192147000000         0.012762450706
   57          0.087595000000        -0.005940522122
   58    5820021.000000000000        -0.000000803096
   59     871523.400000000023        -0.000006248534
   60     198335.000000000000        -0.000032837193
   61      56176.309999999998        -0.000138841784
   62      18325.820000000000        -0.000504258311
   63       6614.955000000000        -0.001638777649
   64       2579.199000000000        -0.004798994891
   65       1068.849000000000        -0.012726972400
   66        465.104500000000        -0.029387592153
   67        210.413000000000        -0.055978456324
   68         97.616290000000        -0.067217810880
   69         44.380200000000         0.016237280563
   70         21.423080000000         0.280393854226
   71         10.308910000000         0.414465306751
   72          4.553645000000        -0.179909580106
   73          2.132821000000        -0.865068706665
   74          0.929697000000        -0.893288100566
   75          0.192147000000         1.253237864394
   76          0.087595000000         2.290765307374
   77    5820021.000000000000         0.000000297422
   78     871523.400000000023         0.000002372864
   79     198335.000000000000         0.000012023645
   80      56176.309999999998         0.000053331250
   81      18325.820000000000         0.000182283867
   82       6614.955000000000         0.000638062882
   83       2579.199000000000         0.001706678362
   84       1068.849000000000         0.005055243520
   85        465.104500000000         0.010151906152
   86        210.413000000000         0.023423825513
   87         97.616290000000         0.019538662313
   88         44.380200000000         0.008963964106
   89         21.423080000000        -0.144698465953
   90         10.308910000000        -0.114164250232
   91          4.553645000000         0.009708240949
   92          2.132821000000         0.740749472129
   93          0.929697000000        -0.447715414590
   94          0.192147000000        -0.927411228556
   95          0.087595000000         0.759780421774
   96    5820021.000000000000        -0.000000195796
   97     871523.400000000023        -0.000001529871
   98     198335.000000000000        -0.000007991277
   99      56176.309999999998        -0.000034061865
  100      18325.820000000000        -0.000122475330
  101       6614.955000000000        -0.000403090655
  102       2579.199000000000        -0.001163596672
  103       1068.849000000000        -0.003147156134
  104        465.104500000000        -0.007124330051
  105        210.413000000000        -0.014102936492
  106         97.616290000000        -0.016169902912
  107         44.380200000000         0.001799195939
  108         21.423080000000         0.081084453280
  109         10.308910000000         0.144098628587
  110          4.553645000000        -0.219425628370
  111          2.132821000000        -0.386175359028
  112          0.929697000000         0.678873426968
  113          0.192147000000        -0.504498907951
  114          0.087595000000         0.146391402563
  115          0.037702000000        -4.709272147708
  116          0.016230000000         1.995663946584
 S 116
    1    5820021.000000000000        -0.000000268409
    2     871523.400000000023        -0.000002087005
    3     198335.000000000000        -0.000010972702
    4      56176.309999999998        -0.000046272087
    5      18325.820000000000        -0.000167600969
    6       6614.955000000000        -0.000537717828
    7       2579.199000000000        -0.001536535565
    8       1068.849000000000        -0.003823797311
    9        465.104500000000        -0.007775441329
   10        210.413000000000        -0.011247317199
   11         97.616290000000        -0.008785082129
   12         44.380200000000        -0.002152961954
   13         21.423080000000         0.000041162740
   14         10.308910000000        -0.000060091531
   15          4.553645000000         0.000027500244
   16          2.132821000000        -0.000011742319
   17          0.929697000000         0.000004399800
   18          0.192147000000        -0.000001493537
   19          0.087595000000         0.000001143657
   20    5820021.000000000000         0.000000581736
   21     871523.400000000023         0.000004523090
   22     198335.000000000000         0.000023794282
   23      56176.309999999998         0.000100446508
   24      18325.820000000000         0.000365280661
   25       6614.955000000000         0.001182926762
   26       2579.199000000000         0.003462187319
   27       1068.849000000000         0.009083899516
   28        465.104500000000         0.020726774095
   29        210.413000000000         0.037898531224
   30         97.616290000000         0.043155308263
   31         44.380200000000        -0.009988087907
   32         21.423080000000        -0.115559281753
   33         10.308910000000        -0.110308432026
   34          4.553645000000        -0.019711127991
   35          2.132821000000         0.000472920656
   36          0.929697000000        -0.000465396054
   37          0.192147000000         0.000091090675
   38          0.087595000000        -0.000070725663
   39    5820021.000000000000        -0.000001014833
   40     871523.400000000023        -0.000007895274
   41     198335.000000000000        -0.000041501761
   42      56176.309999999998        -0.000175415456
   43      18325.820000000000        -0.000637324839
   44       6614.955000000000        -0.002069839275
   45       2579.199000000000        -0.006062980468
   46       1068.849000000000        -0.016053242334
   47        465.104500000000        -0.037038185216
   48        210.413000000000        -0.070177372406
   49         97.616290000000        -0.083879708305
   50         44.380200000000         0.020479532107
   51         21.423080000000         0.331170007591
   52         10.308910000000         0.468664077327
   53          4.553645000000        -0.166530192606
   54          2.132821000000        -0.742987642053
   55          0.929697000000        -0.383833508875
   56          0.192147000000        -0.014592990278
   57          0.087595000000         0.006792581109
   58    5820021.000000000000         0.000000946432
   59     871523.400000000023         0.000007363769
   60     198335.000000000000         0.000038697956
   61      56176.309999999998         0.000163622184
   62      18325.820000000000         0.000594258039
   63       6614.955000000000         0.001931265725
   64       2579.199000000000         0.005655516691
   65       1068.849000000000         0.014998474989
   66        465.104500000000         0.034632672410
   67        210.413000000000         0.065969458461
   68         97.616290000000         0.079214806444
   69         44.380200000000        -0.019135300899
   70         21.423080000000        -0.330438385301
   71         10.308910000000        -0.488438832243
   72          4.553645000000         0.212019736718
   73          2.132821000000         1.019465663375
   74          0.929697000000         1.052721638191
   75          0.192147000000        -1.476915025302
   76          0.087595000000        -2.699619759363
   77    5820021.000000000000        -0.000001197133
   78     871523.400000000023        -0.000009550856
   79     198335.000000000000        -0.000048395567
   80      56176.309999999998        -0.000214660043
   81      18325.820000000000        -0.000733698579
   82       6614.955000000000        -0.002568224158
   83       2579.199000000000        -0.006869436732
   84       1068.849000000000        -0.020347522003
   85        465.104500000000        -0.040861757295
   86        210.413000000000        -0.094281670720
   87         97.616290000000        -0.078643760624
   88         44.380200000000        -0.036080251356
   89         21.423080000000         0.582416100793
   90         10.308910000000         0.459514874828
   91          4.553645000000        -0.039075990211
   92          2.132821000000        -2.981541071490
   93          0.929697000000         1.802069319202
   94          0.192147000000         3.732860801312
   95          0.087595000000        -3.058141271870
   96    5820021.000000000000         0.000000674235
   97     871523.400000000023         0.000005268189
   98     198335.000000000000         0.000027518364
   99      56176.309999999998         0.000117293748
  100      18325.820000000000         0.000421749967
  101       6614.955000000000         0.001388062967
  102       2579.199000000000         0.004006903735
  103       1068.849000000000         0.010837390627
  104        465.104500000000         0.024532989283
  105        210.413000000000         0.048564171976
  106         97.616290000000         0.055681874928
  107         44.380200000000        -0.006195621814
  108         21.423080000000        -0.279218397948
  109         10.308910000000        -0.496210883752
  110          4.553645000000         0.755603200666
  111          2.132821000000         1.329814295016
  112          0.929697000000        -2.337734831037
  113          0.192147000000         1.737267394020
  114          0.087595000000        -0.504106166394
  115          0.037702000000         4.131080787088
  116          0.016230000000        -1.296880873335
 S 115
    1    5820021.000000000000         0.000000167545
    2     871523.400000000023         0.000001302743
    3     198335.000000000000         0.000006849340
    4      56176.309999999998         0.000028883793
    5      18325.820000000000         0.000104619265
    6       6614.955000000000         0.000335652259
    7       2579.199000000000         0.000959130620
    8       1068.849000000000         0.002386876795
    9        465.104500000000         0.004853557594
   10        210.413000000000         0.007020759273
   11         97.616290000000         0.005483791888
   12         44.380200000000         0.001343914050
   13         21.423080000000        -0.000025694455
   14         10.308910000000         0.000037510116
   15          4.553645000000        -0.000017166102
   16          2.132821000000         0.000007329747
   17          0.929697000000        -0.000002746427
   18          0.192147000000         0.000000932291
   19    5820021.000000000000        -0.000000363163
   20     871523.400000000023        -0.000002823647
   21     198335.000000000000        -0.000014854148
   22      56176.309999999998        -0.000062706130
   23      18325.820000000000        -0.000228035172
   24       6614.955000000000        -0.000738470269
   25       2579.199000000000        -0.002161353080
   26       1068.849000000000        -0.005670841115
   27        465.104500000000        -0.012939183498
   28        210.413000000000        -0.023659062793
   29         97.616290000000        -0.026940731344
   30         44.380200000000         0.006235302302
   31         21.423080000000         0.072140640152
   32         10.308910000000         0.068862671867
   33          4.553645000000         0.012305142173
   34          2.132821000000        -0.000295232009
   35          0.929697000000         0.000290534596
   36          0.192147000000        -0.000056865528
   37          0.087595000000         0.000044152183
   38    5820021.000000000000         0.000000633946
   39     871523.400000000023         0.000004932018
   40     198335.000000000000         0.000025925308
   41      56176.309999999998         0.000109578474
   42      18325.820000000000         0.000398123889
   43       6614.955000000000         0.001292986576
   44       2579.199000000000         0.003787420816
   45       1068.849000000000         0.010028134595
   46        465.104500000000         0.023137002405
   47        210.413000000000         0.043838379896
   48         97.616290000000         0.052397950965
   49         44.380200000000        -0.012793147960
   50         21.423080000000        -0.206875180774
   51         10.308910000000        -0.292764934918
   52          4.553645000000         0.104028030649
   53          2.132821000000         0.464129296854
   54          0.929697000000         0.239773000923
   55          0.192147000000         0.009115944779
   56          0.087595000000        -0.004243187525
   57    5820021.000000000000        -0.000000599854
   58     871523.400000000023        -0.000004667197
   59     198335.000000000000        -0.000024526978
   60      56176.309999999998        -0.000103704642
   61      18325.820000000000        -0.000376644019
   62       6614.955000000000        -0.001224046857
   63       2579.199000000000        -0.003584497639
   64       1068.849000000000        -0.009506116083
   65        465.104500000000        -0.021950378585
   66        210.413000000000        -0.041811806238
   67         97.616290000000        -0.050206780766
   68         44.380200000000         0.012128059138
   69         21.423080000000         0.209433669187
   70         10.308910000000         0.309575222978
   71          4.553645000000        -0.134379277276
   72          2.132821000000        -0.646142954296
   73          0.929697000000        -0.667220774361
   74          0.192147000000         0.936076880248
   75          0.087595000000         1.711033877310
   76    5820021.000000000000         0.000000372168
   77     871523.400000000023         0.000002969197
   78     198335.000000000000         0.000015045350
   79      56176.309999999998         0.000066734116
   80      18325.820000000000         0.000228094273
   81       6614.955000000000         0.000798416732
   82       2579.199000000000         0.002135589766
   83       1068.849000000000         0.006325694733
   84        465.104500000000         0.012703217762
   85        210.413000000000         0.029310550338
   86         97.616290000000         0.024448992969
   87         44.380200000000         0.011216729779
   88         21.423080000000        -0.181063151612
   89         10.308910000000        -0.142855273636
   90          4.553645000000         0.012148053480
   91          2.132821000000         0.926909854189
   92          0.929697000000        -0.560232366367
   93          0.192147000000        -1.160482239919
   94          0.087595000000         0.950723539416
   95    5820021.000000000000        -0.000001193876
   96     871523.400000000023        -0.000009328445
   97     198335.000000000000        -0.000048727090
   98      56176.309999999998        -0.000207693417
   99      18325.820000000000        -0.000746797619
  100       6614.955000000000        -0.002457859396
  101       2579.199000000000        -0.007095071500
  102       1068.849000000000        -0.019189894854
  103        465.104500000000        -0.043440852230
  104        210.413000000000        -0.085993149639
  105         97.616290000000        -0.098596549845
  106         44.380200000000         0.010970660306
  107         21.423080000000         0.494415296297
  108         10.308910000000         0.878646439199
  109          4.553645000000        -1.337955460977
  110          2.132821000000        -2.354717789091
  111          0.929697000000         4.139454518916
  112          0.192147000000        -3.076199776496
  113          0.087595000000         0.892626708893
  114          0.037702000000        -2.052193769605
  115          0.016230000000         0.631587074750
 P 72
    1      24411.980000000000         0.000041000001
    2       5778.518000000000         0.000361000012
    3       1876.862000000000         0.002088000069
    4        718.236100000000         0.009221000306
    5        304.832700000000         0.032773001088
    6        139.045300000000         0.094179003127
    7         66.804170000000         0.209132006944
    8         33.206990000000         0.334569011109
    9         16.928160000000         0.330359010970
   10          8.696229000000         0.152347005059
   11          4.350510000000         0.022984000763
   12          2.116523000000         0.001607000053
   13          0.995387000000         0.000468000016
   14          0.378112000000         0.000066000002
   15          0.134579000000        -0.000002000000
   16      24411.980000000000        -0.000000000010
   17       5778.518000000000        -0.000000000088
   18       1876.862000000000        -0.000000000511
   19        718.236100000000        -0.000000002274
   20        304.832700000000        -0.000000008187
   21        139.045300000000        -0.000000024207
   22         66.804170000000        -0.000000055952
   23         33.206990000000        -0.000000094639
   24         16.928160000000        -0.000000093804
   25          8.696229000000         0.000000028509
   26          4.350510000000         0.000000228157
   27          2.116523000000         0.000000296807
   28          0.995387000000         0.000000175648
   29      24411.980000000000        -0.000000000012
   30       5778.518000000000        -0.000000000100
   31       1876.862000000000        -0.000000000578
   32        718.236100000000        -0.000000002587
   33        304.832700000000        -0.000000009269
   34        139.045300000000        -0.000000027666
   35         66.804170000000        -0.000000063699
   36         33.206990000000        -0.000000109695
   37         16.928160000000        -0.000000106771
   38          8.696229000000         0.000000043549
   39          4.350510000000         0.000000320274
   40          2.116523000000         0.000000425653
   41          0.995387000000         0.000000276275
   42          0.378112000000        -0.000000739529
   43          0.134579000000        -0.000002253213
   44      24411.980000000000         0.000000000014
   45       5778.518000000000         0.000000000120
   46       1876.862000000000         0.000000000678
   47        718.236100000000         0.000000003097
   48        304.832700000000         0.000000010878
   49        139.045300000000         0.000000033149
   50         66.804170000000         0.000000074494
   51         33.206990000000         0.000000133092
   52         16.928160000000         0.000000123296
   53          8.696229000000        -0.000000038231
   54          4.350510000000        -0.000000438127
   55          2.116523000000        -0.000000476606
   56          0.995387000000        -0.000000241971
   57          0.378112000000         0.000001283413
   58          0.134579000000         0.000001824481
   59      24411.980000000000        -0.000000000010
   60       5778.518000000000        -0.000000000084
   61       1876.862000000000        -0.000000000518
   62        718.236100000000        -0.000000002166
   63        304.832700000000        -0.000000008317
   64        139.045300000000        -0.000000023093
   65         66.804170000000        -0.000000057880
   66         33.206990000000        -0.000000089356
   67         16.928160000000        -0.000000120949
   68          8.696229000000         0.000000069892
   69          4.350510000000         0.000000432635
   70          2.116523000000         0.000000404239
   71          0.995387000000        -0.000000762701
   72          0.378112000000        -0.000000549256
 P 73
    1      24411.980000000000         0.000000000233
    2       5778.518000000000         0.000000002053
    3       1876.862000000000         0.000000011874
    4        718.236100000000         0.000000052436
    5        304.832700000000         0.000000186366
    6        139.045300000000         0.000000535556
    7         66.804170000000         0.000001189245
    8         33.206990000000         0.000001902552
    9         16.928160000000         0.000001878611
   10          8.696229000000         0.000000866333
   11          4.350510000000         0.000000130700
   12      24411.980000000000         0.000014998913
   13       5778.518000000000         0.000134990218
   14       1876.862000000000         0.000781943336
   15        718.236100000000         0.003477747981
   16        304.832700000000         0.012519092791
   17        139.045300000000         0.037013317790
   18         66.804170000000         0.085552800325
   19         33.206990000000         0.144707513615
   20         16.928160000000         0.143431606075
   21          8.696229000000        -0.043591841071
   22          4.350510000000        -0.348862719290
   23          2.116523000000        -0.453832112570
   24          0.995387000000        -0.268574537459
   25          0.378112000000        -0.038865183593
   26          0.134579000000         0.002491819428
   27      24411.980000000000         0.000000007524
   28       5778.518000000000         0.000000062698
   29       1876.862000000000         0.000000361143
   30        718.236100000000         0.000001617619
   31        304.832700000000         0.000005795842
   32        139.045300000000         0.000017299750
   33         66.804170000000         0.000039831056
   34         33.206990000000         0.000068592077
   35         16.928160000000         0.000066763791
   36          8.696229000000        -0.000027231180
   37          4.350510000000        -0.000200266295
   38          2.116523000000        -0.000266159832
   39          0.995387000000        -0.000172754225
   40          0.378112000000         0.000462425967
   41          0.134579000000         0.001408928920
   42      24411.980000000000        -0.000000007632
   43       5778.518000000000        -0.000000064106
   44       1876.862000000000        -0.000000363267
   45        718.236100000000        -0.000001660650
   46        304.832700000000        -0.000005832117
   47        139.045300000000        -0.000017772619
   48         66.804170000000        -0.000039939549
   49         33.206990000000        -0.000071356056
   50         16.928160000000        -0.000066103945
   51          8.696229000000         0.000020497122
   52          4.350510000000         0.000234898031
   53          2.116523000000         0.000255527944
   54          0.995387000000         0.000129730652
   55          0.378112000000        -0.000688090645
   56          0.134579000000        -0.000978179341
   57      24411.980000000000         0.000000001400
   58       5778.518000000000         0.000000011199
   59       1876.862000000000         0.000000069294
   60        718.236100000000         0.000000289775
   61        304.832700000000         0.000001112553
   62        139.045300000000         0.000003088949
   63         66.804170000000         0.000007742028
   64         33.206990000000         0.000011952396
   65         16.928160000000         0.000016178279
   66          8.696229000000        -0.000009348855
   67          4.350510000000        -0.000057869693
   68          2.116523000000        -0.000054071473
   69          0.995387000000         0.000102019761
   70          0.378112000000         0.000073469122
   71          0.134579000000        -0.000094688480
   72          0.046282000000        -0.001565632805
   73          0.015920000000         0.000480064627
 P 75
[...]
<sd|sg>:          640 b           36 skpd (  5.6%)    0.031 s ( 0.051 ms/b)
<sd|pp>:         1120 b           36 skpd (  3.2%)    0.226 s ( 0.209 ms/b)
<sd|pd>:         1400 b           17 skpd (  1.2%)    0.181 s ( 0.131 ms/b)
<sd|pf>: done
<sd|pg>: done
<sd|dd>:          600 b            1 skpd (  0.2%)    0.117 s ( 0.195 ms/b)
<sd|df>:          600 b            7 skpd (  1.2%)    0.029 s ( 0.049 ms/b)
<sd|dg>:          400 b            6 skpd (  1.5%)    0.048 s ( 0.121 ms/b)
<sd|ff>: done
<sd|fg>: done
<sd|gg>: done
<sf|sf>:          300 b           19 skpd (  6.3%)    0.005 s ( 0.019 ms/b)
<sf|sg>:          384 b           26 skpd (  6.8%)    0.008 s ( 0.024 ms/b)
<sf|pp>:          672 b           31 skpd (  4.6%)    0.053 s ( 0.083 ms/b)
<sf|pd>: done
<sf|pf>: done
<sf|pg>: done
<sf|dd>:          360 b            4 skpd (  1.1%)    0.034 s ( 0.096 ms/b)
<sf|df>: done
<sf|dg>: done
<sf|ff>: done
<sf|fg>: done
<sf|gg>: done
<sg|sg>:          136 b            9 skpd (  6.6%)    0.012 s ( 0.091 ms/b)
<sg|pp>:          448 b           23 skpd (  5.1%)    0.066 s ( 0.154 ms/b)
<sg|pd>: done
<sg|pf>: done
<sg|pg>: done
<sg|dd>:          240 b            4 skpd (  1.7%)    0.046 s ( 0.196 ms/b)
<sg|df>: done
<sg|dg>: done
<sg|ff>: done
<sg|fg>: done
<sg|gg>: done
<pp|pp>:          406 b            0 skpd (  0.0%)    0.321 s ( 0.791 ms/b)
<pp|pd>:          980 b            3 skpd (  0.3%)    0.269 s ( 0.275 ms/b)
<pp|pf>:          588 b            5 skpd (  0.9%)    0.048 s ( 0.083 ms/b)
<pp|pg>:          392 b            4 skpd (  1.0%)    0.076 s ( 0.196 ms/b)
<pp|dd>:          420 b            0 skpd (  0.0%)    0.171 s ( 0.407 ms/b)
<pp|df>:          420 b            1 skpd (  0.2%)    0.041 s ( 0.099 ms/b)
<pp|dg>:          280 b            2 skpd (  0.7%)    0.065 s ( 0.233 ms/b)
<pp|ff>:          168 b            0 skpd (  0.0%)    0.010 s ( 0.061 ms/b)
<pp|fg>:          168 b            0 skpd (  0.0%)    0.015 s ( 0.092 ms/b)
<pp|gg>:           84 b            0 skpd (  0.0%)    0.022 s ( 0.265 ms/b)
<pd|pd>:          630 b            1 skpd (  0.2%)    0.226 s ( 0.359 ms/b)
<pd|pf>:          735 b           12 skpd (  1.6%)    0.050 s ( 0.069 ms/b)
<pd|pg>:          490 b            9 skpd (  1.8%)    0.092 s ( 0.192 ms/b)
<pd|dd>:          525 b            0 skpd (  0.0%)    0.184 s ( 0.351 ms/b)
<pd|df>:          525 b            0 skpd (  0.0%)    0.052 s ( 0.099 ms/b)
<pd|dg>:          350 b            0 skpd (  0.0%)    0.080 s ( 0.229 ms/b)
<pd|ff>: done
<pd|fg>: done
<pd|gg>: done
<pf|pf>:          231 b            6 skpd (  2.6%)    0.013 s ( 0.057 ms/b)
<pf|pg>:          294 b            7 skpd (  2.4%)    0.025 s ( 0.088 ms/b)
<pf|dd>:          315 b            0 skpd (  0.0%)    0.047 s ( 0.148 ms/b)
<pf|df>: done
<pf|dg>: done
<pf|ff>: done
<pf|fg>: done
<pf|gg>: done
<pg|pg>:          105 b            4 skpd (  3.8%)    0.033 s ( 0.326 ms/b)
<pg|dd>:          210 b            0 skpd (  0.0%)    0.065 s ( 0.309 ms/b)
<pg|df>: done
<pg|dg>: done
<pg|ff>: done
<pg|fg>: done
<pg|gg>: done
<dd|dd>:          120 b            0 skpd (  0.0%)    0.070 s ( 0.581 ms/b)
<dd|df>:          225 b            0 skpd (  0.0%)    0.020 s ( 0.090 ms/b)
<dd|dg>:          150 b            0 skpd (  0.0%)    0.033 s ( 0.223 ms/b)
<dd|ff>:           90 b            0 skpd (  0.0%)    0.006 s ( 0.062 ms/b)
<dd|fg>:           90 b            0 skpd (  0.0%)    0.009 s ( 0.095 ms/b)
<dd|gg>:           45 b            0 skpd (  0.0%)    0.013 s ( 0.281 ms/b)
<df|df>:          120 b            0 skpd (  0.0%)    0.009 s ( 0.071 ms/b)
<df|dg>:          150 b            0 skpd (  0.0%)    0.014 s ( 0.091 ms/b)
<df|ff>: done
<df|fg>: done
<df|gg>: done
<dg|dg>:           55 b            0 skpd (  0.0%)    0.016 s ( 0.289 ms/b)
<dg|ff>: done
<dg|fg>: done
<dg|gg>: done
<ff|ff>: done
<ff|fg>: done
<ff|gg>: done
<fg|fg>: done
<fg|gg>: done
<gg|gg>: done
Recanonicalizing the internal orbitals
Recanonicalizing the virtual orbitals
Time needed for Fock operator              ...            7.894 sec
Reference energy                           ...  -1777.846769827

------------------------------
PARTIAL COULOMB TRANSFORMATION
------------------------------

Transformation type                        ... one-operator
Dimension of the basis                     ...   93
Number of internal MOs                     ...   88 (5-92)
Pair cutoff                                ... 0.000e+00 Eh
Number of AO pairs included in the trafo   ... 4371
Total Number of distinct AO pairs          ... 4371
Memory devoted for trafo                   ... 2500.0 MB 
Max. Number of MO pairs treated together   ... 74966      
Max. Number of MOs treated per batch       ...  806      
Number Format for Storage                  ... Double (8 Byte)
AO-integral source                         ... DIRECT
Integral package used                      ... LIBINT

Starting integral evaluation:
<ss|**>:        11700 b        0 skpd     2.623 s (  0.224 ms/b)
<sp|**>:        18200 b        0 skpd     3.398 s (  0.187 ms/b)
<sd|**>:        13000 b        0 skpd     2.123 s (  0.163 ms/b)
<sf|**>:         7800 b        0 skpd     0.243 s (  0.031 ms/b)
<sg|**>:         5200 b        0 skpd     0.399 s (  0.077 ms/b)
<pp|**>:         9100 b        0 skpd     2.175 s (  0.239 ms/b)
<pd|**>:        11375 b        0 skpd     1.680 s (  0.148 ms/b)
<pf|**>:         6825 b        0 skpd     0.336 s (  0.049 ms/b)
<pg|**>:         4550 b        0 skpd     0.561 s (  0.123 ms/b)
<dd|**>:         4875 b        0 skpd     1.130 s (  0.232 ms/b)
<df|**>:         4875 b        0 skpd     0.310 s (  0.064 ms/b)
<dg|**>:         3250 b        0 skpd     0.471 s (  0.145 ms/b)
<ff|**>:         1950 b        0 skpd     0.121 s (  0.062 ms/b)
<fg|**>:         1950 b        0 skpd     0.168 s (  0.086 ms/b)
<gg|**>:          975 b        0 skpd     0.212 s (  0.217 ms/b)
Closing buffer AOJ ( 0.01 GB; CompressionRatio= 1.00)
Collecting buffer AOJ 
    ... done with AO integral generation
Number of MO pairs included in the trafo   ... 3916
    ... Now sorting integrals
IBATCH = 1 of  1
Closing buffer JAO ( 0.01 GB; CompressionRatio= 1.00)
Collecting buffer JAO 
TOTAL TIME for half transformation         ...    16.586 sec
AO-integral generation                     ...    15.821 sec
Half transformation                        ...     0.137 sec
J-integral sorting                         ...     0.561 sec

-------------------------- SECOND HALF TRANSFORMATION -------------------------
Formation of (pq|rs)                       ... ok (     0.842 sec)
Integral sorting                           ... ok (     0.817 sec)

------------------
CLOSED SHELL GUESS
------------------

Initial guess performed in     0.008 sec
E(0)                                       ...  -1777.846769827
E(MP2)                                     ...     -0.909725014
Initial E(tot)                             ...  -1778.756494841
<T|T>                                      ...      0.116492612
Number of pairs included                   ... 55
Total number of pairs                      ... 55

------------------------------------------------
                  RHF COUPLED CLUSTER ITERATIONS
------------------------------------------------

Number of amplitudes to be optimized       ... 335400

Iter       E(tot)           E(Corr)          Delta-E          Residual     Time
  0  -1778.756494841     -0.909725014      0.000000000      0.045715501    0.12
                           *** Turning on DIIS ***
  1  -1778.628866594     -0.782096767      0.127628247      0.012591717    7.68
  2  -1778.667042136     -0.820272308     -0.038175542      0.004799963    7.70
  3  -1778.667589364     -0.820819536     -0.000547228      0.003063927    7.67
  4  -1778.669211432     -0.822441605     -0.001622068      0.001473866    7.65
  5  -1778.670009917     -0.823240089     -0.000798484      0.000421159    7.64
  6  -1778.670157733     -0.823387906     -0.000147817      0.000139173    7.65
  7  -1778.670178916     -0.823409088     -0.000021182      0.000057691    7.66
  8  -1778.670182984     -0.823413157     -0.000004068      0.000018558    7.65
  9  -1778.670183097     -0.823413270     -0.000000113      0.000004299    7.66
               --- The Coupled-Cluster iterations have converged ---

----------------------
COUPLED CLUSTER ENERGY
----------------------

E(0)                                       ...  -1777.846769827
E(CORR)                                    ...     -0.823413270
E(TOT)                                     ...  -1778.670183097
Singles Norm <S|S>**1/2                    ...      0.079892938  
T1 diagnostic                              ...      0.017864604  

------------------
LARGEST AMPLITUDES
------------------
  14-> 21  14-> 21       0.058256
  14-> 19  14-> 19       0.058256
  14-> 20  14-> 20       0.058256
  14-> 22  -1-> -1       0.046004
  14-> 29  14-> 19       0.040239
  14-> 19  14-> 29       0.040239
  14-> 15  14-> 19       0.035385
  14-> 19  14-> 15       0.035385
  14-> 28  14-> 20       0.033281
  14-> 20  14-> 28       0.033281
  14-> 21  14-> 30       0.033210
  14-> 30  14-> 21       0.033210
  14-> 18  -1-> -1       0.032111
  14-> 28  14-> 28       0.031952
  14-> 29  14-> 29       0.031952
  14-> 30  14-> 30       0.031952


        !!!!!!!!!!!!!!!!!!!!!!!!!!!!!!!!!!!!!!!!!!!!!!!!!!!!!!!!!!!!!!!!!!!!!!!!!! 
        !  Warning: Densities are linearized densities !                         !
        !!!!!!!!!!!!!!!!!!!!!!!!!!!!!!!!!!!!!!!!!!!!!!!!!!!!!!!!!!!!!!!!!!!!!!!!!! 

Trace of internal density part =     -0.243257376
Trace of external density part =      0.243257376
----------------------
RHF TRIPLES CORRECTION (Algorithm 1)
----------------------

Multiplier for the singles contribution    ...      1.000000000

10% done
20% done
30% done
40% done
50% done
60% done
70% done
80% done

Triples Correction (T)                     ...     -0.023031611
Scaling of triples based on CCSD energies (Peterson et al. Molecular Physics 113, 1551 (2015))
E(T*) = f*E(T) where f = E(F12-CCSD)/E(CCSD) 
f = CCSD (with F12)/ CCSD (without F12)    ...      1.000000000
Scaled triples correction (T)              ...     -0.023031611

Final correlation energy                   ...     -0.846444880
E(CCSD)                                    ...  -1778.670183097
E(CCSD(T))                                 ...  -1778.693214708

NORM  =      1.128011569 sqrt=     1.062078890
W(HF) =      0.886515730
------------------------------------------------------------------------------
                           ORCA POPULATION ANALYSIS
------------------------------------------------------------------------------
Input electron density              ... 30_Zn.mdcip
BaseName (.gbw .S,...)              ... 30_Zn

                    ********************************
                    * MULLIKEN POPULATION ANALYSIS *
                    ********************************

-----------------------
MULLIKEN ATOMIC CHARGES
-----------------------
   0 Zn:   -0.000000
Sum of atomic charges:   -0.0000000

--------------------------------
MULLIKEN REDUCED ORBITAL CHARGES
--------------------------------
  0 Zns       :     7.908028  s :     7.908028
      pz      :     4.031972  p :    12.095915
      px      :     4.031972
      py      :     4.031972
      dz2     :     1.991559  d :     9.957796
      dxz     :     1.991559
      dyz     :     1.991559
      dx2y2   :     1.991559
      dxy     :     1.991559
      f0      :     0.004865  f :     0.034052
      f+1     :     0.004865
      f-1     :     0.004865
      f+2     :     0.004865
      f-2     :     0.004865
      f+3     :     0.004865
      f-3     :     0.004865
      g0      :     0.000468  g :     0.004210
      g+1     :     0.000468
      g-1     :     0.000468
      g+2     :     0.000468
      g-2     :     0.000468
      g+3     :     0.000468
      g-3     :     0.000468
      g+4     :     0.000468
      g-4     :     0.000468


                     *******************************
                     * LOEWDIN POPULATION ANALYSIS *
                     *******************************

----------------------
LOEWDIN ATOMIC CHARGES
----------------------
   0 Zn:   -0.000000

-------------------------------
LOEWDIN REDUCED ORBITAL CHARGES
-------------------------------
  0 Zns       :     7.908028  s :     7.908028
      pz      :     4.031972  p :    12.095915
      px      :     4.031972
      py      :     4.031972
      dz2     :     1.991559  d :     9.957796
      dxz     :     1.991559
      dyz     :     1.991559
      dx2y2   :     1.991559
      dxy     :     1.991559
      f0      :     0.004865  f :     0.034052
      f+1     :     0.004865
      f-1     :     0.004865
      f+2     :     0.004865
      f-2     :     0.004865
      f+3     :     0.004865
      f-3     :     0.004865
      g0      :     0.000468  g :     0.004210
      g+1     :     0.000468
      g-1     :     0.000468
      g+2     :     0.000468
      g-2     :     0.000468
      g+3     :     0.000468
      g-3     :     0.000468
      g+4     :     0.000468
      g-4     :     0.000468


                      *****************************
                      * MAYER POPULATION ANALYSIS *
                      *****************************

  NA   - Mulliken gross atomic population
  ZA   - Total nuclear charge
  QA   - Mulliken gross atomic charge
  VA   - Mayer's total valence
  BVA  - Mayer's bonded valence
  FA   - Mayer's free valence

  ATOM       NA         ZA         QA         VA         BVA        FA
  0 Zn    30.0000    30.0000    -0.0000     0.9065     0.0000     0.9065





------------------------------------------------------------------------------- 
                                     TIMINGS                                   
------------------------------------------------------------------------------- 


Total execution time                   ...       96.057 sec

Fock Matrix Formation                  ...        7.894 sec (  8.2%)
Initial Guess                          ...        0.008 sec (  0.0%)
DIIS Solver                            ...        0.206 sec (  0.2%)
State Vector Update                    ...        0.009 sec (  0.0%)
Sigma-vector construction              ...       68.871 sec ( 71.7%)
  <D|H|D>(0-ext)                       ...        0.023 sec (  0.0% of sigma)
  <D|H|D>(2-ext Fock)                  ...        0.002 sec (  0.0% of sigma)
  <D|H|D>(2-ext)                       ...        0.049 sec (  0.1% of sigma)
  <D|H|D>(4-ext)                       ...        0.203 sec (  0.3% of sigma)
  <D|H|D>(4-ext-corr)                  ...        0.153 sec (  0.2% of sigma)
  <S|H|0>                              ...        0.003 sec (  0.0% of sigma)
  <S|H|S>                              ...        0.003 sec (  0.0% of sigma)
  <S|H|D>(1-ext)                       ...        0.012 sec (  0.0% of sigma)
  <D|H|S>(1-ext)                       ...        0.012 sec (  0.0% of sigma)
  <S|H|D>(3-ext)                       ...        0.163 sec (  0.2% of sigma)
  Fock-dressing                        ...       67.712 sec ( 98.3% of sigma)
  (ik|jl)-dressing                     ...        0.028 sec (  0.0% of sigma)
  (ij|ab),(ia|jb)-dressing             ...        0.406 sec (  0.6% of sigma)
  Pair energies                        ...        0.002 sec (  0.0% of sigma)
Total Time for computing (T)           ...        0.291 sec (  0.3% of ALL)
  I/O of integral and amplitudes       ...        0.100 sec ( 34.3% of (T))
  N**6 sorting step                    ...        0.062 sec ( 21.4% of (T))
  External N**7 contributions          ...        0.072 sec ( 24.6% of (T))
  Internal N**7 contributions          ...        0.029 sec (  9.9% of (T))
  N**6 triples energy contributions    ...        0.028 sec (  9.7% of (T))
One-particle density matrix            ...        0.002 sec (  0.0%)


-------------------------   --------------------
FINAL SINGLE POINT ENERGY     -1778.693214707755
-------------------------   --------------------


                            ***************************************
                            *     ORCA property calculations      *
                            ***************************************

                                    ---------------------
                                    Active property flags
                                    ---------------------
   (+) Dipole Moment


------------------------------------------------------------------------------
                       ORCA ELECTRIC PROPERTIES CALCULATION
------------------------------------------------------------------------------

Dipole Moment Calculation                       ... on
Quadrupole Moment Calculation                   ... off
Polarizability Calculation                      ... off
GBWName                                         ... 30_Zn.gbw
Electron density file                           ... 30_Zn.scfp
The origin for moment calculation is the CENTER OF MASS  = ( 0.000000,  0.000000  0.000000)

-------------
DIPOLE MOMENT
-------------
                                X             Y             Z
Electronic contribution:      0.00000       0.00000      -0.00000
Nuclear contribution   :      0.00000       0.00000       0.00000
                        -----------------------------------------
Total Dipole Moment    :      0.00000       0.00000      -0.00000
                        -----------------------------------------
Magnitude (a.u.)       :      0.00000
Magnitude (Debye)      :      0.00000



--------------------
Rotational spectrum 
--------------------
 
Rotational constants in cm-1:     0.000000     0.000000     0.000000 
Rotational constants in MHz :     0.000000     0.000000     0.000000 

 Dipole components along the rotational axes: 
x,y,z [a.u.] :     0.000000     0.000000    -0.000000 
x,y,z [Debye]:     0.000000     0.000000    -0.000000 

 

                           *** MDCI DENSITY ***

------------------------------------------------------------------------------
                       ORCA ELECTRIC PROPERTIES CALCULATION
------------------------------------------------------------------------------

Dipole Moment Calculation                       ... on
Quadrupole Moment Calculation                   ... off
Polarizability Calculation                      ... off
GBWName                                         ... 30_Zn.gbw
Electron density file                           ... 30_Zn.mdcip
The origin for moment calculation is the CENTER OF MASS  = ( 0.000000,  0.000000  0.000000)

-------------
DIPOLE MOMENT
-------------
                                X             Y             Z
Electronic contribution:     -0.00000      -0.00000      -0.00000
Nuclear contribution   :      0.00000       0.00000       0.00000
                        -----------------------------------------
Total Dipole Moment    :     -0.00000      -0.00000      -0.00000
                        -----------------------------------------
Magnitude (a.u.)       :      0.00000
Magnitude (Debye)      :      0.00000



--------------------
Rotational spectrum 
--------------------
 
Rotational constants in cm-1:     0.000000     0.000000     0.000000 
Rotational constants in MHz :     0.000000     0.000000     0.000000 

 Dipole components along the rotational axes: 
x,y,z [a.u.] :    -0.000000    -0.000000    -0.000000 
x,y,z [Debye]:    -0.000000    -0.000000    -0.000000 

 

Timings for individual modules:

Sum of individual times         ...      168.638 sec (=   2.811 min)
GTO integral calculation        ...        3.036 sec (=   0.051 min)   1.8 %
SCF iterations                  ...       68.953 sec (=   1.149 min)  40.9 %
MDCI module                     ...       96.650 sec (=   1.611 min)  57.3 %
                             ****ORCA TERMINATED NORMALLY****
TOTAL RUN TIME: 0 days 0 hours 2 minutes 49 seconds 677 msec
